INSANE! Membrane UpperLeaflet>loPI=1.0 LowerLeaflet>PSPI:POPI:POPS:YOPS:POPE:YOPE:POPC:YOPC:ERGO=6.0:14.0:21.0:9.0:9.0:21.0:12.0:48.0:60.0
49877
    1loPI    C1    1   0.397   9.833  10.869  0.0948  0.2858  0.2300
    1loPI    C2    2   0.650   9.642  11.113  0.1698 -0.3701 -0.3312
    1loPI    C3    3   0.256   9.589  11.153  0.1389  0.0988  0.0928
    1loPI   PO4    4   0.471   9.710  10.610  0.3340 -0.3052 -0.1711
    1loPI   GL1    5   0.491   9.730  10.300  0.1798  0.2517  0.0618
    1loPI   GL2    6   0.731  10.110  10.405  0.0345  0.0647  0.0724
    1loPI   C1A    7   0.492   9.860   9.831 -0.4356  0.0591 -0.1523
    1loPI   C2A    8   0.461   9.987   9.376  0.1116 -0.1926  0.2431
    1loPI   C3A    9   0.403   9.990   8.895 -0.0312  0.0678 -0.2092
    1loPI   C4A   10   0.533   9.935   8.475  0.3609 -0.2235  0.3420
    1loPI   C5A   11   0.565   9.556   8.267 -0.2305  0.0086 -0.0677
    1loPI   C6A   12   0.627   9.124   8.229  0.1318  0.2150  0.2843
    1loPI   C1B   13   0.866  10.247  10.066 -0.2574  0.1316 -0.0474
    1loPI   C2B   14   0.877  10.191   9.597  0.2187  0.0432 -0.2584
    1loPI   C3B   15   0.880  10.221   9.140 -0.1107  0.1610 -0.3646
    1loPI   C4B   16   0.807  10.247   8.741  0.0649 -0.3739 -0.0749
    2loPI    C1   17  12.826   7.415  10.526 -0.1786 -0.2016  0.0480
    2loPI    C2   18  12.554   7.514  10.802 -0.0174  0.0463  0.1220
    2loPI    C3   19  12.941   7.489  10.902  0.0491  0.1920 -0.0925
    2loPI   PO4   20  12.784   7.538  10.337  0.0657 -0.1077 -0.2728
    2loPI   GL1   21  12.427   7.466  10.089  0.1285  0.0223 -0.0711
    2loPI   GL2   22  12.137   7.306   9.947  0.1777 -0.4614  0.0293
    2loPI   C1A   23  12.492   7.680   9.646  0.1661 -0.2581  0.1245
    2loPI   C2A   24  12.603   7.719   9.153  0.1210 -0.0426  0.0475
    2loPI   C3A   25  12.662   7.602   8.780 -0.2494 -0.4197 -0.1745
    2loPI   C4A   26  12.695   7.635   8.282 -0.0710 -0.0525 -0.0717
    2loPI   C5A   27  12.620   7.360   7.830 -0.3089 -0.4370 -0.1126
    2loPI   C6A   28  12.225   7.067   7.856  0.0138 -0.4033  0.1459
    2loPI   C1B   29  12.143   7.295   9.514  0.3444 -0.6246  0.0541
    2loPI   C2B   30  12.250   7.345   9.012  0.1225  0.0358  0.1948
    2loPI   C3B   31  12.182   7.377   8.589 -0.1089 -0.1087  0.1501
    2loPI   C4B   32  12.251   7.474   8.134 -0.1736 -0.0952 -0.2307
    3loPI    C1   33  10.730   9.675  10.788  0.1683  0.1013  0.1520
    3loPI    C2   34  10.365   9.548  10.891  0.1210  0.0752 -0.0420
    3loPI    C3   35  10.664   9.539  11.158 -0.0232  0.1120  0.1226
    3loPI   PO4   36  10.625   9.821  10.588 -0.0697 -0.0408 -0.1317
    3loPI   GL1   37  10.761   9.752  10.248 -0.2919  0.0692 -0.0786
    3loPI   GL2   38  10.484   9.552  10.095  0.3127 -0.2330 -0.2929
    3loPI   C1A   39  10.800   9.751   9.826  0.0416 -0.3768  0.1490
    3loPI   C2A   40  10.911   9.815   9.383 -0.0246 -0.3576  0.4126
    3loPI   C3A   41  10.927   9.757   9.005 -0.1981  0.0895  0.4112
    3loPI   C4A   42  10.952   9.818   8.659  0.0756  0.2778 -0.1201
    3loPI   C5A   43  10.916   9.977   8.172 -0.2463  0.0409  0.1476
    3loPI   C6A   44  10.906  10.327   8.117  0.1467  0.1655  0.2377
    3loPI   C1B   45  10.318   9.855   9.725 -0.0223 -0.0287 -0.1884
    3loPI   C2B   46  10.379   9.971   9.340  0.0045 -0.1316 -0.1628
    3loPI   C3B   47  10.398  10.007   8.962  0.5971  0.3140 -0.2210
    3loPI   C4B   48  10.461   9.975   8.537 -0.2071 -0.0598 -0.0443
    4loPI    C1   49   3.352   3.811  10.979  0.0785 -0.0740  0.2145
    4loPI    C2   50   3.039   3.613  10.828  0.0718  0.0835  0.0171
    4loPI    C3   51   3.093   3.631  11.224 -0.2090  0.1166  0.0553
    4loPI   PO4   52   3.379   4.033  10.877  0.1812 -0.0062 -0.0994
    4loPI   GL1   53   3.385   4.091  10.402  0.0542  0.2084  0.3240
    4loPI   GL2   54   3.679   4.362  10.276  0.4507 -0.0358 -0.2813
    4loPI   C1A   55   3.452   4.113   9.906 -0.0036 -0.4516 -0.1527
    4loPI   C2A   56   3.476   4.167   9.442 -0.1253  0.1643 -0.3591
    4loPI   C3A   57   3.529   4.202   8.992 -0.0399 -0.0283 -0.1886
    4loPI   C4A   58   3.632   4.083   8.610  0.3725  0.4055  0.0488
    4loPI   C5A   59   3.730   4.346   8.174 -0.1470  0.0405 -0.1796
    4loPI   C6A   60   3.963   4.611   8.007 -0.2620 -0.3276  0.1491
    4loPI   C1B   61   3.922   4.487   9.889 -0.1710 -0.0187  0.3277
    4loPI   C2B   62   3.924   4.616   9.423  0.1980 -0.1206  0.0945
    4loPI   C3B   63   3.896   4.604   9.014 -0.0568  0.0863 -0.1713
    4loPI   C4B   64   3.935   4.535   8.608 -0.1886 -0.2970  0.3413
    5loPI    C1   65   6.366   3.911  11.182 -0.0997  0.1213  0.2407
    5loPI    C2   66   6.666   3.694  11.333 -0.1301  0.1005  0.2715
    5loPI    C3   67   6.476   3.961  11.563 -0.1418  0.1067  0.2548
    5loPI   PO4   68   6.440   3.857  10.878 -0.0453  0.2494  0.0412
    5loPI   GL1   69   6.517   3.603  10.517 -0.3476  0.0823  0.0867
    5loPI   GL2   70   6.359   3.360  10.615  0.0131  0.0467  0.0841
    5loPI   C1A   71   6.691   3.773  10.156 -0.0664 -0.1715 -0.0752
    5loPI   C2A   72   6.626   3.958   9.724 -0.1601 -0.0651  0.0673
    5loPI   C3A   73   6.787   3.963   9.270 -0.2839  0.2632 -0.1779
    5loPI   C4A   74   6.804   3.986   8.774 -0.0900  0.1463 -0.2602
    5loPI   C5A   75   6.982   4.033   8.339  0.1294 -0.0916 -0.1236
    5loPI   C6A   76   7.372   3.939   8.315 -0.2173  0.1482  0.0473
    5loPI   C1B   77   6.242   3.434  10.185 -0.1771  0.1798 -0.2445
    5loPI   C2B   78   6.285   3.604   9.773 -0.0890  0.1034 -0.0565
    5loPI   C3B   79   6.354   3.591   9.375 -0.2124 -0.2987  0.0944
    5loPI   C4B   80   6.353   3.652   8.891 -0.3873 -0.3268 -0.0826
    6loPI    C1   81   3.100   0.076  11.107 -0.3561 -0.0413 -0.1156
    6loPI    C2   82   2.804  -0.069  11.334 -0.1726 -0.1243  0.0751
    6loPI    C3   83   2.904   0.318  11.359 -0.1203 -0.1437  0.1729
    6loPI   PO4   84   3.071   0.007  10.807  0.1095 -0.1068  0.1618
    6loPI   GL1   85   2.792  -0.183  10.554 -0.2245 -0.0429 -0.0202
    6loPI   GL2   86   2.526  -0.353  10.584  0.1703 -0.2894 -0.2675
    6loPI   C1A   87   2.832  -0.091  10.132  0.2265 -0.2520 -0.1356
    6loPI   C2A   88   2.917  -0.003   9.719 -0.2766  0.2940  0.1074
    6loPI   C3A   89   2.945   0.019   9.301 -0.0817 -0.0673  0.0475
    6loPI   C4A   90   2.919   0.013   8.855 -0.0682  0.1566 -0.0921
    6loPI   C5A   91   2.859  -0.099   8.435  0.1993 -0.0464 -0.1660
    6loPI   C6A   92   2.671   0.196   8.146 -0.0759 -0.0274  0.2507
    6loPI   C1B   93   2.429  -0.406  10.184  0.2304  0.2564 -0.0559
    6loPI   C2B   94   2.517  -0.356   9.820  0.0244 -0.1307  0.1249
    6loPI   C3B   95   2.536  -0.353   9.412  0.0830 -0.2074 -0.0265
    6loPI   C4B   96   2.468  -0.302   8.964  0.0088  0.2472 -0.1524
    7loPI    C1   97   3.692  11.039  11.307  0.1689  0.1893 -0.0011
    7loPI    C2   98   3.653  10.751  11.583 -0.2763  0.0206 -0.2303
    7loPI    C3   99   3.523  11.121  11.661 -0.1841  0.0320 -0.1284
    7loPI   PO4  100   3.749  10.971  11.110  0.0673  0.0871 -0.2230
    7loPI   GL1  101   3.831  10.879  10.690 -0.0335 -0.1474 -0.1651
    7loPI   GL2  102   4.031  10.972  10.546  0.0530  0.1289 -0.0521
    7loPI   C1A  103   3.584  10.764  10.343 -0.0334 -0.0371 -0.0671
    7loPI   C2A  104   3.446  10.848   9.942  0.0144 -0.6244 -0.0429
    7loPI   C3A  105   3.403  10.851   9.392 -0.4200  0.1721  0.1298
    7loPI   C4A  106   3.384  10.845   8.911  0.0727 -0.0761  0.2766
    7loPI   C5A  107   3.253  11.015   8.534 -0.1995 -0.1348  0.1591
    7loPI   C6A  108   3.369  11.301   8.299  0.1106 -0.1701 -0.1412
    7loPI   C1B  109   3.881  11.109  10.180  0.5434 -0.1644  0.3533
    7loPI   C2B  110   3.852  11.105   9.797 -0.2629 -0.0231 -0.0051
    7loPI   C3B  111   3.869  11.184   9.321  0.0132  0.0845 -0.0393
    7loPI   C4B  112   3.814  11.194   8.822  0.0491 -0.3538 -0.2129
    8loPI    C1  113  11.899   5.634  10.590  0.1515  0.0120  0.0999
    8loPI    C2  114  11.959   5.915  10.868 -0.2548 -0.0398  0.2471
    8loPI    C3  115  11.703   5.616  10.938 -0.1300 -0.2252 -0.0660
    8loPI   PO4  116  11.910   5.778  10.300  0.0984 -0.1341  0.0318
    8loPI   GL1  117  11.808   5.747   9.878  0.1652 -0.0083  0.1406
    8loPI   GL2  118  12.039   5.465   9.809  0.1529 -0.0111  0.1134
    8loPI   C1A  119  11.802   5.984   9.471  0.0729 -0.3562  0.3389
    8loPI   C2A  120  11.908   5.976   9.090  0.1381  0.0251 -0.4049
    8loPI   C3A  121  11.842   5.960   8.631  0.0803 -0.2281  0.1394
    8loPI   C4A  122  11.980   5.955   8.241  0.0980 -0.0983 -0.0187
    8loPI   C5A  123  11.773   5.672   7.919 -0.0222 -0.0927  0.0033
    8loPI   C6A  124  11.630   5.715   7.565 -0.4251 -0.2953 -0.4078
    8loPI   C1B  125  11.974   5.490   9.423 -0.1617 -0.3944  0.2351
    8loPI   C2B  126  12.021   5.419   8.999 -0.0724  0.0694 -0.0506
    8loPI   C3B  127  12.117   5.472   8.536 -0.0201 -0.1584 -0.2107
    8loPI   C4B  128  12.144   5.392   8.116  0.0149  0.0266  0.2734
    9loPI    C1  129   9.612   7.705  10.209 -0.2215  0.3352 -0.0068
    9loPI    C2  130   9.519   7.464  10.515  0.0329  0.1096 -0.1030
    9loPI    C3  131   9.237   7.575  10.254 -0.1235  0.0623  0.0447
    9loPI   PO4  132   9.817   7.592  10.138 -0.1149 -0.2970 -0.0100
    9loPI   GL1  133   9.817   7.530   9.746  0.0667  0.0091 -0.3614
    9loPI   GL2  134   9.463   7.750   9.739  0.2986  0.1207 -0.2814
    9loPI   C1A  135   9.747   7.335   9.333 -0.0224 -0.1007  0.2804
    9loPI   C2A  136   9.920   7.282   8.854  0.0581 -0.0167  0.1062
    9loPI   C3A  137   9.989   7.222   8.453 -0.1771  0.0265 -0.1792
    9loPI   C4A  138   9.938   7.323   8.009  0.1101  0.0236 -0.1888
    9loPI   C5A  139   9.992   7.650   7.747 -0.0588 -0.2308 -0.0961
    9loPI   C6A  140   9.918   7.866   7.363 -0.4821 -0.1905  0.1229
    9loPI   C1B  141   9.746   7.833   9.402 -0.2079 -0.1392 -0.0418
    9loPI   C2B  142   9.790   7.767   9.011  0.2437  0.1763 -0.1922
    9loPI   C3B  143   9.897   7.780   8.555  0.1171  0.0433  0.1079
    9loPI   C4B  144   9.756   7.814   8.157  0.0707 -0.4000 -0.0996
   10loPI    C1  145  15.324   9.999  10.633  0.0230  0.1703  0.1637
   10loPI    C2  146  15.106   9.828  10.344  0.1758 -0.1197  0.2168
   10loPI    C3  147  14.936   9.922  10.694  0.0488  0.0029  0.1227
   10loPI   PO4  148  15.522   9.984  10.641 -0.1940  0.1704 -0.1551
   10loPI   GL1  149  15.789  10.283  10.357  0.0978 -0.0149 -0.1666
   10loPI   GL2  150  15.456  10.178  10.136 -0.3523 -0.0652  0.0672
   10loPI   C1A  151  15.848  10.438   9.938 -0.1827 -0.1502 -0.1938
   10loPI   C2A  152  15.838  10.489   9.457 -0.0007 -0.0920  0.1708
   10loPI   C3A  153  15.773  10.405   9.029  0.2023 -0.1051  0.0814
   10loPI   C4A  154  15.763  10.353   8.639 -0.1195  0.0215  0.0647
   10loPI   C5A  155  15.722  10.595   8.312  0.1542  0.0734 -0.0803
   10loPI   C6A  156  15.894  10.765   7.870 -0.0495  0.1304 -0.0023
   10loPI   C1B  157  15.388  10.106   9.636 -0.0420 -0.2705 -0.2955
   10loPI   C2B  158  15.428  10.031   9.144  0.1120 -0.4306  0.2071
   10loPI   C3B  159  15.409  10.041   8.688 -0.3639 -0.1360 -0.3219
   10loPI   C4B  160  15.305  10.269   8.344 -0.1395 -0.1159  0.0979
   11loPI    C1  161  17.938  14.050  11.458  0.0902 -0.1217  0.1104
   11loPI    C2  162  18.313  14.154  11.551  0.0223 -0.0188  0.2735
   11loPI    C3  163  18.196  13.774  11.589  0.1679 -0.0906  0.0235
   11loPI   PO4  164  17.852  14.225  11.221  0.2301  0.0997 -0.2369
   11loPI   GL1  165  17.768  14.464  10.794 -0.1060  0.0587  0.0235
   11loPI   GL2  166  17.591  14.234  10.720 -0.0618  0.2269 -0.2200
   11loPI   C1A  167  17.799  14.628  10.430  0.0806  0.2930  0.1796
   11loPI   C2A  168  17.813  14.550  10.034 -0.0100  0.1906 -0.2350
   11loPI   C3A  169  17.838  14.479   9.756  0.3440 -0.1162  0.0468
   11loPI   C4A  170  17.767  14.566   9.233  0.1171 -0.2081  0.0692
   11loPI   C5A  171  17.705  14.594   8.723  0.0821 -0.1483  0.1867
   11loPI   C6A  172  17.648  14.249   8.488 -0.3559  0.2365 -0.4304
   11loPI   C1B  173  17.503  14.246  10.215 -0.0879  0.1202 -0.1903
   11loPI   C2B  174  17.418  14.094   9.810  0.2365  0.0055 -0.0423
   11loPI   C3B  175  17.454  14.179   9.436 -0.0693 -0.0969 -0.1947
   11loPI   C4B  176  17.413  14.233   9.023 -0.0131  0.1219 -0.1425
   12loPI    C1  177   3.724   5.778  11.202 -0.0476 -0.1479  0.0385
   12loPI    C2  178   3.555   5.433  11.314 -0.2104 -0.0036  0.2451
   12loPI    C3  179   3.678   5.694  11.591 -0.2101  0.1631  0.0891
   12loPI   PO4  180   3.714   5.798  10.908  0.0199  0.0482 -0.1256
   12loPI   GL1  181   3.991   5.845  10.560 -0.2376 -0.1659  0.0682
   12loPI   GL2  182   3.966   5.569  10.425  0.0509 -0.0982  0.3387
   12loPI   C1A  183   4.090   5.841  10.041  0.0152  0.1839 -0.4201
   12loPI   C2A  184   4.009   5.932   9.665 -0.2486  0.1717  0.1045
   12loPI   C3A  185   4.029   5.886   9.270  0.0349  0.2197 -0.0203
   12loPI   C4A  186   4.102   5.966   8.868  0.0999 -0.2063 -0.0164
   12loPI   C5A  187   4.054   5.821   8.466  0.0751 -0.1439 -0.2094
   12loPI   C6A  188   3.709   5.552   8.227 -0.2995  0.2064 -0.0362
   12loPI   C1B  189   3.627   5.623   9.966  0.0223  0.1571  0.1865
   12loPI   C2B  190   3.530   5.590   9.533  0.3668 -0.0486 -0.0563
   12loPI   C3B  191   3.619   5.571   9.150 -0.0868 -0.0150 -0.2649
   12loPI   C4B  192   3.760   5.493   8.721  0.1019 -0.0730 -0.0105
   13loPI    C1  193  11.152   8.395  10.755 -0.3996 -0.0480 -0.0792
   13loPI    C2  194  10.920   8.655  10.950 -0.1351  0.0382  0.1278
   13loPI    C3  195  11.317   8.702  10.952 -0.0810 -0.3842  0.1932
   13loPI   PO4  196  11.062   8.342  10.528  0.2531  0.1029 -0.0131
   13loPI   GL1  197  11.073   8.425  10.144 -0.0714  0.0522  0.2153
   13loPI   GL2  198  11.132   8.261  10.018 -0.0141 -0.1092 -0.0848
   13loPI   C1A  199  11.056   8.596   9.673 -0.1736 -0.0716  0.0752
   13loPI   C2A  200  11.023   8.795   9.308 -0.3273 -0.1682 -0.4055
   13loPI   C3A  201  10.990   8.801   8.889  0.0640 -0.2108  0.0347
   13loPI   C4A  202  11.048   8.774   8.471  0.0014  0.0464 -0.0577
   13loPI   C5A  203  11.071   8.994   8.046 -0.5872  0.1271  0.1337
   13loPI   C6A  204  11.337   9.040   7.676 -0.1220  0.2498  0.2933
   13loPI   C1B  205  11.122   8.129   9.630  0.0667 -0.1224 -0.0394
   13loPI   C2B  206  11.127   8.282   9.215 -0.0579  0.1330 -0.3608
   13loPI   C3B  207  11.131   8.355   8.706  0.0896 -0.2825  0.0244
   13loPI   C4B  208  11.239   8.330   8.273  0.3436  0.0237 -0.1780
   14loPI    C1  209  13.894   8.718  11.294 -0.0077 -0.0140  0.0746
   14loPI    C2  210  13.534   8.547  11.257  0.0364 -0.1116  0.0943
   14loPI    C3  211  13.824   8.361  11.461  0.0630  0.0201  0.1778
   14loPI   PO4  212  14.068   8.742  11.053 -0.1764  0.1489  0.1148
   14loPI   GL1  213  14.223   8.575  10.581 -0.2440  0.1132 -0.0132
   14loPI   GL2  214  14.446   8.685  10.488  0.0703 -0.1211 -0.3530
   14loPI   C1A  215  14.192   8.499  10.082 -0.2391  0.0875 -0.0460
   14loPI   C2A  216  14.281   8.580   9.760  0.1254  0.2280 -0.1856
   14loPI   C3A  217  14.263   8.456   9.328 -0.2493 -0.1413 -0.0416
   14loPI   C4A  218  14.259   8.468   8.985 -0.1545  0.1154 -0.0166
   14loPI   C5A  219  14.407   8.581   8.513  0.1434 -0.2958 -0.2743
   14loPI   C6A  220  14.349   8.330   8.186 -0.0766  0.2666 -0.3015
   14loPI   C1B  221  14.624   8.841  10.183  0.0170 -0.2950  0.0256
   14loPI   C2B  222  14.743   8.820   9.759  0.1764  0.2675  0.2820
   14loPI   C3B  223  14.749   8.881   9.293 -0.1420 -0.0503  0.0480
   14loPI   C4B  224  14.637   8.815   8.914  0.2988  0.2054 -0.0861
   15loPI    C1  225   7.761  13.890  10.595 -0.0150 -0.0091 -0.1020
   15loPI    C2  226   8.005  14.163  10.434 -0.1282  0.1277 -0.0441
   15loPI    C3  227   8.143  13.911  10.712  0.0022  0.0594 -0.1696
   15loPI   PO4  228   7.530  14.068  10.617 -0.0393 -0.2673 -0.0521
   15loPI   GL1  229   7.406  14.245  10.346 -0.0178 -0.0324 -0.0059
   15loPI   GL2  230   7.614  14.494  10.302  0.0341 -0.1912 -0.0808
   15loPI   C1A  231   7.790  14.149  10.017 -0.2185  0.0353 -0.0082
   15loPI   C2A  232   7.810  14.175   9.665 -0.2598 -0.0448  0.0940
   15loPI   C3A  233   7.819  14.204   9.217 -0.0487  0.3372  0.0244
   15loPI   C4A  234   7.822  14.151   8.813  0.1449 -0.1360 -0.2966
   15loPI   C5A  235   7.854  14.239   8.404 -0.1978 -0.2546 -0.0213
   15loPI   C6A  236   8.174  14.210   8.040  0.1862  0.2219 -0.0194
   15loPI   C1B  237   7.673  14.596   9.868 -0.1823  0.1228  0.0087
   15loPI   C2B  238   7.732  14.702   9.393 -0.1172 -0.3799  0.1360
   15loPI   C3B  239   7.761  14.625   8.899  0.1417 -0.0448 -0.2346
   15loPI   C4B  240   7.660  14.763   8.481  0.0062 -0.0119 -0.0208
   16loPI    C1  241  12.314   9.628  10.792 -0.1733 -0.0143 -0.0861
   16loPI    C2  242  12.088   9.562  11.116 -0.0299  0.1208  0.0433
   16loPI    C3  243  12.457   9.712  11.157  0.1108 -0.1605 -0.1608
   16loPI   PO4  244  12.147   9.717  10.634  0.4774 -0.0156  0.2273
   16loPI   GL1  245  12.027   9.590  10.304  0.0216  0.2683  0.2637
   16loPI   GL2  246  11.768   9.495  10.238  0.0950 -0.2229  0.1435
   16loPI   C1A  247  12.186   9.661   9.853 -0.0258 -0.0596  0.0153
   16loPI   C2A  248  12.203   9.710   9.401 -0.1380  0.0332 -0.1385
   16loPI   C3A  249  12.209   9.787   9.013  0.1055 -0.2599  0.0135
   16loPI   C4A  250  12.275   9.730   8.656  0.0590  0.1139  0.1579
   16loPI   C5A  251  12.107   9.570   8.241 -0.0973 -0.0572 -0.2610
   16loPI   C6A  252  11.763   9.361   8.107  0.1672  0.0710  0.0308
   16loPI   C1B  253  11.780   9.240   9.938 -0.1805 -0.1793  0.1199
   16loPI   C2B  254  11.827   9.395   9.538 -0.2556  0.1197  0.0810
   16loPI   C3B  255  11.846   9.383   9.129  0.1874 -0.3165 -0.0470
   16loPI   C4B  256  11.933   9.353   8.686 -0.2598 -0.2284 -0.2443
   17loPI    C1  257   8.980   5.114  10.618 -0.1014  0.0168 -0.0618
   17loPI    C2  258   8.767   4.885  10.868 -0.0814  0.0130 -0.0481
   17loPI    C3  259   8.973   5.197  11.009 -0.0554  0.0001 -0.0574
   17loPI   PO4  260   8.814   5.158  10.468 -0.1634  0.1451  0.2382
   17loPI   GL1  261   8.768   5.101  10.085 -0.1330  0.0992 -0.1196
   17loPI   GL2  262   8.982   4.848  10.127  0.1076 -0.0215 -0.0555
   17loPI   C1A  263   8.723   5.273   9.722  0.0081  0.1064 -0.1766
   17loPI   C2A  264   8.774   5.280   9.371  0.1846 -0.2141 -0.3047
   17loPI   C3A  265   8.848   5.244   8.903 -0.0293 -0.0405 -0.0405
   17loPI   C4A  266   8.969   5.253   8.486 -0.2296 -0.1707  0.1679
   17loPI   C5A  267   8.866   5.122   8.024  0.1796 -0.0342  0.0994
   17loPI   C6A  268   8.530   4.893   8.008 -0.2905 -0.1145 -0.0372
   17loPI   C1B  269   9.168   5.018   9.747 -0.1779  0.2353 -0.1600
   17loPI   C2B  270   9.291   5.021   9.261  0.0531 -0.1892  0.0308
   17loPI   C3B  271   9.420   5.056   8.821  0.2164  0.0405 -0.2732
   17loPI   C4B  272   9.397   4.934   8.327 -0.1177  0.1169  0.1566
   18loPI    C1  273   0.483   6.511  10.705  0.1726  0.0481 -0.0756
   18loPI    C2  274   0.557   6.181  10.919  0.1858 -0.0018 -0.1566
   18loPI    C3  275   0.213   6.379  10.969  0.0595 -0.1804 -0.2998
   18loPI   PO4  276   0.523   6.423  10.439  0.0453  0.5360 -0.1430
   18loPI   GL1  277   0.636   6.248  10.023  0.3416  0.1414  0.3149
   18loPI   GL2  278   0.346   6.101  10.071 -0.1216 -0.3138 -0.0556
   18loPI   C1A  279   0.689   6.515   9.603  0.1410  0.0469 -0.0738
   18loPI   C2A  280   0.710   6.571   9.147  0.1071  0.2082 -0.1279
   18loPI   C3A  281   0.737   6.589   8.824  0.0389  0.2224  0.2632
   18loPI   C4A  282   0.863   6.613   8.417 -0.0529 -0.0033  0.0292
   18loPI   C5A  283   1.251   6.793   8.252  0.0533  0.1166  0.2405
   18loPI   C6A  284   1.602   7.075   8.095 -0.1088  0.0609  0.1576
   18loPI   C1B  285   0.339   6.130   9.608 -0.3346 -0.0971 -0.1071
   18loPI   C2B  286   0.260   6.271   9.290 -0.0165  0.0696  0.3252
   18loPI   C3B  287   0.264   6.310   8.872  0.1384 -0.1053 -0.2881
   18loPI   C4B  288   0.309   6.215   8.461  0.0100  0.1993 -0.2902
   19loPI    C1  289  12.765  10.896  10.892  0.0472  0.0313  0.0701
   19loPI    C2  290  12.705  10.511  10.802  0.2419  0.0625 -0.2066
   19loPI    C3  291  12.764  10.620  11.182  0.1319 -0.1721 -0.1200
   19loPI   PO4  292  12.798  10.985  10.581 -0.0594 -0.2251 -0.0582
   19loPI   GL1  293  12.744  10.734  10.290  0.1554  0.1785 -0.0282
   19loPI   GL2  294  12.550  10.505  10.135 -0.0436  0.0482 -0.0273
   19loPI   C1A  295  12.867  10.878   9.912 -0.0461 -0.1812  0.0104
   19loPI   C2A  296  12.971  10.832   9.454 -0.0308 -0.1539 -0.0124
   19loPI   C3A  297  12.959  10.908   9.098  0.1795 -0.0325  0.2353
   19loPI   C4A  298  12.989  10.935   8.629 -0.1391  0.1033 -0.0324
   19loPI   C5A  299  13.128  10.620   8.331  0.0080 -0.1374 -0.0703
   19loPI   C6A  300  13.061  10.188   8.153 -0.1359 -0.0022  0.2062
   19loPI   C1B  301  12.530  10.530   9.633 -0.0602 -0.0506 -0.0024
   19loPI   C2B  302  12.568  10.620   9.208 -0.0278  0.3802 -0.1526
   19loPI   C3B  303  12.643  10.602   8.741  0.0838 -0.3324 -0.0006
   19loPI   C4B  304  12.626  10.536   8.270  0.1592  0.1640  0.0193
   20loPI    C1  305  14.736  11.910  11.326 -0.0334  0.2337 -0.0054
   20loPI    C2  306  14.659  12.140  11.644 -0.3653 -0.1801  0.2239
   20loPI    C3  307  14.914  11.834  11.676 -0.1745 -0.0469  0.0080
   20loPI   PO4  308  14.730  12.040  11.105 -0.0941 -0.4105 -0.0147
   20loPI   GL1  309  14.484  12.007  10.650  0.1270 -0.3637  0.2321
   20loPI   GL2  310  14.304  11.770  10.624  0.0799  0.0286  0.0770
   20loPI   C1A  311  14.607  12.196  10.242  0.0943 -0.1102  0.3923
   20loPI   C2A  312  14.458  12.214   9.976 -0.1110 -0.0771  0.3693
   20loPI   C3A  313  14.628  12.383   9.703  0.1031  0.1809  0.1341
   20loPI   C4A  314  14.519  12.316   9.353 -0.0771 -0.0801 -0.0730
   20loPI   C5A  315  14.597  12.336   8.912 -0.0426 -0.0416  0.0358
   20loPI   C6A  316  14.672  12.240   8.456 -0.2173 -0.0649 -0.1102
   20loPI   C1B  317  14.169  11.886  10.070  0.1371  0.0697  0.1421
   20loPI   C2B  318  14.014  11.993   9.754 -0.1404  0.2234  0.0512
   20loPI   C3B  319  14.148  11.939   9.335 -0.1455  0.0336  0.2580
   20loPI   C4B  320  14.196  11.935   8.931 -0.2893 -0.2001 -0.1858
   21loPI    C1  321  18.175   5.521  10.836 -0.1316  0.0114  0.0171
   21loPI    C2  322  18.499   5.705  10.981 -0.2499  0.1987  0.0477
   21loPI    C3  323  18.233   5.544  11.231  0.0423 -0.3568  0.0172
   21loPI   PO4  324  18.274   5.421  10.590 -0.0943 -0.0020 -0.0843
   21loPI   GL1  325  18.451   5.647  10.247  0.0442 -0.1580 -0.0431
   21loPI   GL2  326  18.128   5.720   9.956 -0.0872 -0.2044  0.0381
   21loPI   C1A  327  18.601   5.598   9.839 -0.3870 -0.3330 -0.5302
   21loPI   C2A  328  18.530   5.606   9.449  0.0644 -0.1041 -0.0822
   21loPI   C3A  329  18.478   5.798   9.136 -0.1522 -0.1113  0.1791
   21loPI   C4A  330  18.565   5.771   8.739 -0.2677 -0.0498  0.0542
   21loPI   C5A  331  18.573   5.635   8.395  0.1790 -0.0023  0.1362
   21loPI   C6A  332  18.641   5.940   8.070 -0.0196 -0.1145 -0.1535
   21loPI   C1B  333  18.068   5.812   9.566 -0.0368  0.2074 -0.4104
   21loPI   C2B  334  17.977   5.874   9.080 -0.2363  0.2330 -0.0751
   21loPI   C3B  335  18.062   5.890   8.594 -0.1467  0.1338 -0.4360
   21loPI   C4B  336  18.104   5.904   8.169 -0.0495 -0.2229 -0.0721
   22loPI    C1  337   9.487   3.903  10.698  0.2008  0.1922 -0.1226
   22loPI    C2  338   9.118   4.058  10.694  0.1607  0.0968 -0.1800
   22loPI    C3  339   9.312   4.013  11.041  0.0957  0.0937 -0.1440
   22loPI   PO4  340   9.615   4.034  10.420 -0.0662 -0.0692 -0.1612
   22loPI   GL1  341   9.568   4.354  10.109 -0.0412  0.3323 -0.1690
   22loPI   GL2  342   9.414   4.620   9.886 -0.1389 -0.0258  0.0263
   22loPI   C1A  343   9.581   4.160   9.709  0.2512  0.2603  0.3534
   22loPI   C2A  344   9.534   4.104   9.299  0.1275 -0.0685  0.1135
   22loPI   C3A  345   9.637   4.080   8.910  0.1866 -0.0605  0.2199
   22loPI   C4A  346   9.685   4.038   8.461 -0.0632 -0.0408 -0.3737
   22loPI   C5A  347   9.513   3.924   8.058  0.2073 -0.1072 -0.0312
   22loPI   C6A  348   9.499   4.124   7.764 -0.0183 -0.1145  0.1485
   22loPI   C1B  349   9.333   4.549   9.466 -0.0005  0.2999  0.1649
   22loPI   C2B  350   9.524   4.556   9.039  0.1188  0.2635 -0.1559
   22loPI   C3B  351   9.514   4.496   8.631  0.0581 -0.3435 -0.0948
   22loPI   C4B  352   9.472   4.409   8.185  0.0673 -0.1968  0.0735
   23loPI    C1  353   8.480  15.212  11.067  0.0589  0.0715 -0.0428
   23loPI    C2  354   8.779  15.142  10.810  0.2467  0.1992  0.1385
   23loPI    C3  355   8.850  15.147  11.204 -0.0422 -0.0105  0.1963
   23loPI   PO4  356   8.329  15.413  10.832  0.0162  0.0550 -0.0138
   23loPI   GL1  357   8.269  15.426  10.499  0.3541 -0.1008 -0.0139
   23loPI   GL2  358   7.991  15.600  10.224  0.0814  0.2067  0.3453
   23loPI   C1A  359   8.405  15.322  10.090  0.1259  0.0092 -0.1338
   23loPI   C2A  360   8.461  15.390   9.665  0.0587 -0.1943  0.0119
   23loPI   C3A  361   8.447  15.417   9.207  0.2072  0.3189  0.1966
   23loPI   C4A  362   8.515  15.430   8.828  0.0035 -0.6199  0.0314
   23loPI   C5A  363   8.598  15.444   8.370 -0.2300  0.1837  0.0660
   23loPI   C6A  364   8.668  15.060   8.001 -0.0784  0.0109  0.1143
   23loPI   C1B  365   7.953  15.545   9.742 -0.0736 -0.3547  0.4014
   23loPI   C2B  366   7.972  15.603   9.320 -0.0707  0.0540  0.0797
   23loPI   C3B  367   7.986  15.586   8.885 -0.1277  0.2251 -0.0803
   23loPI   C4B  368   8.153  15.678   8.515  0.1176 -0.1011 -0.2289
   24loPI    C1  369   3.125  14.111  11.074  0.0157 -0.1546  0.0444
   24loPI    C2  370   3.177  14.164  11.467 -0.0878 -0.1882  0.0629
   24loPI    C3  371   2.895  13.913  11.334 -0.1125 -0.1102 -0.0339
   24loPI   PO4  372   3.326  14.047  10.894  0.2856 -0.0749 -0.1350
   24loPI   GL1  373   3.487  14.223  10.551 -0.3569  0.1109  0.0699
   24loPI   GL2  374   3.717  14.038  10.327  0.4912  0.0426 -0.2971
   24loPI   C1A  375   3.235  14.180  10.121 -0.1758 -0.2680  0.1741
   24loPI   C2A  376   3.253  14.225   9.638  0.0916 -0.1071 -0.1820
   24loPI   C3A  377   3.223  14.231   9.177  0.0464 -0.1513  0.1479
   24loPI   C4A  378   3.311  14.190   8.701 -0.2286 -0.0537 -0.1185
   24loPI   C5A  379   3.401  14.032   8.307  0.3538 -0.0083  0.4293
   24loPI   C6A  380   3.646  14.029   7.925 -0.0126 -0.0313  0.0831
   24loPI   C1B  381   3.765  14.074   9.914 -0.0535  0.2938 -0.1054
   24loPI   C2B  382   3.748  14.067   9.542  0.2374 -0.0997 -0.0377
   24loPI   C3B  383   3.786  14.006   9.120 -0.3949  0.0880 -0.1537
   24loPI   C4B  384   3.735  13.954   8.732 -0.2037  0.0840  0.0339
   25loPI    C1  385   6.390   9.341  11.166  0.1652 -0.0623  0.0464
   25loPI    C2  386   5.993   9.300  11.195  0.1506 -0.1453 -0.2380
   25loPI    C3  387   6.212   9.364  11.523 -0.0677 -0.3653 -0.0449
   25loPI   PO4  388   6.381   9.558  10.881  0.2007 -0.2648  0.1420
   25loPI   GL1  389   6.534   9.568  10.386  0.1322 -0.0747 -0.0309
   25loPI   GL2  390   6.386   9.809  10.397 -0.0227 -0.0738  0.1169
   25loPI   C1A  391   6.544   9.338  10.012  0.2428 -0.0890 -0.3851
   25loPI   C2A  392   6.522   9.251   9.591 -0.3231 -0.2610 -0.1024
   25loPI   C3A  393   6.564   9.320   9.186  0.1158 -0.3702 -0.2723
   25loPI   C4A  394   6.567   9.352   8.854  0.0173  0.0928  0.3100
   25loPI   C5A  395   6.470   9.381   8.356 -0.1403 -0.2725 -0.3453
   25loPI   C6A  396   6.150   9.315   8.120 -0.1537  0.0580 -0.1440
   25loPI   C1B  397   6.406   9.760   9.851 -0.4414  0.3594 -0.0915
   25loPI   C2B  398   6.491   9.835   9.399  0.1933 -0.0881 -0.0570
   25loPI   C3B  399   6.451   9.864   8.984 -0.2769 -0.1657 -0.3892
   25loPI   C4B  400   6.379   9.831   8.517 -0.0122  0.1621 -0.0005
   26loPI    C1  401  12.952  16.745  10.686  0.1610  0.0457  0.1179
   26loPI    C2  402  13.112  16.400  10.809 -0.0555 -0.1290 -0.0820
   26loPI    C3  403  12.927  16.638  11.071  0.0383 -0.1947  0.0452
   26loPI   PO4  404  12.775  16.767  10.456 -0.0587  0.3329  0.3060
   26loPI   GL1  405  12.687  16.638  10.053 -0.0083 -0.0776  0.1426
   26loPI   GL2  406  12.819  16.875   9.984 -0.1504  0.1123  0.0190
   26loPI   C1A  407  12.351  16.466   9.686  0.2182 -0.0181  0.1189
   26loPI   C2A  408  12.405  16.450   9.214  0.2729  0.0975 -0.0199
   26loPI   C3A  409  12.337  16.405   8.796  0.0617  0.0249  0.3426
   26loPI   C4A  410  12.413  16.339   8.277  0.0378  0.1289 -0.5440
   26loPI   C5A  411  12.676  16.531   7.925  0.1809  0.2593 -0.0589
   26loPI   C6A  412  12.543  16.722   7.543  0.2824  0.4374 -0.2170
   26loPI   C1B  413  12.828  16.729   9.574  0.0467 -0.0387 -0.0575
   26loPI   C2B  414  12.729  16.798   9.243  0.0377 -0.2281  0.1874
   26loPI   C3B  415  12.807  16.663   8.766 -0.0983  0.2568 -0.0334
   26loPI   C4B  416  12.874  16.613   8.351 -0.1265 -0.0812  0.0795
   27loPI    C1  417   4.173   3.171  10.997  0.1396 -0.1241 -0.0636
   27loPI    C2  418   3.839   2.955  11.038 -0.2052  0.3550 -0.2537
   27loPI    C3  419   4.014   3.115  11.360 -0.0987  0.0228 -0.1427
   27loPI   PO4  420   4.287   3.050  10.891 -0.0777  0.3476  0.3673
   27loPI   GL1  421   4.074   2.888  10.574  0.2989 -0.3567 -0.0492
   27loPI   GL2  422   3.807   2.703  10.589  0.1236 -0.0658  0.1753
   27loPI   C1A  423   4.115   2.941  10.130  0.0250 -0.0352 -0.1658
   27loPI   C2A  424   4.224   2.941   9.823  0.0994 -0.3503 -0.0688
   27loPI   C3A  425   4.134   2.997   9.416 -0.1223 -0.0424  0.0331
   27loPI   C4A  426   4.155   2.960   9.020 -0.0548 -0.1418  0.2711
   27loPI   C5A  427   4.245   2.886   8.646  0.2017 -0.0721 -0.0839
   27loPI   C6A  428   4.390   2.574   8.264  0.3731  0.1330 -0.0282
   27loPI   C1B  429   3.764   2.600  10.197  0.0326 -0.0027 -0.0385
   27loPI   C2B  430   3.823   2.562   9.849 -0.0705 -0.1210 -0.0683
   27loPI   C3B  431   3.800   2.672   9.571 -0.1783  0.2255  0.0310
   27loPI   C4B  432   3.769   2.564   9.129  0.0375  0.0218  0.0134
   28loPI    C1  433  17.828  11.067  11.069 -0.2748  0.1925 -0.2723
   28loPI    C2  434  17.966  11.390  11.260  0.0644 -0.0902 -0.0254
   28loPI    C3  435  17.637  11.205  11.392 -0.0236  0.0425 -0.0560
   28loPI   PO4  436  17.910  11.138  10.808 -0.0883 -0.0642 -0.1416
   28loPI   GL1  437  17.928  11.067  10.414  0.1982  0.0906 -0.2514
   28loPI   GL2  438  17.656  11.048  10.391 -0.0393 -0.1337 -0.1098
   28loPI   C1A  439  18.019  11.120  10.037 -0.1178  0.0655 -0.1064
   28loPI   C2A  440  17.993  11.126   9.601 -0.0526 -0.2039  0.4071
   28loPI   C3A  441  18.011  11.146   9.123  0.1952  0.0430 -0.1165
   28loPI   C4A  442  18.031  11.066   8.708 -0.1295 -0.0442  0.2592
   28loPI   C5A  443  17.868  11.096   8.317  0.3363 -0.3288  0.2154
   28loPI   C6A  444  17.710  10.794   8.032  0.0005 -0.1914 -0.0961
   28loPI   C1B  445  17.495  11.281  10.079 -0.2036 -0.0533  0.0587
   28loPI   C2B  446  17.530  11.378   9.696  0.0725 -0.0787  0.0185
   28loPI   C3B  447  17.559  11.324   9.214  0.0432  0.0193  0.1982
   28loPI   C4B  448  17.518  11.174   8.739  0.0313  0.0644 -0.4544
   29loPI    C1  449   2.815   2.201  10.971  0.0825  0.1549 -0.2265
   29loPI    C2  450   3.021   2.429  11.228 -0.0961 -0.1324  0.1833
   29loPI    C3  451   2.621   2.446  11.222 -0.0968 -0.1901 -0.0211
   29loPI   PO4  452   2.978   2.149  10.669  0.0551  0.1785 -0.0363
   29loPI   GL1  453   2.929   2.128  10.251  0.0907 -0.0185 -0.0348
   29loPI   GL2  454   2.769   2.384  10.172 -0.0432 -0.0359 -0.0718
   29loPI   C1A  455   2.938   1.834   9.849 -0.2673  0.2057  0.0041
   29loPI   C2A  456   3.029   1.867   9.420  0.0191 -0.1850 -0.0660
   29loPI   C3A  457   2.964   1.881   9.006 -0.1626 -0.3052 -0.0371
   29loPI   C4A  458   3.091   1.975   8.552  0.0638 -0.4741  0.0034
   29loPI   C5A  459   2.951   1.874   8.113 -0.0468  0.0402  0.0384
   29loPI   C6A  460   3.002   2.033   7.711 -0.0439  0.0430 -0.0158
   29loPI   C1B  461   2.961   2.323   9.744  0.1632 -0.0973 -0.1433
   29loPI   C2B  462   2.953   2.491   9.316  0.1126 -0.4267 -0.1928
   29loPI   C3B  463   2.914   2.429   8.905  0.3912  0.4220 -0.1889
   29loPI   C4B  464   2.951   2.445   8.414  0.1259 -0.1130  0.1643
   30loPI    C1  465   6.028   9.849  11.150 -0.0148  0.1036 -0.1821
   30loPI    C2  466   6.172  10.106  11.420  0.0707  0.0037 -0.1320
   30loPI    C3  467   5.970   9.782  11.540  0.0733 -0.0192 -0.1895
   30loPI   PO4  468   5.994  10.020  10.895 -0.0711 -0.4439 -0.0869
   30loPI   GL1  469   5.853   9.943  10.550  0.0316  0.1432  0.1814
   30loPI   GL2  470   5.708  10.242  10.401 -0.0718  0.2709  0.2300
   30loPI   C1A  471   5.985   9.886  10.138  0.1117  0.1859 -0.0004
   30loPI   C2A  472   5.966   9.897   9.729  0.1865  0.0217  0.2564
   30loPI   C3A  473   5.937  10.006   9.310 -0.0912 -0.0426  0.0095
   30loPI   C4A  474   5.982  10.018   8.902 -0.0819  0.0773 -0.0837
   30loPI   C5A  475   5.919   9.976   8.511 -0.2588  0.1871 -0.1553
   30loPI   C6A  476   5.939   9.760   8.103  0.3415  0.0695 -0.2722
   30loPI   C1B  477   5.786  10.357   9.932 -0.1066 -0.1443  0.0777
   30loPI   C2B  478   5.756  10.456   9.553  0.1596  0.0479 -0.2035
   30loPI   C3B  479   5.734  10.442   9.135 -0.2376 -0.2749 -0.0209
   30loPI   C4B  480   5.835  10.518   8.706  0.1046  0.0405  0.0265
   31loPI    C1  481   5.467   3.896  10.732  0.0056 -0.3553 -0.1955
   31loPI    C2  482   5.404   3.721  11.087 -0.1326 -0.2264 -0.1553
   31loPI    C3  483   5.590   4.075  11.068 -0.0401 -0.2779 -0.2198
   31loPI   PO4  484   5.533   3.715  10.606 -0.1073  0.0113  0.2320
   31loPI   GL1  485   5.719   3.736  10.274  0.0919 -0.1671 -0.4493
   31loPI   GL2  486   6.012   3.798  10.322 -0.1139  0.2026  0.1008
   31loPI   C1A  487   5.768   3.822   9.787  0.0816 -0.1577 -0.0805
   31loPI   C2A  488   5.845   3.781   9.401 -0.0543  0.3248 -0.1244
   31loPI   C3A  489   5.845   3.843   9.067 -0.1202  0.0413 -0.2043
   31loPI   C4A  490   5.887   3.847   8.702  0.0687  0.0075 -0.2755
   31loPI   C5A  491   6.094   3.704   8.392 -0.0173 -0.4195  0.2609
   31loPI   C6A  492   6.455   3.840   8.305  0.1850 -0.3394 -0.0564
   31loPI   C1B  493   6.157   3.987  10.021 -0.0907 -0.5318  0.0262
   31loPI   C2B  494   6.059   4.171   9.620 -0.0241  0.0789 -0.1006
   31loPI   C3B  495   6.307   4.080   9.214 -0.2040 -0.0508 -0.1790
   31loPI   C4B  496   6.318   4.170   8.768 -0.4415 -0.3015 -0.0815
   32loPI    C1  497   5.292  15.309  11.374  0.2371  0.0738  0.1501
   32loPI    C2  498   5.130  14.963  11.255  0.2762  0.1065 -0.0004
   32loPI    C3  499   4.960  15.172  11.551 -0.0063  0.1817 -0.2115
   32loPI   PO4  500   5.366  15.441  11.058 -0.2728  0.3825 -0.0366
   32loPI   GL1  501   5.403  15.335  10.713  0.1826  0.1220 -0.0732
   32loPI   GL2  502   5.176  15.235  10.676 -0.1636 -0.0248  0.0718
   32loPI   C1A  503   5.667  15.165  10.406 -0.1575 -0.1089 -0.2223
   32loPI   C2A  504   5.725  15.273   9.925 -0.1126  0.2169  0.3384
   32loPI   C3A  505   5.740  15.271   9.511 -0.1670 -0.0424 -0.3006
   32loPI   C4A  506   5.795  15.355   9.228  0.1216 -0.2932 -0.0399
   32loPI   C5A  507   5.841  15.413   8.782 -0.3209 -0.0205  0.0746
   32loPI   C6A  508   5.583  15.149   8.481 -0.2061 -0.0042 -0.0657
   32loPI   C1B  509   5.254  15.373  10.208  0.1035 -0.0231  0.1479
   32loPI   C2B  510   5.229  15.464   9.752 -0.2124 -0.1667 -0.0837
   32loPI   C3B  511   5.254  15.464   9.412  0.6203 -0.1892  0.1550
   32loPI   C4B  512   5.367  15.446   9.039  0.1138  0.0490  0.0165
   33loPI    C1  513  17.538  16.137  11.057  0.1472  0.1503  0.2146
   33loPI    C2  514  17.309  15.810  11.024  0.1524  0.1788 -0.1416
   33loPI    C3  515  17.175  16.129  11.225  0.0631  0.0342  0.0308
   33loPI   PO4  516  17.564  16.269  10.847 -0.1481  0.1398 -0.0258
   33loPI   GL1  517  17.506  16.472  10.467  0.2740 -0.1336 -0.0452
   33loPI   GL2  518  17.242  16.545  10.304 -0.2886 -0.0131  0.0137
   33loPI   C1A  519  17.826  16.418  10.003  0.1825 -0.0408 -0.0218
   33loPI   C2A  520  17.835  16.311   9.594  0.1135  0.3754  0.3621
   33loPI   C3A  521  17.847  16.372   9.182 -0.1278  0.0152 -0.0326
   33loPI   C4A  522  17.745  16.445   8.738 -0.0393  0.1013  0.2402
   33loPI   C5A  523  17.715  16.359   8.334  0.1474  0.0483  0.0382
   33loPI   C6A  524  17.793  16.054   8.056 -0.0389  0.2695 -0.2613
   33loPI   C1B  525  17.282  16.547   9.929  0.3846  0.0574  0.0030
   33loPI   C2B  526  17.366  16.475   9.515  0.1488  0.2144  0.0735
   33loPI   C3B  527  17.399  16.630   9.116  0.0881 -0.2716 -0.2711
   33loPI   C4B  528  17.264  16.587   8.828  0.3360  0.1173  0.0210
   34loPI    C1  529  16.034  12.984  10.910  0.0099 -0.0267  0.0155
   34loPI    C2  530  16.228  13.079  11.246  0.0049 -0.0528  0.0257
   34loPI    C3  531  15.890  12.865  11.264  0.0457 -0.1198 -0.0009
   34loPI   PO4  532  16.143  12.817  10.795 -0.3204 -0.0295  0.3066
   34loPI   GL1  533  16.539  12.810  10.463  0.1834 -0.0123  0.0315
   34loPI   GL2  534  16.865  12.997  10.516  0.1296 -0.3441  0.2667
   34loPI   C1A  535  16.438  12.615  10.003  0.0930 -0.0299  0.4294
   34loPI   C2A  536  16.317  12.607   9.565  0.2655 -0.2166 -0.2716
   34loPI   C3A  537  16.270  12.629   9.132 -0.3805  0.3063  0.0323
   34loPI   C4A  538  16.457  12.582   8.780 -0.0015 -0.2648  0.1955
   34loPI   C5A  539  16.397  12.634   8.387  0.0841 -0.1509 -0.0060
   34loPI   C6A  540  16.027  12.823   8.100  0.0379  0.1095  0.0196
   34loPI   C1B  541  16.831  12.953  10.084 -0.0822 -0.2158 -0.0095
   34loPI   C2B  542  16.819  12.968   9.640  0.0399 -0.0981 -0.1660
   34loPI   C3B  543  16.691  12.909   9.209 -0.0754  0.2016  0.0323
   34loPI   C4B  544  16.741  12.962   8.839 -0.0671  0.1449 -0.2651
   35loPI    C1  545  11.119   6.554  10.426  0.1054  0.0989 -0.0481
   35loPI    C2  546  10.989   6.588  10.802  0.1699  0.0250 -0.0189
   35loPI    C3  547  11.123   6.910  10.607 -0.0831  0.1079 -0.0596
   35loPI   PO4  548  10.963   6.350  10.375 -0.0504 -0.0950  0.1312
   35loPI   GL1  549  11.002   6.167   9.987 -0.1556  0.4243 -0.0103
   35loPI   GL2  550  10.948   5.927   9.791  0.0276 -0.0474 -0.1438
   35loPI   C1A  551  10.877   6.427   9.595 -0.2981  0.1462 -0.0385
   35loPI   C2A  552  10.942   6.426   9.127  0.0149  0.2282 -0.1864
   35loPI   C3A  553  11.029   6.369   8.616 -0.0140  0.1440  0.0799
   35loPI   C4A  554  11.070   6.287   8.217 -0.0758  0.0808  0.0413
   35loPI   C5A  555  10.984   6.356   7.841  0.0222  0.0212  0.0168
   35loPI   C6A  556  10.952   6.572   7.400  0.1023 -0.0629  0.1588
   35loPI   C1B  557  10.942   5.858   9.353  0.1195 -0.0035  0.0083
   35loPI   C2B  558  11.018   5.872   8.901 -0.1043  0.1068 -0.0465
   35loPI   C3B  559  11.044   5.808   8.401 -0.0018 -0.1934  0.0921
   35loPI   C4B  560  11.239   5.791   7.921 -0.1982 -0.1419  0.1794
   36loPI    C1  561  16.929   3.624  10.627  0.0568  0.0763  0.0374
   36loPI    C2  562  17.244   3.399  10.726  0.0333  0.0512  0.0547
   36loPI    C3  563  16.931   3.424  10.973 -0.0095  0.0176  0.0042
   36loPI   PO4  564  16.877   3.570  10.397  0.1279 -0.0289  0.3605
   36loPI   GL1  565  16.602   3.659  10.058  0.0522  0.2414  0.1239
   36loPI   GL2  566  16.551   3.866  10.176  0.2982 -0.0136  0.0424
   36loPI   C1A  567  16.730   3.493   9.542 -0.2757 -0.0677 -0.1029
   36loPI   C2A  568  16.618   3.369   9.094  0.1156 -0.1466  0.5983
   36loPI   C3A  569  16.626   3.423   8.779 -0.1513  0.0727  0.0106
   36loPI   C4A  570  16.769   3.311   8.359  0.4098 -0.0015  0.3524
   36loPI   C5A  571  16.962   3.426   8.038  0.0107 -0.2002  0.3324
   36loPI   C6A  572  17.321   3.423   7.804 -0.1375 -0.0380 -0.3027
   36loPI   C1B  573  16.639   4.028   9.749 -0.1265 -0.2348  0.2185
   36loPI   C2B  574  16.523   3.965   9.352  0.0992  0.0649 -0.2942
   36loPI   C3B  575  16.580   3.880   8.936 -0.2238  0.2545  0.0424
   36loPI   C4B  576  16.606   3.795   8.450 -0.0235  0.3456 -0.0274
   37loPI    C1  577  14.444  16.176  10.605  0.0029  0.3128 -0.0090
   37loPI    C2  578  14.788  16.068  10.779  0.0070  0.2010 -0.0856
   37loPI    C3  579  14.485  16.204  11.002  0.0366  0.1252  0.0015
   37loPI   PO4  580  14.494  15.944  10.387  0.2468  0.0769 -0.0845
   37loPI   GL1  581  14.690  15.694  10.054 -0.0259 -0.5187  0.2671
   37loPI   GL2  582  14.678  15.969   9.948  0.3658 -0.2708  0.4376
   37loPI   C1A  583  14.835  15.421   9.789  0.0281  0.1977 -0.1394
   37loPI   C2A  584  14.942  15.454   9.334  0.1701  0.0176 -0.0447
   37loPI   C3A  585  14.836  15.423   8.937 -0.0800  0.1458  0.0023
   37loPI   C4A  586  14.933  15.337   8.477 -0.2354  0.1445 -0.1825
   37loPI   C5A  587  14.704  15.430   8.130  0.0076 -0.1641 -0.1598
   37loPI   C6A  588  14.480  15.530   7.822  0.1780 -0.1290  0.0143
   37loPI   C1B  589  14.729  15.939   9.499  0.2023  0.0316 -0.2369
   37loPI   C2B  590  14.795  15.930   9.062  0.0302 -0.0538  0.2645
   37loPI   C3B  591  14.762  15.859   8.595 -0.1049  0.1787  0.3045
   37loPI   C4B  592  14.881  15.940   8.110  0.0660  0.1275  0.1104
   38loPI    C1  593   8.069   0.442  11.044  0.0570  0.0132 -0.2979
   38loPI    C2  594   8.062   0.832  11.134  0.0343 -0.0923  0.1841
   38loPI    C3  595   8.234   0.572  11.384 -0.0667 -0.4105 -0.0698
   38loPI   PO4  596   8.150   0.365  10.771 -0.1715 -0.2517 -0.0177
   38loPI   GL1  597   8.260   0.474  10.388  0.0782  0.1107 -0.1354
   38loPI   GL2  598   8.360   0.191  10.174  0.2103 -0.3405  0.0788
   38loPI   C1A  599   8.325   0.706  10.001  0.0372 -0.0515  0.1529
   38loPI   C2A  600   8.347   0.753   9.537 -0.1237  0.2250  0.0632
   38loPI   C3A  601   8.294   0.731   9.088  0.4084  0.1254 -0.3335
   38loPI   C4A  602   8.380   0.681   8.619  0.0976 -0.0999 -0.1498
   38loPI   C5A  603   8.521   0.703   8.217  0.2267  0.0939 -0.0308
   38loPI   C6A  604   8.898   0.768   8.081 -0.2181 -0.2767 -0.0620
   38loPI   C1B  605   8.341   0.240   9.732  0.0003  0.1526  0.1171
   38loPI   C2B  606   8.351   0.212   9.299  0.0009  0.0552 -0.0285
   38loPI   C3B  607   8.456   0.068   8.982 -0.2210  0.3161  0.2379
   38loPI   C4B  608   8.434   0.169   8.509 -0.2980 -0.1873  0.2856
   39loPI    C1  609  12.152  13.056  10.529 -0.2759  0.0721 -0.0570
   39loPI    C2  610  12.002  12.699  10.631 -0.2709  0.0536 -0.1139
   39loPI    C3  611  12.325  12.841  10.819 -0.2373  0.0015 -0.1319
   39loPI   PO4  612  11.869  13.166  10.490 -0.4121  0.0304  0.3730
   39loPI   GL1  613  11.741  12.884  10.144  0.0456  0.0839 -0.3942
   39loPI   GL2  614  11.779  12.435  10.104 -0.2057  0.0384 -0.0987
   39loPI   C1A  615  11.688  12.780   9.773 -0.1038 -0.2449 -0.0251
   39loPI   C2A  616  11.736  12.925   9.349 -0.0067  0.1399  0.0707
   39loPI   C3A  617  11.745  12.825   9.001 -0.0046 -0.2412  0.1130
   39loPI   C4A  618  11.697  12.784   8.550 -0.2353 -0.2785  0.1536
   39loPI   C5A  619  11.720  12.793   8.136 -0.1699 -0.2997 -0.1117
   39loPI   C6A  620  11.946  12.672   7.782 -0.4416  0.1244 -0.0453
   39loPI   C1B  621  11.797  12.292   9.789 -0.0774 -0.0013 -0.2228
   39loPI   C2B  622  11.752  12.271   9.477  0.2049 -0.1894 -0.1206
   39loPI   C3B  623  11.742  12.279   9.157 -0.0536 -0.3317  0.0196
   39loPI   C4B  624  11.820  12.282   8.699 -0.0624  0.0084 -0.1084
   40loPI    C1  625  17.196   7.764  11.234  0.1795 -0.1243  0.1263
   40loPI    C2  626  17.498   7.981  11.084  0.3542 -0.3237  0.1849
   40loPI    C3  627  17.329   8.085  11.432  0.0726  0.0314 -0.0513
   40loPI   PO4  628  17.083   7.640  10.939  0.0084  0.5296  0.0090
   40loPI   GL1  629  17.159   7.559  10.454  0.2233  0.0510  0.0759
   40loPI   GL2  630  16.938   7.447  10.494 -0.0033 -0.2899 -0.1791
   40loPI   C1A  631  17.306   7.494  10.163 -0.1275 -0.2831  0.1492
   40loPI   C2A  632  17.317   7.492   9.773 -0.0107 -0.1881 -0.0300
   40loPI   C3A  633  17.320   7.637   9.293 -0.4062  0.2752  0.0262
   40loPI   C4A  634  17.369   7.633   8.774  0.1225 -0.1672 -0.1680
   40loPI   C5A  635  17.161   7.459   8.413 -0.0085 -0.1738 -0.0184
   40loPI   C6A  636  16.702   7.280   8.174 -0.0322 -0.4194  0.0828
   40loPI   C1B  637  16.905   7.191  10.051  0.1040  0.1517  0.0485
   40loPI   C2B  638  16.969   7.207   9.577 -0.2372  0.0878 -0.0130
   40loPI   C3B  639  16.901   7.309   9.079 -0.1246  0.0218  0.0015
   40loPI   C4B  640  16.809   7.079   8.640  0.0460  0.2450 -0.0232
   41loPI    C1  641   3.060  12.544  11.386 -0.1270 -0.5308  0.0232
   41loPI    C2  642   3.323  12.514  11.687 -0.0519  0.0595  0.0287
   41loPI    C3  643   2.946  12.623  11.761 -0.0816  0.0267 -0.0716
   41loPI   PO4  644   3.207  12.668  11.219 -0.2978  0.0602  0.1985
   41loPI   GL1  645   3.059  12.694  10.797 -0.0386  0.2696 -0.1656
   41loPI   GL2  646   3.118  13.029  10.801  0.0615 -0.0573  0.0295
   41loPI   C1A  647   3.136  12.777  10.329  0.3244 -0.0082  0.0085
   41loPI   C2A  648   3.070  12.792   9.886 -0.2480  0.1161  0.4238
   41loPI   C3A  649   3.103  12.891   9.489 -0.1318  0.3064 -0.1558
   41loPI   C4A  650   3.082  12.845   9.075 -0.0657 -0.0008  0.0701
   41loPI   C5A  651   3.047  12.633   8.693  0.0473 -0.1135  0.3756
   41loPI   C6A  652   3.022  12.975   8.272 -0.1487  0.1413  0.1409
   41loPI   C1B  653   3.002  13.290  10.400  0.0245 -0.0746  0.1095
   41loPI   C2B  654   2.936  13.259   9.967 -0.0945 -0.2446 -0.3018
   41loPI   C3B  655   2.965  13.401   9.513 -0.1237  0.3471 -0.1174
   41loPI   C4B  656   2.971  13.350   9.072  0.1180 -0.0796 -0.2673
   42loPI    C1  657  11.575  16.294  10.709 -0.0407 -0.0530  0.0036
   42loPI    C2  658  11.312  16.242  11.006 -0.0198 -0.1863 -0.0006
   42loPI    C3  659  11.697  16.312  11.089 -0.0436 -0.0600  0.0048
   42loPI   PO4  660  11.425  16.452  10.545  0.1123 -0.0825 -0.1529
   42loPI   GL1  661  11.308  16.498  10.270  0.0640 -0.0837  0.0251
   42loPI   GL2  662  11.074  16.275  10.171  0.2064  0.1472  0.0145
   42loPI   C1A  663  11.396  16.681   9.877  0.1972  0.1042  0.1466
   42loPI   C2A  664  11.431  16.903   9.681  0.1160 -0.1180  0.1644
   42loPI   C3A  665  11.421  16.757   9.264 -0.1389 -0.1999 -0.2605
   42loPI   C4A  666  11.426  16.778   8.759  0.1397 -0.2124  0.0576
   42loPI   C5A  667  11.477  16.629   8.299 -0.1230 -0.1415 -0.1654
   42loPI   C6A  668  11.389  16.644   7.900  0.2088 -0.1173  0.0773
   42loPI   C1B  669  10.984  16.421   9.680  0.2400  0.0556  0.1195
   42loPI   C2B  670  10.974  16.351   9.253 -0.2140 -0.1569 -0.1277
   42loPI   C3B  671  11.000  16.343   8.877  0.2034 -0.1240 -0.0448
   42loPI   C4B  672  11.049  16.275   8.367  0.2053  0.0503 -0.0461
   43loPI    C1  673  12.354   0.142  10.844  0.0431  0.0837 -0.2000
   43loPI    C2  674  12.390  -0.241  10.956 -0.1689  0.0734 -0.1624
   43loPI    C3  675  12.204   0.020  11.195  0.0376  0.2169 -0.1556
   43loPI   PO4  676  12.247   0.059  10.579  0.0059  0.4735 -0.0921
   43loPI   GL1  677  12.114   0.073  10.267 -0.1800  0.0774  0.5032
   43loPI   GL2  678  12.504   0.025  10.090  0.1014 -0.0618 -0.0097
   43loPI   C1A  679  12.123   0.216   9.808  0.0452 -0.2880  0.1650
   43loPI   C2A  680  12.070   0.320   9.358 -0.2324  0.1548  0.0618
   43loPI   C3A  681  12.080   0.302   8.848 -0.0751 -0.3399 -0.1619
   43loPI   C4A  682  12.114   0.137   8.519 -0.3503 -0.0928  0.0729
   43loPI   C5A  683  12.287   0.254   8.099  0.1876 -0.0490  0.0201
   43loPI   C6A  684  12.482   0.035   7.702 -0.2055 -0.1137 -0.1425
   43loPI   C1B  685  12.568   0.167   9.607  0.0564  0.1854 -0.3415
   43loPI   C2B  686  12.576   0.174   9.208 -0.2100  0.2546  0.1848
   43loPI   C3B  687  12.503   0.126   8.849 -0.1050  0.1259  0.2616
   43loPI   C4B  688  12.609   0.005   8.415 -0.2478 -0.1018 -0.0253
   44loPI    C1  689   6.506  17.209  11.337  0.0553  0.2887  0.1914
   44loPI    C2  690   6.367  16.983  11.637 -0.2691 -0.1046 -0.2398
   44loPI    C3  691   6.691  16.868  11.432 -0.0184  0.1886 -0.0197
   44loPI   PO4  692   6.362  17.230  11.205 -0.1645 -0.4699  0.1358
   44loPI   GL1  693   6.207  17.311  10.783 -0.0268 -0.1692 -0.2231
   44loPI   GL2  694   5.924  17.220  10.703  0.3291  0.3463  0.0974
   44loPI   C1A  695   6.132  17.463  10.300 -0.1770  0.0209 -0.1071
   44loPI   C2A  696   6.244  17.460   9.872  0.2107 -0.0274 -0.0572
   44loPI   C3A  697   6.187  17.552   9.525 -0.1073 -0.4295 -0.2579
   44loPI   C4A  698   6.279  17.572   9.139  0.1031 -0.1706  0.0673
   44loPI   C5A  699   6.188  17.730   8.826 -0.0659 -0.1187  0.2992
   44loPI   C6A  700   6.267  17.448   8.504  0.0565 -0.0174  0.0113
   44loPI   C1B  701   5.845  17.042  10.318 -0.1143 -0.1230 -0.0359
   44loPI   C2B  702   5.728  17.074   9.926 -0.2421  0.2295 -0.0384
   44loPI   C3B  703   5.848  17.118   9.497  0.1552  0.0996 -0.1428
   44loPI   C4B  704   5.828  17.340   9.190  0.1762  0.0872 -0.2539
   45loPI    C1  705   3.412   8.512  10.820  0.1410 -0.0046 -0.0957
   45loPI    C2  706   3.370   8.485  11.217 -0.1688  0.0145 -0.1243
   45loPI    C3  707   3.666   8.289  11.033 -0.0654 -0.0498  0.1074
   45loPI   PO4  708   3.182   8.539  10.749  0.1752  0.0280  0.2020
   45loPI   GL1  709   3.087   8.792  10.459 -0.0301  0.0918 -0.1288
   45loPI   GL2  710   3.284   8.932  10.354 -0.0210  0.3828 -0.0450
   45loPI   C1A  711   2.966   8.509  10.097 -0.1004 -0.0215  0.0362
   45loPI   C2A  712   2.999   8.606   9.646  0.0195  0.3202  0.3975
   45loPI   C3A  713   2.950   8.622   9.275  0.0690 -0.0644  0.1645
   45loPI   C4A  714   3.042   8.568   8.858  0.2496  0.2732 -0.4422
   45loPI   C5A  715   2.932   8.489   8.414  0.1035  0.1682 -0.0488
   45loPI   C6A  716   2.603   8.302   8.142 -0.0066  0.1725  0.0905
   45loPI   C1B  717   3.369   8.915   9.961  0.0917  0.2736 -0.2472
   45loPI   C2B  718   3.425   8.980   9.489 -0.4078 -0.3376 -0.2084
   45loPI   C3B  719   3.388   8.866   9.062  0.1891 -0.5358  0.2283
   45loPI   C4B  720   3.512   8.890   8.617 -0.0485  0.1128 -0.0307
   46loPI    C1  721   8.721  11.048  11.019 -0.0279  0.1136  0.0784
   46loPI    C2  722   8.340  10.940  10.965  0.0434 -0.0153 -0.1827
   46loPI    C3  723   8.472  11.032  11.331 -0.2789  0.1908 -0.1148
   46loPI   PO4  724   8.762  11.162  10.713 -0.1546  0.1900  0.2101
   46loPI   GL1  725   8.791  11.056  10.234  0.1517 -0.0911 -0.2733
   46loPI   GL2  726   8.496  11.212  10.298 -0.0373  0.0370  0.3205
   46loPI   C1A  727   8.869  11.026   9.766 -0.2502 -0.2505 -0.1962
   46loPI   C2A  728   8.984  11.040   9.342  0.1833 -0.1578 -0.1654
   46loPI   C3A  729   8.944  11.012   8.901  0.2230  0.0518  0.0170
   46loPI   C4A  730   8.968  10.961   8.442  0.1269 -0.0233  0.2189
   46loPI   C5A  731   9.112  11.019   7.908  0.1471 -0.1589 -0.0914
   46loPI   C6A  732   9.102  10.949   7.421  0.0256  0.5500  0.1400
   46loPI   C1B  733   8.401  11.104   9.947 -0.2412  0.0659 -0.0967
   46loPI   C2B  734   8.302  11.107   9.484 -0.1831 -0.3908  0.2297
   46loPI   C3B  735   8.361  11.126   9.020 -0.1376 -0.0470 -0.1023
   46loPI   C4B  736   8.446  11.108   8.602  0.0774  0.1649  0.1734
   47loPI    C1  737  12.555   6.983  10.800 -0.0258 -0.0772  0.0834
   47loPI    C2  738  12.220   7.137  10.954 -0.1148 -0.2474  0.0624
   47loPI    C3  739  12.565   7.169  11.153 -0.0816  0.1980 -0.0575
   47loPI   PO4  740  12.457   7.097  10.531 -0.2557 -0.2465  0.0683
   47loPI   GL1  741  12.501   6.907  10.164  0.0152 -0.0811 -0.1875
   47loPI   GL2  742  12.705   7.095   9.930  0.2308  0.1592  0.0647
   47loPI   C1A  743  12.284   6.830   9.796 -0.1442  0.0174 -0.0906
   47loPI   C2A  744  12.244   6.762   9.400 -0.1927 -0.1479 -0.0270
   47loPI   C3A  745  12.267   6.821   9.011 -0.1799  0.1969 -0.2272
   47loPI   C4A  746  12.287   6.838   8.618 -0.3934  0.1167 -0.0076
   47loPI   C5A  747  12.258   6.784   8.234 -0.1182  0.0369  0.1223
   47loPI   C6A  748  11.937   6.607   7.934 -0.0692 -0.0657 -0.2561
   47loPI   C1B  749  12.682   7.226   9.630 -0.1655  0.0929  0.0309
   47loPI   C2B  750  12.732   7.235   9.086  0.1381  0.3425  0.1756
   47loPI   C3B  751  12.715   7.137   8.627  0.2747 -0.1136 -0.2463
   47loPI   C4B  752  12.694   7.008   8.135 -0.0174 -0.2741 -0.1194
   48loPI    C1  753  17.643   0.300  10.545 -0.1246  0.0443 -0.0688
   48loPI    C2  754  17.256   0.260  10.640 -0.0852 -0.0509  0.0539
   48loPI    C3  755  17.536   0.071  10.855  0.0326  0.0508 -0.0090
   48loPI   PO4  756  17.652   0.257  10.332 -0.1592  0.3066  0.1928
   48loPI   GL1  757  17.839   0.296   9.961  0.2028 -0.0559  0.0395
   48loPI   GL2  758  17.989   0.606   9.840 -0.0964 -0.0885  0.0057
   48loPI   C1A  759  17.826   0.089   9.615 -0.1479  0.0574 -0.3279
   48loPI   C2A  760  17.852   0.145   9.220  0.1097 -0.3060  0.3430
   48loPI   C3A  761  17.798   0.107   8.776  0.1047 -0.1815  0.1419
   48loPI   C4A  762  17.707   0.111   8.428 -0.0967 -0.0849 -0.0951
   48loPI   C5A  763  17.639   0.254   7.982 -0.1203 -0.3877  0.0253
   48loPI   C6A  764  17.332   0.295   7.575  0.2673 -0.0864 -0.0934
   48loPI   C1B  765  18.218   0.439   9.548  0.1414  0.1709  0.0668
   48loPI   C2B  766  18.295   0.471   9.109 -0.2434 -0.0288  0.1142
   48loPI   C3B  767  18.126   0.505   8.657  0.0659 -0.0242  0.0675
   48loPI   C4B  768  18.110   0.333   8.272 -0.0955 -0.0129 -0.1591
   49loPI    C1  769  12.115   7.974  10.848  0.1167 -0.0675 -0.1046
   49loPI    C2  770  12.130   8.354  10.971  0.1746 -0.1183  0.0479
   49loPI    C3  771  11.908   8.088  11.171  0.1697 -0.1745 -0.0318
   49loPI   PO4  772  12.338   7.977  10.715 -0.2077 -0.1573 -0.0294
   49loPI   GL1  773  12.489   7.966  10.279 -0.1187  0.0273  0.3533
   49loPI   GL2  774  12.170   7.885  10.151  0.0257  0.1632 -0.1848
   49loPI   C1A  775  12.461   8.106   9.836  0.0232  0.0733 -0.0879
   49loPI   C2A  776  12.525   8.180   9.378  0.3977  0.0385  0.0117
   49loPI   C3A  777  12.520   8.167   8.879  0.1200 -0.0552  0.0748
   49loPI   C4A  778  12.547   8.125   8.435  0.5150 -0.1090 -0.1529
   49loPI   C5A  779  12.566   8.343   8.027  0.1248  0.0695 -0.1846
   49loPI   C6A  780  12.285   8.726   7.944  0.3806  0.0521  0.3400
   49loPI   C1B  781  12.037   7.840   9.761  0.0477  0.1232 -0.0626
   49loPI   C2B  782  12.140   7.843   9.270  0.1012 -0.1009  0.3532
   49loPI   C3B  783  12.075   7.856   8.818 -0.2125 -0.0895  0.1211
   49loPI   C4B  784  12.080   7.898   8.401 -0.2168  0.4506  0.0984
   50loPI    C1  785   1.945  14.416  11.090 -0.2119  0.1800  0.0327
   50loPI    C2  786   1.952  14.197  11.425  0.1319  0.2824  0.0967
   50loPI    C3  787   1.694  14.501  11.389 -0.2917 -0.0748  0.0404
   50loPI   PO4  788   2.066  14.261  10.957  0.2624  0.1563 -0.0537
   50loPI   GL1  789   2.157  14.118  10.613 -0.0927  0.0183 -0.3880
   50loPI   GL2  790   2.352  14.442  10.539 -0.2997  0.0395 -0.0893
   50loPI   C1A  791   2.309  14.107  10.178  0.1061 -0.0274  0.2360
   50loPI   C2A  792   2.358  14.178   9.750 -0.0341  0.3773  0.0050
   50loPI   C3A  793   2.343  14.016   9.310  0.1960 -0.1396 -0.0182
   50loPI   C4A  794   2.319  13.914   8.951  0.1089 -0.4657 -0.1547
   50loPI   C5A  795   2.477  13.810   8.539  0.0545  0.4135  0.4664
   50loPI   C6A  796   2.463  13.824   8.062  0.2416 -0.1739  0.0433
   50loPI   C1B  797   2.301  14.591  10.146 -0.1994  0.0057 -0.1618
   50loPI   C2B  798   2.414  14.688   9.759 -0.1308  0.3824  0.2724
   50loPI   C3B  799   2.311  14.535   9.371  0.2858  0.1536  0.2598
   50loPI   C4B  800   2.310  14.494   8.849 -0.0338 -0.2892 -0.0157
   51loPI    C1  801   4.271  10.115  11.133  0.2869  0.1986  0.1577
   51loPI    C2  802   4.187  10.107  11.524  0.0359  0.1728  0.1048
   51loPI    C3  803   4.415   9.821  11.362 -0.5005 -0.2655  0.0930
   51loPI   PO4  804   4.107  10.157  10.965 -0.1524  0.0707 -0.1000
   51loPI   GL1  805   3.768  10.048  10.803 -0.1309 -0.2253  0.0348
   51loPI   GL2  806   3.788   9.754  10.699  0.2751  0.0133  0.3198
   51loPI   C1A  807   3.692  10.255  10.341  0.0957 -0.0238 -0.0599
   51loPI   C2A  808   3.548  10.281   9.990 -0.3025 -0.2135  0.1473
   51loPI   C3A  809   3.593  10.315   9.456  0.1151 -0.2320 -0.1853
   51loPI   C4A  810   3.503  10.329   9.052 -0.1062 -0.2860  0.0219
   51loPI   C5A  811   3.561  10.383   8.640  0.1392 -0.1819 -0.1151
   51loPI   C6A  812   3.515  10.483   8.138 -0.1094 -0.0393 -0.0542
   51loPI   C1B  813   3.644   9.720  10.297  0.1117 -0.0249  0.3305
   51loPI   C2B  814   3.716   9.825   9.908  0.0196 -0.1865  0.4783
   51loPI   C3B  815   3.648   9.844   9.505 -0.0102  0.1086  0.0280
   51loPI   C4B  816   3.682   9.766   9.107 -0.1586 -0.3435  0.2699
   52loPI    C1  817  12.215  15.027  10.580  0.0691 -0.0688 -0.0573
   52loPI    C2  818  12.390  14.672  10.524 -0.1364 -0.1579 -0.1462
   52loPI    C3  819  12.449  14.872  10.866 -0.0428 -0.2903 -0.0836
   52loPI   PO4  820  12.253  15.115  10.310 -0.2131  0.0581  0.0048
   52loPI   GL1  821  12.308  15.073   9.932  0.2299  0.1956  0.0677
   52loPI   GL2  822  12.538  15.091   9.880  0.0817 -0.0931 -0.0729
   52loPI   C1A  823  12.089  15.026   9.509 -0.2493  0.0589 -0.1233
   52loPI   C2A  824  12.221  15.019   9.099  0.0277 -0.2620  0.0397
   52loPI   C3A  825  12.171  14.999   8.620  0.1166  0.2018  0.0533
   52loPI   C4A  826  12.104  15.032   8.183  0.1699 -0.2948 -0.0753
   52loPI   C5A  827  11.686  14.913   8.010  0.4645  0.1472 -0.0140
   52loPI   C6A  828  11.293  14.733   8.072 -0.2628 -0.0832 -0.2502
   52loPI   C1B  829  12.607  14.942   9.455  0.2706 -0.0776  0.0033
   52loPI   C2B  830  12.706  14.789   9.053 -0.1317 -0.0046 -0.1080
   52loPI   C3B  831  12.655  14.820   8.616 -0.0019 -0.0102  0.0465
   52loPI   C4B  832  12.539  14.706   8.127  0.2119  0.0972  0.1962
   53loPI    C1  833  11.596   3.538  10.700  0.3983  0.0230  0.1070
   53loPI    C2  834  11.322   3.739  10.911  0.2452 -0.1311  0.0576
   53loPI    C3  835  11.670   3.638  11.081  0.2587  0.0356  0.1312
   53loPI   PO4  836  11.560   3.596  10.453 -0.5886  0.2386 -0.0715
   53loPI   GL1  837  11.827   3.457  10.131 -0.0850 -0.2127 -0.0523
   53loPI   GL2  838  12.034   3.332   9.940  0.0068 -0.0706  0.0278
   53loPI   C1A  839  11.580   3.383   9.699 -0.0514 -0.0286  0.0118
   53loPI   C2A  840  11.506   3.313   9.330  0.3879  0.1621 -0.1696
   53loPI   C3A  841  11.474   3.238   8.856 -0.1924 -0.1390  0.2033
   53loPI   C4A  842  11.572   3.228   8.482  0.2594 -0.1932 -0.0299
   53loPI   C5A  843  11.671   3.140   8.010 -0.0326 -0.0173  0.2355
   53loPI   C6A  844  11.640   2.700   7.819  0.0918  0.0690  0.5304
   53loPI   C1B  845  12.017   3.186   9.577  0.2393  0.2308  0.1540
   53loPI   C2B  846  12.018   3.193   9.151 -0.0765 -0.1156 -0.0199
   53loPI   C3B  847  11.974   3.065   8.681  0.0975 -0.1334 -0.1860
   53loPI   C4B  848  12.160   3.013   8.340 -0.2053  0.2691 -0.0168
   54loPI    C1  849   7.927  17.864  10.887 -0.0444 -0.0345 -0.1825
   54loPI    C2  850   8.209  17.868  11.170 -0.1345 -0.1096 -0.0912
   54loPI    C3  851   7.878  17.648  11.220 -0.2474  0.0431 -0.1606
   54loPI   PO4  852   7.928  18.112  10.730 -0.5697  0.0599  0.1265
   54loPI   GL1  853   7.858  18.376  10.441  0.1390  0.0120  0.0090
   54loPI   GL2  854   7.615  18.541  10.528  0.1785 -0.0755  0.2005
   54loPI   C1A  855   7.868  18.473   9.978 -0.2604  0.0787  0.1488
   54loPI   C2A  856   7.873  18.483   9.479  0.1387  0.4409 -0.0367
   54loPI   C3A  857   7.895  18.401   9.101  0.0920  0.2125 -0.0324
   54loPI   C4A  858   8.015  18.544   8.721  0.1355 -0.2010  0.1969
   54loPI   C5A  859   7.988  18.836   8.301  0.1234 -0.3977  0.2317
   54loPI   C6A  860   7.852  19.276   8.271 -0.5142  0.1919 -0.1950
   54loPI   C1B  861   7.306  18.593  10.242 -0.1270  0.1655 -0.4104
   54loPI   C2B  862   7.443  18.627   9.741  0.0503 -0.0294  0.0116
   54loPI   C3B  863   7.434  18.644   9.263 -0.0131 -0.2061 -0.1057
   54loPI   C4B  864   7.469  18.614   8.907  0.1018 -0.1850  0.1223
   55loPI    C1  865  17.258  10.731  10.702 -0.0963  0.1593 -0.0237
   55loPI    C2  866  17.421  10.375  10.618 -0.0889  0.2288 -0.3123
   55loPI    C3  867  17.654  10.680  10.733 -0.1211  0.0774  0.1747
   55loPI   PO4  868  16.992  10.660  10.511 -0.0706  0.1114 -0.3274
   55loPI   GL1  869  17.218  10.403  10.170  0.0822  0.0640  0.0125
   55loPI   GL2  870  17.458  10.645  10.204  0.1727 -0.1906  0.0939
   55loPI   C1A  871  17.290  10.506   9.694  0.2850  0.1086 -0.0953
   55loPI   C2A  872  17.212  10.453   9.207 -0.1247 -0.0573 -0.1373
   55loPI   C3A  873  17.187  10.394   8.757 -0.0171 -0.0328  0.1251
   55loPI   C4A  874  17.234  10.386   8.376 -0.1266  0.2245  0.1420
   55loPI   C5A  875  17.429  10.371   7.940  0.0790  0.3446  0.2360
   55loPI   C6A  876  17.538  10.562   7.647 -0.3198 -0.1391  0.1208
   55loPI   C1B  877  17.581  10.850   9.837 -0.3131 -0.2265 -0.0497
   55loPI   C2B  878  17.612  10.779   9.368  0.2485 -0.2150 -0.0731
   55loPI   C3B  879  17.608  10.790   9.016  0.2736  0.5451 -0.1151
   55loPI   C4B  880  17.562  10.711   8.557 -0.0445  0.0699  0.1029
   56loPI    C1  881   1.873   0.039  10.965  0.1386 -0.1350 -0.2471
   56loPI    C2  882   1.890  -0.253  11.238 -0.0036 -0.1469 -0.2502
   56loPI    C3  883   1.570  -0.012  11.222  0.2386  0.1973 -0.0562
   56loPI   PO4  884   2.046   0.002  10.736 -0.3761  0.0855  0.0314
   56loPI   GL1  885   2.218   0.122  10.464 -0.2931  0.0056 -0.3754
   56loPI   GL2  886   2.136   0.386  10.330  0.0368  0.0721  0.0445
   56loPI   C1A  887   2.340   0.049  10.032  0.1245 -0.0004 -0.1248
   56loPI   C2A  888   2.430   0.124   9.617  0.0040 -0.0810 -0.1795
   56loPI   C3A  889   2.428   0.115   9.181 -0.0393 -0.0176 -0.0492
   56loPI   C4A  890   2.359   0.115   8.707  0.0900 -0.3251  0.0523
   56loPI   C5A  891   2.392  -0.243   8.355 -0.0630  0.0432 -0.0037
   56loPI   C6A  892   2.347  -0.301   7.962 -0.1045 -0.2093  0.1854
   56loPI   C1B  893   1.945   0.268   9.933 -0.1924 -0.0598  0.0542
   56loPI   C2B  894   1.981   0.264   9.445 -0.0137 -0.0884 -0.0015
   56loPI   C3B  895   1.941   0.316   9.052  0.0425  0.1515 -0.0150
   56loPI   C4B  896   1.896   0.376   8.701 -0.0842  0.0832 -0.1616
   57loPI    C1  897   2.813   6.318  10.720  0.0674 -0.2586 -0.2525
   57loPI    C2  898   2.649   6.396  11.076 -0.0555  0.0524 -0.3728
   57loPI    C3  899   2.689   6.018  10.952 -0.1233 -0.0524 -0.0826
   57loPI   PO4  900   2.748   6.474  10.548  0.0624 -0.0503 -0.1570
   57loPI   GL1  901   3.028   6.735  10.201  0.3009 -0.1232 -0.1114
   57loPI   GL2  902   2.720   6.715  10.135 -0.1067 -0.0122  0.1533
   57loPI   C1A  903   2.970   6.696   9.727  0.2648  0.1364 -0.1572
   57loPI   C2A  904   3.063   6.738   9.219 -0.4596  0.1504  0.5668
   57loPI   C3A  905   3.020   6.796   8.789 -0.1258  0.0974 -0.2221
   57loPI   C4A  906   3.025   6.755   8.465 -0.0930  0.0557  0.2107
   57loPI   C5A  907   3.071   6.690   8.073 -0.0524 -0.1088 -0.2622
   57loPI   C6A  908   3.244   6.458   7.674 -0.2613  0.0132  0.1158
   57loPI   C1B  909   2.415   6.882   9.893 -0.0607  0.3308  0.1729
   57loPI   C2B  910   2.541   6.936   9.511  0.3596  0.1347 -0.2601
   57loPI   C3B  911   2.534   6.923   9.058 -0.0525 -0.1516  0.2189
   57loPI   C4B  912   2.484   6.981   8.597  0.0929  0.4643  0.0539
   58loPI    C1  913   9.877   7.183  10.423 -0.0527  0.0652  0.0572
   58loPI    C2  914   9.982   7.333  10.779  0.2185 -0.3971  0.1815
   58loPI    C3  915   9.710   7.040  10.758 -0.2057 -0.0006 -0.0462
   58loPI   PO4  916  10.028   7.068  10.290 -0.0664 -0.1063  0.1338
   58loPI   GL1  917   9.883   6.961   9.798 -0.0809  0.0040  0.1212
   58loPI   GL2  918   9.809   6.663   9.673  0.4166  0.1123 -0.0370
   58loPI   C1A  919  10.182   7.084   9.459 -0.0705  0.0988  0.0301
   58loPI   C2A  920  10.468   7.104   9.079  0.2345 -0.0343  0.2687
   58loPI   C3A  921  10.410   6.998   8.634  0.0359 -0.0719 -0.0522
   58loPI   C4A  922  10.394   7.061   8.212 -0.1609 -0.1058 -0.0395
   58loPI   C5A  923  10.448   7.112   7.883  0.1587 -0.0623  0.0947
   58loPI   C6A  924  10.184   7.194   7.557 -0.1133 -0.0214 -0.5486
   58loPI   C1B  925   9.866   6.748   9.273  0.0560 -0.0454 -0.0967
   58loPI   C2B  926  10.052   6.739   8.895 -0.0623  0.1808  0.0039
   58loPI   C3B  927  10.092   6.736   8.330  0.1431  0.4755 -0.0360
   58loPI   C4B  928  10.059   6.817   7.944  0.0560 -0.0184  0.2948
   59loPI    C1  929  15.560   8.943  10.792 -0.2970 -0.1364 -0.3286
   59loPI    C2  930  15.390   9.211  11.036  0.2544  0.1333 -0.2249
   59loPI    C3  931  15.463   8.840  11.166  0.0524  0.1142 -0.1630
   59loPI   PO4  932  15.673   9.033  10.662  0.0872  0.0268  0.0386
   59loPI   GL1  933  15.707   9.124  10.285  0.0089  0.4240  0.0491
   59loPI   GL2  934  15.988   9.096  10.163  0.1313 -0.1700  0.1056
   59loPI   C1A  935  15.672   9.172   9.758  0.0377 -0.0250 -0.1989
   59loPI   C2A  936  15.528   8.953   9.383  0.1120 -0.1637  0.0524
   59loPI   C3A  937  15.553   8.963   8.963 -0.0320 -0.2130 -0.1819
   59loPI   C4A  938  15.694   8.983   8.565  0.2458 -0.0476  0.0748
   59loPI   C5A  939  15.744   9.255   8.239 -0.0656  0.0289  0.3266
   59loPI   C6A  940  16.119   9.586   8.226  0.3149 -0.1370  0.1259
   59loPI   C1B  941  16.124   9.447   9.916 -0.2319  0.1698  0.1008
   59loPI   C2B  942  16.054   9.380   9.553 -0.0089 -0.0820  0.0585
   59loPI   C3B  943  16.058   9.364   9.137  0.0351  0.0583  0.2001
   59loPI   C4B  944  16.020   9.428   8.725 -0.1215  0.1490 -0.0915
   60loPI    C1  945   0.331  11.887  11.181 -0.0111 -0.0321 -0.1167
   60loPI    C2  946   0.156  12.014  11.517  0.1320 -0.0852 -0.0211
   60loPI    C3  947   0.202  11.622  11.451  0.2864 -0.0698 -0.0080
   60loPI   PO4  948   0.212  11.978  10.957  0.0283  0.1107 -0.2143
   60loPI   GL1  949  -0.130  12.019  10.628 -0.1084 -0.0203 -0.0809
   60loPI   GL2  950   0.094  11.893  10.450  0.3745  0.0101  0.4216
   60loPI   C1A  951  -0.378  12.125  10.239 -0.2202  0.0348  0.1288
   60loPI   C2A  952  -0.354  12.191   9.813 -0.1212 -0.0875 -0.1540
   60loPI   C3A  953  -0.371  12.190   9.412 -0.1998 -0.1126 -0.0617
   60loPI   C4A  954  -0.419  12.164   8.981  0.3584 -0.1098  0.2233
   60loPI   C5A  955  -0.407  12.059   8.608  0.0161  0.0315 -0.1387
   60loPI   C6A  956  -0.162  11.982   8.218  0.0159 -0.0547 -0.0830
   60loPI   C1B  957   0.122  11.955  10.009  0.2771  0.0399  0.2995
   60loPI   C2B  958   0.133  11.983   9.598 -0.4009 -0.0165  0.3341
   60loPI   C3B  959   0.089  11.975   9.251  0.1114 -0.0929 -0.0644
   60loPI   C4B  960   0.166  11.968   8.841 -0.2189 -0.2433 -0.2514
   61loPI    C1  961   3.782   4.734  10.949 -0.1590 -0.2706  0.1514
   61loPI    C2  962   3.844   4.615  11.326  0.2526  0.1574  0.2290
   61loPI    C3  963   3.766   4.999  11.248  0.4124  0.1188 -0.1430
   61loPI   PO4  964   3.819   4.668  10.834 -0.0323 -0.0226  0.2321
   61loPI   GL1  965   3.918   4.739  10.362  0.0920 -0.3444 -0.0154
   61loPI   GL2  966   4.253   4.732  10.235  0.0748  0.0260 -0.1122
   61loPI   C1A  967   3.740   5.025   9.947  0.1398 -0.2485 -0.2384
   61loPI   C2A  968   3.769   5.110   9.462 -0.0632  0.4695 -0.3443
   61loPI   C3A  969   3.787   5.116   9.071 -0.3465 -0.0856 -0.1974
   61loPI   C4A  970   3.807   4.996   8.692  0.1242  0.1316 -0.1239
   61loPI   C5A  971   3.713   5.003   8.247 -0.1554  0.4115  0.0281
   61loPI   C6A  972   4.019   5.178   7.971 -0.0957 -0.0392  0.1927
   61loPI   C1B  973   4.197   4.904   9.698 -0.0031  0.0976  0.0785
   61loPI   C2B  974   4.243   4.902   9.226  0.0537  0.3939  0.0899
   61loPI   C3B  975   4.275   4.932   8.770 -0.0226  0.2097 -0.0617
   61loPI   C4B  976   4.296   4.877   8.305 -0.2749  0.0784  0.1197
   62loPI    C1  977   9.791  10.110  10.618  0.1092 -0.0945 -0.1321
   62loPI    C2  978   9.980  10.352  10.875 -0.0723  0.0952 -0.1747
   62loPI    C3  979  10.054   9.959  10.879 -0.0171  0.1066  0.1162
   62loPI   PO4  980   9.761  10.246  10.382  0.0336 -0.0354  0.0293
   62loPI   GL1  981   9.699  10.065  10.043 -0.1997 -0.1086  0.1848
   62loPI   GL2  982   9.947  10.136   9.922  0.1142  0.0396  0.2831
   62loPI   C1A  983   9.450  10.296   9.649 -0.0661  0.3278  0.2525
   62loPI   C2A  984   9.496  10.385   9.241  0.1610 -0.1834  0.0723
   62loPI   C3A  985   9.531  10.313   8.789  0.4349 -0.0339 -0.1314
   62loPI   C4A  986   9.536  10.248   8.405  0.0875  0.2298 -0.2696
   62loPI   C5A  987   9.509  10.221   7.971 -0.0934 -0.2188 -0.1136
   62loPI   C6A  988   9.314  10.338   7.528 -0.2503  0.1160 -0.2320
   62loPI   C1B  989   9.908  10.081   9.465  0.2578 -0.1096  0.0234
   62loPI   C2B  990   9.888  10.124   9.015 -0.0312 -0.0936 -0.0323
   62loPI   C3B  991  10.000  10.084   8.647  0.0331 -0.1484 -0.2829
   62loPI   C4B  992   9.936  10.144   8.194  0.1020 -0.2110  0.0919
   63loPI    C1  993  12.861   0.277  11.027 -0.0659 -0.0124  0.1565
   63loPI    C2  994  12.977   0.644  11.135 -0.0991 -0.0041  0.1639
   63loPI    C3  995  12.593   0.537  11.170 -0.0839 -0.0498  0.1903
   63loPI   PO4  996  13.063   0.298  10.763 -0.2150 -0.2754 -0.1301
   63loPI   GL1  997  13.034   0.237  10.252 -0.0543 -0.1368  0.0219
   63loPI   GL2  998  12.893   0.483  10.265 -0.2731  0.1380 -0.3094
   63loPI   C1A  999  13.011   0.041   9.881 -0.2799  0.2602 -0.1671
   63loPI   C2A 1000  13.030  -0.085   9.475 -0.1567  0.2560 -0.0074
   63loPI   C3A 1001  13.080  -0.105   9.051 -0.2617  0.3882 -0.1202
   63loPI   C4A 1002  12.996  -0.266   8.659 -0.3026 -0.0607  0.2416
   63loPI   C5A 1003  13.059  -0.219   8.212 -0.1535  0.0228 -0.1060
   63loPI   C6A 1004  13.293  -0.240   7.872  0.2039  0.1657 -0.3287
   63loPI   C1B 1005  12.950   0.567   9.792  0.3108  0.2652 -0.4091
   63loPI   C2B 1006  12.917   0.469   9.347  0.0018 -0.2401 -0.1061
   63loPI   C3B 1007  13.054   0.406   8.930 -0.1932  0.1262 -0.0601
   63loPI   C4B 1008  13.036   0.457   8.504 -0.0169 -0.1072 -0.3131
   64loPI    C1 1009   1.862   7.350  11.194  0.0475  0.1999  0.0454
   64loPI    C2 1010   2.253   7.325  11.274  0.0266 -0.0704  0.0740
   64loPI    C3 1011   1.990   7.122  11.497 -0.0982 -0.1907 -0.1788
   64loPI   PO4 1012   1.804   7.567  11.110 -0.0851  0.1308 -0.0701
   64loPI   GL1 1013   1.957   7.686  10.678 -0.3255  0.0558  0.0147
   64loPI   GL2 1014   2.099   7.966  10.605  0.2098  0.2401 -0.0262
   64loPI   C1A 1015   1.830   7.534  10.255  0.2526 -0.0388 -0.1899
   64loPI   C2A 1016   1.866   7.521   9.844  0.0811 -0.0447 -0.2587
   64loPI   C3A 1017   1.787   7.589   9.415 -0.2616  0.0227 -0.2203
   64loPI   C4A 1018   1.877   7.588   8.962  0.2753 -0.2184 -0.1891
   64loPI   C5A 1019   1.821   7.731   8.546 -0.0529 -0.3219  0.0796
   64loPI   C6A 1020   1.453   7.890   8.335  0.1466 -0.1495 -0.0292
   64loPI   C1B 1021   2.312   7.859  10.233  0.0025 -0.0302  0.0433
   64loPI   C2B 1022   2.327   7.811   9.773 -0.3086  0.0606 -0.2416
   64loPI   C3B 1023   2.232   7.846   9.339  0.1287 -0.3161  0.2727
   64loPI   C4B 1024   2.197   7.967   8.855 -0.0943 -0.1045 -0.3382
   65loPI    C1 1025  18.076   2.122  10.806  0.0419  0.1593 -0.2181
   65loPI    C2 1026  18.423   2.267  10.942  0.0542 -0.0905  0.0252
   65loPI    C3 1027  18.267   1.936  11.104 -0.3062  0.0272 -0.0712
   65loPI   PO4 1028  18.060   2.204  10.493  0.1703 -0.1924 -0.0007
   65loPI   GL1 1029  18.136   2.267  10.116  0.0221  0.0247  0.3039
   65loPI   GL2 1030  17.882   2.074  10.065 -0.4664 -0.0595  0.0782
   65loPI   C1A 1031  18.107   2.392   9.652 -0.0202 -0.3734  0.0709
   65loPI   C2A 1032  18.135   2.457   9.140 -0.0628  0.1333 -0.0381
   65loPI   C3A 1033  18.148   2.791   8.938 -0.1935  0.1384 -0.2119
   65loPI   C4A 1034  18.278   2.954   8.521  0.0309  0.4243 -0.3376
   65loPI   C5A 1035  18.223   3.090   8.008  0.0991  0.4268 -0.2325
   65loPI   C6A 1036  18.531   3.363   7.855 -0.3752 -0.1416  0.0970
   65loPI   C1B 1037  17.829   1.967   9.624  0.1068  0.1123 -0.0414
   65loPI   C2B 1038  17.763   1.998   9.190  0.0310 -0.1865  0.0254
   65loPI   C3B 1039  17.809   1.994   8.738 -0.0277 -0.0892  0.0214
   65loPI   C4B 1040  17.962   2.151   8.331  0.2115 -0.1135 -0.1784
   66loPI    C1 1041  16.357   9.594  10.937 -0.0317 -0.1556  0.1465
   66loPI    C2 1042  16.550   9.563  11.286  0.0308 -0.1558  0.1123
   66loPI    C3 1043  16.275   9.291  11.185 -0.0742 -0.0885  0.2146
   66loPI   PO4 1044  16.531   9.758  10.792  0.0175  0.2340  0.0045
   66loPI   GL1 1045  16.630   9.882  10.373 -0.1136 -0.1071 -0.1655
   66loPI   GL2 1046  16.904   9.894  10.197 -0.0680 -0.1992  0.0814
   66loPI   C1A 1047  16.487   9.822   9.976  0.1166  0.2960 -0.0450
   66loPI   C2A 1048  16.453   9.783   9.533  0.0642  0.0777 -0.0627
   66loPI   C3A 1049  16.392   9.777   9.084  0.1013  0.2457  0.0825
   66loPI   C4A 1050  16.356   9.852   8.578 -0.3350  0.0112 -0.2311
   66loPI   C5A 1051  16.573   9.894   8.185 -0.0185  0.0039 -0.1250
   66loPI   C6A 1052  16.826   9.832   7.764 -0.0732  0.2917 -0.1193
   66loPI   C1B 1053  16.915  10.172   9.808  0.1783 -0.1160 -0.0861
   66loPI   C2B 1054  16.853  10.093   9.418  0.1483 -0.3122  0.0796
   66loPI   C3B 1055  16.794  10.052   8.972  0.3072 -0.1436 -0.0005
   66loPI   C4B 1056  16.872  10.080   8.566  0.3132 -0.3812  0.0064
   67loPI    C1 1057   7.458  10.897  10.709 -0.1013  0.0400 -0.2039
   67loPI    C2 1058   7.197  10.626  10.572 -0.1725  0.0495 -0.0892
   67loPI    C3 1059   7.071  10.993  10.670 -0.0995  0.0829 -0.1198
   67loPI   PO4 1060   7.626  10.905  10.474 -0.1762  0.2132 -0.3644
   67loPI   GL1 1061   7.510  10.885  10.047  0.1054  0.3014 -0.0165
   67loPI   GL2 1062   7.205  10.790  10.108 -0.1962 -0.2772 -0.1795
   67loPI   C1A 1063   7.487  10.962   9.602 -0.0406 -0.3028 -0.2367
   67loPI   C2A 1064   7.529  10.971   9.095 -0.3718  0.3067  0.1662
   67loPI   C3A 1065   7.620  10.911   8.615  0.0780  0.2575  0.2103
   67loPI   C4A 1066   7.698  10.988   8.145 -0.1357  0.0976  0.0242
   67loPI   C5A 1067   7.381  11.015   7.859 -0.0010 -0.3770 -0.0967
   67loPI   C6A 1068   7.050  10.983   7.480 -0.0322 -0.0313 -0.0010
   67loPI   C1B 1069   7.029  10.986   9.687  0.0071 -0.1523 -0.0563
   67loPI   C2B 1070   7.074  11.046   9.240  0.2279 -0.2849 -0.2196
   67loPI   C3B 1071   7.123  10.997   8.764 -0.0410  0.1923 -0.0553
   67loPI   C4B 1072   7.120  11.015   8.451 -0.0026  0.1535  0.0944
   68loPI    C1 1073   4.892   7.428  10.931  0.0751 -0.2426  0.1663
   68loPI    C2 1074   4.620   7.647  11.125  0.0531 -0.0684 -0.0569
   68loPI    C3 1075   4.912   7.465  11.328 -0.2227 -0.2507  0.1844
   68loPI   PO4 1076   4.913   7.462  10.738 -0.1093  0.1796  0.5408
   68loPI   GL1 1077   4.828   7.327  10.359 -0.0786 -0.0561 -0.1551
   68loPI   GL2 1078   4.523   7.612  10.226 -0.0842 -0.1185 -0.1927
   68loPI   C1A 1079   5.055   7.438  10.017  0.1960 -0.1933  0.0995
   68loPI   C2A 1080   5.041   7.497   9.570 -0.3035 -0.0500 -0.0542
   68loPI   C3A 1081   5.120   7.377   9.137  0.6039 -0.0531  0.0235
   68loPI   C4A 1082   5.130   7.378   8.717  0.1464  0.0164  0.1602
   68loPI   C5A 1083   5.084   7.258   8.252 -0.2946  0.2438  0.0995
   68loPI   C6A 1084   4.818   7.350   7.977  0.0853  0.2689  0.3454
   68loPI   C1B 1085   4.569   7.617   9.737  0.0876 -0.1943  0.1457
   68loPI   C2B 1086   4.646   7.503   9.249 -0.1094  0.1238 -0.0899
   68loPI   C3B 1087   4.691   7.554   8.810  0.0623 -0.0341 -0.0343
   68loPI   C4B 1088   4.660   7.628   8.435 -0.1340  0.2396  0.0665
   69loPI    C1 1089   8.977  13.703  11.043 -0.1028  0.0424  0.1308
   69loPI    C2 1090   9.233  13.396  11.062 -0.1015  0.0345 -0.0055
   69loPI    C3 1091   9.355  13.764  11.161  0.0641  0.0918 -0.4018
   69loPI   PO4 1092   8.726  13.798  10.757  0.4753 -0.0520 -0.0892
   69loPI   GL1 1093   8.776  13.773  10.330  0.0101  0.3831 -0.3583
   69loPI   GL2 1094   8.413  13.924  10.253  0.0655 -0.1975  0.2200
   69loPI   C1A 1095   8.796  13.867   9.885 -0.3214 -0.0067  0.0127
   69loPI   C2A 1096   8.781  13.829   9.431  0.4057  0.0363 -0.2353
   69loPI   C3A 1097   8.674  13.777   8.967 -0.3119  0.0610 -0.1843
   69loPI   C4A 1098   8.691  13.809   8.530 -0.0739  0.0347 -0.1619
   69loPI   C5A 1099   8.759  13.913   8.183  0.0950  0.1071  0.2696
   69loPI   C6A 1100   8.714  14.081   7.764 -0.0436 -0.0091 -0.2208
   69loPI   C1B 1101   8.286  14.019   9.858 -0.2482  0.1967 -0.0396
   69loPI   C2B 1102   8.324  13.976   9.373  0.1289 -0.2454  0.3044
   69loPI   C3B 1103   8.313  14.066   8.904 -0.2362 -0.0152  0.1504
   69loPI   C4B 1104   8.260  14.035   8.503  0.1493  0.2591  0.2873
   70loPI    C1 1105  16.076  10.406  10.999 -0.3557  0.1938 -0.2080
   70loPI    C2 1106  15.724  10.220  11.030 -0.1043 -0.2790 -0.0849
   70loPI    C3 1107  15.891  10.385  11.353 -0.1467 -0.1765 -0.1151
   70loPI   PO4 1108  16.065  10.608  10.728  0.2019 -0.1961  0.0091
   70loPI   GL1 1109  16.197  10.691  10.260  0.0060 -0.2562 -0.0140
   70loPI   GL2 1110  15.855  10.762  10.329  0.2849 -0.1563  0.2744
   70loPI   C1A 1111  16.227  10.813   9.796  0.3391  0.1017 -0.1932
   70loPI   C2A 1112  16.281  10.770   9.426 -0.2874 -0.1804  0.1202
   70loPI   C3A 1113  16.202  10.742   9.032  0.1591 -0.2623  0.0849
   70loPI   C4A 1114  16.193  10.776   8.659 -0.1052 -0.0001  0.2297
   70loPI   C5A 1115  16.271  10.734   8.255 -0.2191 -0.1761 -0.2270
   70loPI   C6A 1116  16.583  10.812   8.016 -0.3513  0.2260 -0.5300
   70loPI   C1B 1117  15.796  10.957   9.991 -0.1265 -0.3053 -0.0792
   70loPI   C2B 1118  15.666  10.991   9.637  0.0100  0.0592 -0.1203
   70loPI   C3B 1119  15.684  10.869   9.151  0.0124 -0.1826 -0.1847
   70loPI   C4B 1120  15.665  10.893   8.739  0.0757  0.2431  0.1082
   71loPI    C1 1121  15.245   3.796  10.608 -0.1680 -0.0287  0.0329
   71loPI    C2 1122  15.436   3.557  10.866  0.1076 -0.0219 -0.1599
   71loPI    C3 1123  15.268   3.897  10.994 -0.0467 -0.1803  0.0664
   71loPI   PO4 1124  15.347   3.929  10.431  0.1454 -0.3580 -0.3778
   71loPI   GL1 1125  15.207   4.151  10.145  0.0012 -0.1258 -0.2337
   71loPI   GL2 1126  15.553   4.415  10.298 -0.0164 -0.2611 -0.0161
   71loPI   C1A 1127  15.230   3.942   9.803  0.0949  0.0674  0.0909
   71loPI   C2A 1128  15.218   3.885   9.354 -0.1052  0.0844  0.1749
   71loPI   C3A 1129  15.177   3.875   8.949  0.1681 -0.1465 -0.2065
   71loPI   C4A 1130  15.235   3.871   8.492 -0.1674 -0.3056 -0.0028
   71loPI   C5A 1131  15.252   3.822   8.015  0.2821 -0.2104  0.0902
   71loPI   C6A 1132  14.968   3.603   7.775  0.0341 -0.0034  0.0388
   71loPI   C1B 1133  15.580   4.271   9.875 -0.1340  0.0994  0.0609
   71loPI   C2B 1134  15.552   4.325   9.397 -0.0746  0.2255 -0.0787
   71loPI   C3B 1135  15.571   4.203   9.042  0.2837  0.3791 -0.0618
   71loPI   C4B 1136  15.615   4.145   8.604  0.0528  0.1653  0.2429
   72loPI    C1 1137   0.052   3.870  10.546 -0.1238 -0.1089  0.1706
   72loPI    C2 1138   0.060   3.475  10.483 -0.0861 -0.0931  0.0740
   72loPI    C3 1139   0.007   3.618  10.853 -0.0029 -0.1891  0.1234
   72loPI   PO4 1140   0.040   3.944  10.283  0.1560 -0.1420  0.0723
   72loPI   GL1 1141   0.231   4.094   9.946  0.1563  0.2615  0.1400
   72loPI   GL2 1142   0.403   3.870   9.700  0.1862 -0.4491 -0.3468
   72loPI   C1A 1143   0.209   4.283   9.496 -0.0412 -0.0167 -0.3950
   72loPI   C2A 1144   0.096   4.336   9.026 -0.0091 -0.5639 -0.3041
   72loPI   C3A 1145   0.139   4.347   8.570 -0.0185 -0.0144 -0.2012
   72loPI   C4A 1146   0.121   4.214   8.114  0.1518 -0.2950 -0.1480
   72loPI   C5A 1147  -0.100   3.964   7.882 -0.0465  0.0922  0.1190
   72loPI   C6A 1148  -0.505   3.809   7.598  0.2647  0.1635  0.0696
   72loPI   C1B 1149   0.222   3.752   9.348 -0.1865 -0.1172 -0.0964
   72loPI   C2B 1150   0.261   3.644   8.984  0.1296 -0.1115 -0.2057
   72loPI   C3B 1151   0.233   3.797   8.590  0.1013 -0.1987 -0.1717
   72loPI   C4B 1152   0.451   3.731   8.220 -0.0340  0.1501  0.0868
   73loPI    C1 1153   7.821  11.614  11.081  0.1396  0.3058  0.1398
   73loPI    C2 1154   8.123  11.383  11.206  0.0969  0.1510 -0.0384
   73loPI    C3 1155   7.967  11.658  11.451  0.1432 -0.0141  0.1791
   73loPI   PO4 1156   7.874  11.723  10.824 -0.0902 -0.0089  0.0787
   73loPI   GL1 1157   8.192  11.898  10.544 -0.2210 -0.1898 -0.3027
   73loPI   GL2 1158   8.261  11.672  10.331  0.1405 -0.1998 -0.1936
   73loPI   C1A 1159   8.226  12.121  10.108  0.2138 -0.1207  0.4467
   73loPI   C2A 1160   8.135  12.114   9.665 -0.2411  0.0578  0.1777
   73loPI   C3A 1161   8.226  12.089   9.241 -0.2019 -0.0187 -0.0784
   73loPI   C4A 1162   8.286  12.088   8.814 -0.1504 -0.0140 -0.0067
   73loPI   C5A 1163   8.184  12.092   8.399  0.1176 -0.3404  0.2031
   73loPI   C6A 1164   8.230  12.047   8.006 -0.1434  0.0057 -0.0055
   73loPI   C1B 1165   8.241  11.637   9.874 -0.1121 -0.0487 -0.0141
   73loPI   C2B 1166   8.288  11.595   9.380 -0.5058  0.1773 -0.0870
   73loPI   C3B 1167   8.288  11.597   8.967  0.2152  0.3813 -0.3569
   73loPI   C4B 1168   8.332  11.595   8.499 -0.1371  0.2032  0.0261
   74loPI    C1 1169  10.808   0.911  11.037  0.0389  0.0744 -0.1316
   74loPI    C2 1170  10.987   0.820  11.383 -0.2432 -0.0560 -0.0167
   74loPI    C3 1171  10.920   1.203  11.287  0.0650 -0.0068 -0.0480
   74loPI   PO4 1172  10.892   0.836  10.864 -0.2859  0.0464 -0.3370
   74loPI   GL1 1173  11.008   0.966  10.483  0.1490  0.0212  0.0006
   74loPI   GL2 1174  11.156   0.733  10.222 -0.0586 -0.2848 -0.1090
   74loPI   C1A 1175  10.723   0.951  10.177 -0.0578  0.1850  0.1071
   74loPI   C2A 1176  10.613   0.906   9.755 -0.0528 -0.1201 -0.2494
   74loPI   C3A 1177  10.513   0.887   9.364 -0.0877  0.2164  0.0451
   74loPI   C4A 1178  10.584   0.775   8.953 -0.0540 -0.2391  0.0734
   74loPI   C5A 1179  10.721   0.838   8.473 -0.0746  0.3429 -0.3886
   74loPI   C6A 1180  10.909   0.720   8.036 -0.2667  0.1701  0.2098
   74loPI   C1B 1181  11.072   0.672   9.743 -0.1704  0.1202  0.2118
   74loPI   C2B 1182  10.981   0.736   9.307  0.0322  0.1781  0.1337
   74loPI   C3B 1183  11.105   0.679   8.798 -0.0613  0.0485 -0.1045
   74loPI   C4B 1184  11.173   0.476   8.420  0.0314 -0.0842 -0.4132
   75loPI    C1 1185   8.474  14.251  10.857 -0.1211  0.0042  0.0669
   75loPI    C2 1186   8.317  14.235  11.225 -0.1397 -0.1591  0.0527
   75loPI    C3 1187   8.709  14.176  11.172 -0.1379 -0.1408  0.0457
   75loPI   PO4 1188   8.359  14.474  10.761 -0.0407  0.3852  0.1332
   75loPI   GL1 1189   8.516  14.570  10.447 -0.0619 -0.2294 -0.0070
   75loPI   GL2 1190   8.470  14.840  10.246  0.3207  0.0580  0.1435
   75loPI   C1A 1191   8.621  14.366  10.034  0.0045  0.2320  0.1493
   75loPI   C2A 1192   8.606  14.334   9.596  0.4372 -0.0564 -0.0817
   75loPI   C3A 1193   8.716  14.251   9.163  0.2392  0.0881  0.0978
   75loPI   C4A 1194   8.633  14.391   8.745 -0.0266  0.0639  0.1316
   75loPI   C5A 1195   8.628  14.389   8.248  0.4508  0.3203 -0.1811
   75loPI   C6A 1196   8.449  14.610   7.919 -0.0478 -0.2898 -0.0209
   75loPI   C1B 1197   8.518  14.913   9.793 -0.0272 -0.5195 -0.1831
   75loPI   C2B 1198   8.591  14.876   9.347 -0.1628 -0.1802 -0.1813
   75loPI   C3B 1199   8.573  14.912   8.863 -0.0098  0.0384  0.0386
   75loPI   C4B 1200   8.475  14.963   8.406 -0.0933 -0.2107  0.2196
   76loPI    C1 1201  13.628   0.372  10.715 -0.0431  0.1139  0.0734
   76loPI    C2 1202  13.540   0.062  10.951  0.0716 -0.0738 -0.1269
   76loPI    C3 1203  13.921   0.169  10.897  0.0260  0.1787  0.0350
   76loPI   PO4 1204  13.521   0.250  10.429  0.0726 -0.0072  0.2571
   76loPI   GL1 1205  13.492   0.035  10.061  0.0893  0.1434 -0.0635
   76loPI   GL2 1206  13.780   0.130  10.068  0.0001 -0.0191 -0.0925
   76loPI   C1A 1207  13.462   0.277   9.685 -0.3247  0.0376  0.0854
   76loPI   C2A 1208  13.403   0.234   9.280  0.1355 -0.2737 -0.0083
   76loPI   C3A 1209  13.485   0.188   8.804  0.0128  0.1320  0.1498
   76loPI   C4A 1210  13.543   0.173   8.381  0.1404 -0.1400 -0.1451
   76loPI   C5A 1211  13.432   0.405   7.950 -0.0308  0.2633  0.1067
   76loPI   C6A 1212  13.617   0.439   7.638  0.1180  0.3665 -0.2325
   76loPI   C1B 1213  13.944   0.122   9.692  0.0156  0.1051 -0.0933
   76loPI   C2B 1214  13.893   0.120   9.277  0.0181  0.3181  0.0159
   76loPI   C3B 1215  13.984   0.002   8.821  0.0195  0.2091  0.1882
   76loPI   C4B 1216  14.006  -0.009   8.362 -0.1007 -0.1656 -0.2429
   77loPI    C1 1217   0.942   7.692  10.940  0.2402  0.0422  0.0693
   77loPI    C2 1218   0.891   8.060  11.088  0.0719  0.0870 -0.0963
   77loPI    C3 1219   0.890   7.744  11.333 -0.1242  0.1668  0.0088
   77loPI   PO4 1220   0.765   7.730  10.745 -0.0659 -0.1311  0.0351
   77loPI   GL1 1221   0.816   7.810  10.423  0.0898 -0.0284 -0.0554
   77loPI   GL2 1222   1.163   7.765  10.356 -0.2022  0.0916 -0.2924
   77loPI   C1A 1223   0.863   7.814   9.957 -0.1723  0.2649 -0.0240
   77loPI   C2A 1224   0.892   7.856   9.482 -0.1888 -0.1550 -0.1534
   77loPI   C3A 1225   0.860   7.883   9.050  0.1706 -0.0431 -0.2210
   77loPI   C4A 1226   0.968   7.972   8.609  0.0208 -0.2912 -0.3222
   77loPI   C5A 1227   0.814   7.805   8.322 -0.3678  0.1239  0.2681
   77loPI   C6A 1228   0.769   7.742   7.966 -0.1781 -0.1422  0.0215
   77loPI   C1B 1229   1.393   7.645  10.094  0.1224 -0.1422 -0.0545
   77loPI   C2B 1230   1.325   7.614   9.699 -0.2803  0.2304 -0.4213
   77loPI   C3B 1231   1.326   7.724   9.284 -0.1346  0.0072  0.0808
   77loPI   C4B 1232   1.333   7.733   8.943 -0.1799 -0.2298  0.1912
   78loPI    C1 1233   1.259  16.157  11.019 -0.1288  0.0979  0.2002
   78loPI    C2 1234   1.636  16.145  11.153 -0.0234  0.1826 -0.0818
   78loPI    C3 1235   1.372  15.870  11.275  0.1819  0.0007 -0.0393
   78loPI   PO4 1236   1.242  16.535  10.943  0.0681  0.0074  0.3952
   78loPI   GL1 1237   1.416  16.686  10.630 -0.1347 -0.0164  0.0097
   78loPI   GL2 1238   1.473  16.877  10.404  0.2891 -0.0152 -0.0179
   78loPI   C1A 1239   1.448  16.342  10.327 -0.1549  0.0249 -0.2604
   78loPI   C2A 1240   1.507  16.287   9.902  0.0361 -0.0788 -0.1459
   78loPI   C3A 1241   1.491  16.230   9.424 -0.3222 -0.0281 -0.0862
   78loPI   C4A 1242   1.597  16.245   8.990  0.1913 -0.0429  0.1379
   78loPI   C5A 1243   1.362  16.309   8.645 -0.1940 -0.2052  0.0780
   78loPI   C6A 1244   1.386  16.127   8.338  0.0488  0.2474  0.3177
   78loPI   C1B 1245   1.443  16.775   9.945 -0.1458  0.0661  0.0056
   78loPI   C2B 1246   1.404  16.724   9.557 -0.0427 -0.2191 -0.3388
   78loPI   C3B 1247   1.351  16.807   9.126 -0.2163 -0.1003  0.5797
   78loPI   C4B 1248   1.299  16.867   8.790  0.2821  0.1207  0.0669
   79loPI    C1 1249  16.296  17.444  10.627 -0.0435 -0.1607  0.0019
   79loPI    C2 1250  15.974  17.445  10.864 -0.0629  0.0003 -0.0242
   79loPI    C3 1251  15.973  17.658  10.525  0.1452  0.1662  0.0772
   79loPI   PO4 1252  16.373  17.185  10.576  0.2270  0.1762  0.2214
   79loPI   GL1 1253  16.368  16.947  10.240  0.3099  0.0330  0.1531
   79loPI   GL2 1254  16.206  16.651  10.319 -0.1418 -0.0477 -0.4207
   79loPI   C1A 1255  16.407  16.784   9.868  0.2153  0.0842  0.0046
   79loPI   C2A 1256  16.290  16.786   9.524 -0.0393  0.0820 -0.2925
   79loPI   C3A 1257  16.315  16.755   9.140 -0.1150 -0.1223 -0.0039
   79loPI   C4A 1258  16.230  16.930   8.634 -0.1778 -0.0912  0.1774
   79loPI   C5A 1259  15.939  17.239   8.473  0.1429 -0.0104 -0.1708
   79loPI   C6A 1260  15.888  17.433   8.154 -0.1433  0.0080  0.1414
   79loPI   C1B 1261  16.027  16.488   9.984 -0.1791  0.1568  0.0881
   79loPI   C2B 1262  16.039  16.384   9.563  0.1695  0.0711  0.2027
   79loPI   C3B 1263  15.985  16.392   9.119 -0.0130 -0.2734  0.1437
   79loPI   C4B 1264  16.082  16.410   8.664 -0.1662  0.1606  0.0915
   80loPI    C1 1265  14.782   3.745  10.770 -0.2536 -0.0433 -0.0339
   80loPI    C2 1266  14.984   3.530  11.040  0.1033  0.1476 -0.1421
   80loPI    C3 1267  14.672   3.752  11.154 -0.1657 -0.2890 -0.0023
   80loPI   PO4 1268  14.649   3.635  10.562  0.0862 -0.0878 -0.2322
   80loPI   GL1 1269  14.485   3.736  10.177 -0.3107  0.2450 -0.0797
   80loPI   GL2 1270  14.842   3.633  10.028  0.0829  0.1116  0.0871
   80loPI   C1A 1271  14.417   3.788   9.731  0.1288 -0.1766  0.3040
   80loPI   C2A 1272  14.248   3.762   9.363 -0.0509 -0.2004  0.0513
   80loPI   C3A 1273  14.206   3.781   8.956 -0.2493 -0.3746  0.0135
   80loPI   C4A 1274  14.240   3.748   8.562 -0.1521  0.0165 -0.1162
   80loPI   C5A 1275  14.337   3.753   8.194  0.3678  0.1691  0.1652
   80loPI   C6A 1276  14.483   3.739   7.790 -0.1188  0.3827  0.1286
   80loPI   C1B 1277  14.843   3.626   9.584  0.1536  0.1637 -0.0807
   80loPI   C2B 1278  14.771   3.608   9.227  0.2378 -0.1504 -0.2528
   80loPI   C3B 1279  14.835   3.598   8.751  0.0992  0.2382  0.1677
   80loPI   C4B 1280  14.879   3.563   8.307  0.1851 -0.0807  0.2347
   81loPI    C1 1281   0.978   9.163  11.115 -0.1482  0.0188  0.1175
   81loPI    C2 1282   0.620   9.201  11.289 -0.0931  0.0604  0.2224
   81loPI    C3 1283   0.951   9.302  11.489 -0.0390  0.2422  0.0442
   81loPI   PO4 1284   1.001   9.329  10.900  0.0616 -0.1721 -0.2532
   81loPI   GL1 1285   1.264   9.383  10.547 -0.2627  0.0503  0.0729
   81loPI   GL2 1286   0.938   9.572  10.387  0.0143  0.0657  0.3028
   81loPI   C1A 1287   1.362   9.526  10.176 -0.0354  0.0806  0.0127
   81loPI   C2A 1288   1.326   9.466   9.702  0.1404  0.0874 -0.2229
   81loPI   C3A 1289   1.409   9.582   9.302  0.0824 -0.0502  0.1057
   81loPI   C4A 1290   1.467   9.564   8.916 -0.0266  0.0277  0.1422
   81loPI   C5A 1291   1.463   9.401   8.426 -0.0831 -0.0092  0.1835
   81loPI   C6A 1292   1.744   9.226   8.048 -0.0680 -0.0993 -0.4176
   81loPI   C1B 1293   0.970   9.743   9.973  0.1762 -0.0730 -0.2236
   81loPI   C2B 1294   0.909   9.660   9.532 -0.2022 -0.2041 -0.3448
   81loPI   C3B 1295   0.974   9.715   9.046  0.1998 -0.1338 -0.1569
   81loPI   C4B 1296   0.937   9.707   8.678 -0.1449  0.0102 -0.0366
   82loPI    C1 1297   8.539  17.613  10.836 -0.0372  0.2851  0.2003
   82loPI    C2 1298   8.334  17.324  11.023 -0.1041  0.3913  0.2922
   82loPI    C3 1299   8.646  17.497  11.204  0.0423  0.2588  0.1691
   82loPI   PO4 1300   8.352  17.735  10.693  0.1171  0.0652 -0.0933
   82loPI   GL1 1301   8.235  17.938  10.349 -0.0762 -0.0466 -0.0544
   82loPI   GL2 1302   8.021  17.980  10.207 -0.2687  0.0760 -0.1472
   82loPI   C1A 1303   8.492  17.864   9.906 -0.2240 -0.0663 -0.1444
   82loPI   C2A 1304   8.526  17.902   9.433  0.2588  0.0392 -0.3285
   82loPI   C3A 1305   8.452  17.747   9.057  0.1263  0.0613  0.1209
   82loPI   C4A 1306   8.486  17.766   8.611 -0.1802 -0.0683  0.2049
   82loPI   C5A 1307   8.393  17.906   8.229  0.1368 -0.1509 -0.2869
   82loPI   C6A 1308   8.051  18.059   7.915 -0.0735  0.0458  0.2850
   82loPI   C1B 1309   8.042  17.989   9.704  0.0671 -0.1207 -0.1399
   82loPI   C2B 1310   8.006  17.907   9.235 -0.2345 -0.0480 -0.1202
   82loPI   C3B 1311   8.005  17.925   8.792 -0.0606  0.0461  0.0347
   82loPI   C4B 1312   7.952  17.696   8.391  0.2060 -0.0680 -0.1773
   83loPI    C1 1313  11.570   8.498  10.437  0.0714 -0.0743 -0.0666
   83loPI    C2 1314  11.635   8.319  10.788 -0.3137 -0.1680 -0.0379
   83loPI    C3 1315  11.751   8.698  10.732  0.1978 -0.3079  0.0168
   83loPI   PO4 1316  11.645   8.387  10.269 -0.2826  0.1306 -0.0188
   83loPI   GL1 1317  11.552   8.457   9.887 -0.1012 -0.0101 -0.0694
   83loPI   GL2 1318  11.989   8.333   9.878 -0.0549  0.1841 -0.0120
   83loPI   C1A 1319  11.590   8.489   9.451  0.1903 -0.0579  0.2265
   83loPI   C2A 1320  11.541   8.598   9.015  0.0062  0.2000 -0.2391
   83loPI   C3A 1321  11.565   8.506   8.579  0.2156  0.0285  0.1444
   83loPI   C4A 1322  11.596   8.642   8.165 -0.3348 -0.0813  0.0705
   83loPI   C5A 1323  11.757   8.356   7.853 -0.0145 -0.0559 -0.0289
   83loPI   C6A 1324  11.972   7.992   7.819 -0.0483 -0.0545 -0.0286
   83loPI   C1B 1325  12.022   8.319   9.427 -0.1708  0.3297 -0.2045
   83loPI   C2B 1326  12.071   8.333   9.115  0.1404 -0.2732  0.2281
   83loPI   C3B 1327  12.135   8.374   8.653  0.1368  0.1879 -0.1383
   83loPI   C4B 1328  12.057   8.396   8.259  0.1883 -0.2700  0.0086
   84loPI    C1 1329   7.474   8.985  10.796 -0.0214 -0.1297  0.3041
   84loPI    C2 1330   7.549   9.309  11.019 -0.0466  0.0615  0.0389
   84loPI    C3 1331   7.293   9.031  11.150  0.0773  0.0800  0.3289
   84loPI   PO4 1332   7.381   9.077  10.556  0.1345  0.1414 -0.0193
   84loPI   GL1 1333   7.503   9.096  10.182 -0.2016 -0.0503 -0.0920
   84loPI   GL2 1334   7.385   9.376   9.997  0.0270  0.1641  0.0344
   84loPI   C1A 1335   7.434   9.033   9.682 -0.4020  0.3430 -0.0210
   84loPI   C2A 1336   7.502   9.043   9.228 -0.1330  0.0899 -0.3316
   84loPI   C3A 1337   7.494   9.020   8.796 -0.2349  0.1316  0.0481
   84loPI   C4A 1338   7.532   9.013   8.431  0.0395 -0.0683 -0.1078
   84loPI   C5A 1339   7.744   9.314   8.146 -0.1615  0.3358  0.3100
   84loPI   C6A 1340   7.966   9.464   7.787  0.0084  0.0921  0.1145
   84loPI   C1B 1341   7.371   9.531   9.554 -0.2271  0.1193 -0.1550
   84loPI   C2B 1342   7.405   9.530   9.108  0.3056 -0.2551 -0.2112
   84loPI   C3B 1343   7.390   9.575   8.656  0.0271 -0.1088 -0.0751
   84loPI   C4B 1344   7.352   9.598   8.228 -0.0097  0.1452 -0.4252
   85loPI    C1 1345   2.974   9.771  11.273  0.0724  0.1763  0.0634
   85loPI    C2 1346   2.665   9.884  11.502 -0.1412  0.0407 -0.1534
   85loPI    C3 1347   2.862   9.546  11.584 -0.0936  0.0917 -0.0559
   85loPI   PO4 1348   2.924   9.854  11.024  0.1476  0.0064 -0.1612
   85loPI   GL1 1349   3.025  10.012  10.718 -0.0398 -0.0867  0.1614
   85loPI   GL2 1350   3.315   9.954  10.608 -0.3142 -0.3671  0.0134
   85loPI   C1A 1351   2.801  10.050  10.313  0.1998 -0.0077  0.1440
   85loPI   C2A 1352   2.644  10.039   9.893 -0.1777  0.0320 -0.1859
   85loPI   C3A 1353   2.649  10.142   9.515  0.0559 -0.4391  0.2239
   85loPI   C4A 1354   2.691  10.117   9.043  0.2961 -0.1395 -0.2354
   85loPI   C5A 1355   2.755  10.141   8.661  0.0124  0.1544  0.0555
   85loPI   C6A 1356   2.695  10.172   8.175 -0.0886  0.4152  0.1107
   85loPI   C1B 1357   3.214   9.896  10.211 -0.3303 -0.3046 -0.0782
   85loPI   C2B 1358   3.168   9.916   9.807 -0.2879 -0.0075 -0.4747
   85loPI   C3B 1359   3.130  10.002   9.298  0.0849 -0.4851  0.0186
   85loPI   C4B 1360   3.266   9.965   8.847 -0.1858 -0.1729  0.1673
   86loPI    C1 1361   0.589  11.302  11.380  0.1216  0.0904  0.0008
   86loPI    C2 1362   0.648  10.987  11.141 -0.0636  0.0298  0.0332
   86loPI    C3 1363   0.742  10.963  11.529 -0.1424 -0.0096  0.0501
   86loPI   PO4 1364   0.657  11.520  11.102  0.0845 -0.1721  0.0448
   86loPI   GL1 1365   0.446  11.626  10.669  0.2869  0.1378  0.1614
   86loPI   GL2 1366   0.701  11.770  10.466  0.0395 -0.3005 -0.0056
   86loPI   C1A 1367   0.242  11.473  10.227  0.1228  0.0979  0.1993
   86loPI   C2A 1368   0.151  11.464   9.779 -0.1060 -0.1940  0.0353
   86loPI   C3A 1369   0.147  11.488   9.404 -0.0171  0.1470  0.0997
   86loPI   C4A 1370   0.169  11.542   9.014 -0.1351 -0.0650 -0.2145
   86loPI   C5A 1371   0.006  11.576   8.591 -0.2743  0.1250 -0.2390
   86loPI   C6A 1372   0.085  11.443   8.143  0.1569 -0.2190  0.1673
   86loPI   C1B 1373   0.639  11.780   9.963 -0.3414  0.0946 -0.0865
   86loPI   C2B 1374   0.595  11.797   9.562  0.4910 -0.1803 -0.0448
   86loPI   C3B 1375   0.600  11.817   9.129  0.3389 -0.3561 -0.1300
   86loPI   C4B 1376   0.556  11.634   8.718 -0.2246 -0.2799  0.0019
   87loPI    C1 1377  10.198  17.205  10.756  0.0999 -0.0271  0.1453
   87loPI    C2 1378  10.058  17.001  11.070  0.0500 -0.2748 -0.0353
   87loPI    C3 1379  10.213  17.366  11.122  0.1117 -0.3439  0.2872
   87loPI   PO4 1380   9.969  17.046  10.604  0.0260  0.3637  0.0861
   87loPI   GL1 1381   9.921  16.931  10.238  0.1169 -0.0681  0.0279
   87loPI   GL2 1382   9.585  16.953  10.267 -0.3256  0.2477  0.2117
   87loPI   C1A 1383  10.040  16.873   9.813  0.1269  0.1709  0.4094
   87loPI   C2A 1384  10.078  16.786   9.374  0.2496 -0.1536  0.2479
   87loPI   C3A 1385  10.158  16.752   8.911  0.2532  0.1935  0.0400
   87loPI   C4A 1386  10.079  16.736   8.508  0.1867 -0.2468 -0.0796
   87loPI   C5A 1387   9.899  16.840   8.183 -0.0488 -0.1370  0.3289
   87loPI   C6A 1388   9.500  16.854   7.873  0.1584 -0.0659  0.0577
   87loPI   C1B 1389   9.534  17.113   9.824 -0.1047 -0.0281 -0.0463
   87loPI   C2B 1390   9.586  16.962   9.409  0.0129 -0.0588 -0.0557
   87loPI   C3B 1391   9.652  16.912   9.006  0.0260 -0.1774  0.1520
   87loPI   C4B 1392   9.570  16.933   8.561  0.0239 -0.0772  0.3490
   88loPI    C1 1393   5.088   2.387  11.476  0.0970 -0.0344  0.1573
   88loPI    C2 1394   4.694   2.378  11.544  0.0510 -0.1424 -0.1115
   88loPI    C3 1395   4.921   2.658  11.718 -0.1311 -0.1285  0.1074
   88loPI   PO4 1396   5.084   2.305  11.166  0.3752 -0.1150  0.0451
   88loPI   GL1 1397   5.086   2.393  10.767 -0.2904 -0.1516  0.0021
   88loPI   GL2 1398   5.206   2.695  10.656  0.0251  0.0947 -0.0901
   88loPI   C1A 1399   4.820   2.237  10.388  0.3344  0.2645  0.0312
   88loPI   C2A 1400   4.732   2.147   9.960  0.0893 -0.0834  0.0301
   88loPI   C3A 1401   4.654   2.170   9.541  0.0201 -0.1640  0.0485
   88loPI   C4A 1402   4.757   2.311   9.105 -0.0965  0.3199 -0.0547
   88loPI   C5A 1403   4.846   2.229   8.682 -0.0051  0.1143 -0.3275
   88loPI   C6A 1404   4.964   1.983   8.339 -0.2328 -0.0192 -0.0546
   88loPI   C1B 1405   5.188   2.549  10.162  0.0365  0.1425 -0.1467
   88loPI   C2B 1406   5.118   2.539   9.730  0.1464 -0.0347  0.2879
   88loPI   C3B 1407   5.201   2.673   9.333  0.0981 -0.1689 -0.0826
   88loPI   C4B 1408   5.132   2.728   9.028 -0.1917 -0.1643  0.0344
   89loPI    C1 1409   6.556  10.952  10.789  0.1273 -0.0463 -0.2506
   89loPI    C2 1410   6.501  11.309  10.961  0.2840 -0.0974 -0.0914
   89loPI    C3 1411   6.665  11.010  11.170  0.0641 -0.2922 -0.1934
   89loPI   PO4 1412   6.299  10.853  10.691  0.3352  0.0867 -0.0700
   89loPI   GL1 1413   6.397  10.716  10.300  0.3613 -0.1349 -0.0018
   89loPI   GL2 1414   6.736  10.701  10.399  0.2297 -0.3225  0.1068
   89loPI   C1A 1415   6.136  10.722   9.985  0.3362 -0.0627 -0.0758
   89loPI   C2A 1416   6.233  10.880   9.659 -0.0111  0.0467 -0.0040
   89loPI   C3A 1417   6.154  10.798   9.210  0.1347  0.2887 -0.1519
   89loPI   C4A 1418   6.234  10.799   8.852  0.0917 -0.2612  0.0944
   89loPI   C5A 1419   6.210  10.922   8.427  0.2013 -0.0155 -0.0938
   89loPI   C6A 1420   5.900  10.756   8.201 -0.0448  0.3099  0.0452
   89loPI   C1B 1421   6.751  10.633   9.929  0.0012  0.2637  0.1962
   89loPI   C2B 1422   6.682  10.677   9.479  0.2045  0.0180  0.0189
   89loPI   C3B 1423   6.719  10.706   9.043 -0.0525  0.2154  0.2138
   89loPI   C4B 1424   6.686  10.694   8.560 -0.0962  0.2317  0.1080
   90loPI    C1 1425   2.463  15.235  11.338 -0.3936 -0.3373 -0.2263
   90loPI    C2 1426   2.155  15.426  11.509 -0.0158  0.0794  0.0091
   90loPI    C3 1427   2.370  15.163  11.720 -0.0943 -0.0726 -0.0987
   90loPI   PO4 1428   2.443  15.128  11.087  0.0000  0.0522 -0.1886
   90loPI   GL1 1429   2.616  15.192  10.669 -0.1137 -0.1021  0.0523
   90loPI   GL2 1430   2.608  14.877  10.623 -0.1341 -0.0456  0.1358
   90loPI   C1A 1431   2.557  15.428  10.342  0.1708 -0.1840 -0.1609
   90loPI   C2A 1432   2.628  15.489   9.986 -0.0906  0.0358  0.0841
   90loPI   C3A 1433   2.594  15.478   9.479  0.3601 -0.0282  0.1977
   90loPI   C4A 1434   2.634  15.437   8.997 -0.2268  0.0267 -0.1818
   90loPI   C5A 1435   2.590  15.258   8.591 -0.3158  0.0254 -0.1473
   90loPI   C6A 1436   2.574  14.913   8.283 -0.0929  0.0115  0.1921
   90loPI   C1B 1437   2.740  14.850  10.184 -0.0316 -0.1371 -0.0496
   90loPI   C2B 1438   2.702  15.056   9.813 -0.0824 -0.0033  0.0619
   90loPI   C3B 1439   2.721  14.908   9.445 -0.1589  0.1425  0.0335
   90loPI   C4B 1440   2.714  14.920   9.016  0.1236  0.3155  0.0099
   91loPI    C1 1441  12.327   1.907  10.926 -0.0937  0.4081  0.1263
   91loPI    C2 1442  12.381   2.026  11.304 -0.5041  0.0775  0.2976
   91loPI    C3 1443  12.170   1.695  11.227  0.2462 -0.3179 -0.1823
   91loPI   PO4 1444  12.468   2.096  10.794 -0.0393  0.0816  0.0398
   91loPI   GL1 1445  12.815   1.991  10.538  0.2827 -0.2335  0.3241
   91loPI   GL2 1446  13.088   2.120  10.329  0.2670 -0.0922 -0.0215
   91loPI   C1A 1447  12.627   2.034  10.161 -0.1319  0.3644  0.0322
   91loPI   C2A 1448  12.733   2.036   9.671 -0.2816  0.0526  0.2332
   91loPI   C3A 1449  12.667   1.996   9.216 -0.4003  0.0349  0.0942
   91loPI   C4A 1450  12.663   1.919   8.758  0.1992 -0.0659  0.4074
   91loPI   C5A 1451  12.704   2.035   8.288  0.0551  0.0122  0.3997
   91loPI   C6A 1452  12.825   2.446   7.958  0.1939  0.1430  0.1525
   91loPI   C1B 1453  13.126   1.985  10.001 -0.0989 -0.0104 -0.1669
   91loPI   C2B 1454  13.219   1.741   9.590  0.0981  0.0133 -0.0528
   91loPI   C3B 1455  13.127   1.812   9.163 -0.0022  0.3806 -0.0764
   91loPI   C4B 1456  13.184   1.697   8.756  0.2311  0.0910 -0.0180
   92loPI    C1 1457   2.034  16.458  11.189 -0.0143  0.0441 -0.0555
   92loPI    C2 1458   1.700  16.653  11.089  0.1273  0.3675  0.0908
   92loPI    C3 1459   1.774  16.567  11.473  0.0814  0.0478  0.0309
   92loPI   PO4 1460   2.200  16.583  11.009  0.0220  0.3405  0.2258
   92loPI   GL1 1461   1.912  16.582  10.600 -0.3257 -0.2082  0.3526
   92loPI   GL2 1462   1.811  16.295  10.738  0.0096  0.2182  0.4132
   92loPI   C1A 1463   1.886  16.677  10.191  0.0079 -0.2374 -0.0398
   92loPI   C2A 1464   1.873  16.592   9.741 -0.1417 -0.1445  0.1228
   92loPI   C3A 1465   1.808  16.652   9.297 -0.0027 -0.1995  0.0538
   92loPI   C4A 1466   1.800  16.666   8.840  0.0218 -0.1274 -0.1173
   92loPI   C5A 1467   1.767  16.486   8.443  0.2170  0.2976  0.0268
   92loPI   C6A 1468   1.721  16.407   8.008  0.1534  0.0598  0.2941
   92loPI   C1B 1469   1.946  16.171  10.226 -0.1659 -0.2998  0.1200
   92loPI   C2B 1470   1.997  16.089   9.776 -0.1736  0.0856  0.0674
   92loPI   C3B 1471   2.014  16.205   9.390 -0.1124 -0.0290  0.2132
   92loPI   C4B 1472   2.075  16.078   8.984  0.0472  0.3985 -0.3648
   93loPI    C1 1473   9.845  11.323  10.542  0.0913  0.0972  0.0433
   93loPI    C2 1474   9.615  11.420  10.854  0.0675  0.0399  0.0437
   93loPI    C3 1475   9.931  11.180  10.905 -0.1029 -0.2018 -0.0255
   93loPI   PO4 1476   9.674  11.188  10.356 -0.0462  0.2581  0.1620
   93loPI   GL1 1477   9.598  11.205   9.978  0.0888  0.0965 -0.2248
   93loPI   GL2 1478   9.261  11.200  10.001  0.1740  0.0227  0.2859
   93loPI   C1A 1479   9.778  11.202   9.593  0.0773 -0.2897 -0.0123
   93loPI   C2A 1480   9.851  11.215   9.166 -0.0987 -0.1964  0.0640
   93loPI   C3A 1481   9.809  11.094   8.732  0.0011  0.1446 -0.0877
   93loPI   C4A 1482   9.850  11.086   8.275  0.1896 -0.1039  0.1237
   93loPI   C5A 1483   9.662  10.999   7.887 -0.0601  0.0822  0.1110
   93loPI   C6A 1484   9.659  10.792   7.455  0.3029 -0.3143  0.0176
   93loPI   C1B 1485   9.290  11.357   9.587 -0.1768  0.3318  0.0995
   93loPI   C2B 1486   9.357  11.350   9.114 -0.1034  0.1171 -0.3500
   93loPI   C3B 1487   9.314  11.243   8.623  0.3418  0.3653 -0.3941
   93loPI   C4B 1488   9.367  11.325   8.219 -0.1551 -0.0199 -0.3219
   94loPI    C1 1489  10.532  13.144  10.864 -0.0427 -0.0315 -0.0330
   94loPI    C2 1490  10.522  12.815  11.091 -0.2565 -0.1150 -0.1604
   94loPI    C3 1491  10.315  13.139  11.200  0.1165  0.0525  0.0726
   94loPI   PO4 1492  10.521  13.014  10.628 -0.2359  0.0441 -0.2382
   94loPI   GL1 1493  10.674  12.932  10.295 -0.0343 -0.3626  0.1002
   94loPI   GL2 1494  10.448  12.700  10.180  0.0661  0.1353  0.1826
   94loPI   C1A 1495  10.813  13.077   9.958 -0.0979 -0.0234 -0.4541
   94loPI   C2A 1496  10.739  13.154   9.591  0.1205 -0.3009 -0.0042
   94loPI   C3A 1497  10.723  13.240   9.150 -0.1478  0.0645  0.0957
   94loPI   C4A 1498  10.749  13.225   8.737  0.3589  0.0508  0.2915
   94loPI   C5A 1499  10.714  13.077   8.232 -0.1254 -0.3758 -0.0237
   94loPI   C6A 1500  10.470  12.789   8.078  0.0963  0.1776  0.0022
   94loPI   C1B 1501  10.350  12.872   9.819 -0.2146 -0.0374 -0.2103
   94loPI   C2B 1502  10.384  12.891   9.401  0.0763  0.0559  0.0951
   94loPI   C3B 1503  10.284  12.872   8.929 -0.1009 -0.1552 -0.0683
   94loPI   C4B 1504  10.426  12.926   8.591  0.1263  0.0532  0.0025
   95loPI    C1 1505   8.234  16.362  10.996  0.0016 -0.2291 -0.0528
   95loPI    C2 1506   7.881  16.300  11.172 -0.0137  0.2314  0.0905
   95loPI    C3 1507   8.212  16.138  11.326 -0.1291 -0.0086  0.0903
   95loPI   PO4 1508   8.124  16.323  10.755  0.0009 -0.3653  0.2908
   95loPI   GL1 1509   8.207  16.209  10.358 -0.1952 -0.0433 -0.4079
   95loPI   GL2 1510   8.321  15.989  10.274  0.2634 -0.0907 -0.1471
   95loPI   C1A 1511   8.253  16.369   9.997 -0.1141  0.0212 -0.1877
   95loPI   C2A 1512   8.183  16.353   9.599 -0.1779 -0.1665 -0.0578
   95loPI   C3A 1513   8.221  16.338   9.278 -0.0347  0.0768 -0.0643
   95loPI   C4A 1514   8.385  16.435   8.918 -0.1297 -0.1005 -0.3502
   95loPI   C5A 1515   8.291  16.453   8.464  0.2781 -0.1616  0.0554
   95loPI   C6A 1516   8.443  16.676   8.167  0.1195  0.3852 -0.1436
   95loPI   C1B 1517   8.341  15.883   9.805 -0.0586  0.0464 -0.4463
   95loPI   C2B 1518   8.442  15.869   9.407 -0.3712 -0.1182  0.2880
   95loPI   C3B 1519   8.375  15.914   8.985  0.1982  0.1527  0.3693
   95loPI   C4B 1520   8.507  16.054   8.599 -0.1159 -0.0603 -0.1887
   96loPI    C1 1521   9.592  11.975  10.914 -0.0956 -0.0211  0.0199
   96loPI    C2 1522   9.378  11.782  11.192  0.1961  0.0966  0.3343
   96loPI    C3 1523   9.766  11.855  11.254  0.3203 -0.0593 -0.1998
   96loPI   PO4 1524   9.475  11.826  10.648  0.2011 -0.1902  0.1192
   96loPI   GL1 1525   9.494  11.875  10.238 -0.0163 -0.2637  0.0606
   96loPI   GL2 1526   9.655  11.621  10.184 -0.0288  0.0133 -0.1663
   96loPI   C1A 1527   9.543  12.107   9.900 -0.2336 -0.2765  0.0686
   96loPI   C2A 1528   9.541  12.248   9.453 -0.0782 -0.0821  0.0494
   96loPI   C3A 1529   9.510  12.169   9.053  0.0374  0.1472  0.1030
   96loPI   C4A 1530   9.556  12.080   8.564 -0.2028 -0.0711  0.1376
   96loPI   C5A 1531   9.754  11.945   8.191  0.1332  0.3602  0.1042
   96loPI   C6A 1532   9.721  11.814   7.759  0.0111  0.1524  0.0077
   96loPI   C1B 1533   9.661  11.653   9.743  0.0626  0.0064  0.0410
   96loPI   C2B 1534   9.668  11.730   9.339 -0.0645  0.0974  0.1007
   96loPI   C3B 1535   9.788  11.609   8.920  0.0819 -0.1707 -0.0364
   96loPI   C4B 1536   9.743  11.533   8.428  0.0979 -0.1296 -0.0263
   97loPI    C1 1537  13.510   2.590  10.856  0.0630  0.0884 -0.2422
   97loPI    C2 1538  13.244   2.532  11.149  0.0241  0.0710 -0.2809
   97loPI    C3 1539  13.615   2.386  11.184 -0.0053 -0.0033 -0.2772
   97loPI   PO4 1540  13.449   2.445  10.509 -0.0888 -0.0070 -0.0530
   97loPI   GL1 1541  13.385   2.574  10.102  0.0344  0.0952 -0.1211
   97loPI   GL2 1542  13.540   2.830  10.056  0.1058  0.6638  0.0165
   97loPI   C1A 1543  13.131   2.438   9.822  0.0534  0.0367 -0.2415
   97loPI   C2A 1544  13.136   2.247   9.439 -0.3179 -0.1818 -0.0705
   97loPI   C3A 1545  13.082   2.270   8.965  0.0762  0.3021  0.0097
   97loPI   C4A 1546  13.128   2.203   8.467  0.1360  0.0245  0.0346
   97loPI   C5A 1547  13.346   2.288   8.004  0.1328  0.1832 -0.3255
   97loPI   C6A 1548  13.692   2.242   7.882 -0.0051 -0.2805  0.2587
   97loPI   C1B 1549  13.540   2.653   9.639 -0.0981  0.2021 -0.0652
   97loPI   C2B 1550  13.517   2.666   9.117  0.0385 -0.2085 -0.0430
   97loPI   C3B 1551  13.493   2.533   8.674  0.0231  0.1411 -0.2082
   97loPI   C4B 1552  13.639   2.710   8.260  0.1093  0.0295  0.2344
   98loPI    C1 1553  14.275   1.661  10.735 -0.0268  0.0090  0.0288
   98loPI    C2 1554  14.457   1.827  11.051 -0.1059  0.0806  0.0373
   98loPI    C3 1555  14.514   1.440  10.967 -0.1110  0.0530  0.1592
   98loPI   PO4 1556  14.059   1.768  10.688 -0.1046 -0.1630 -0.1740
   98loPI   GL1 1557  13.686   1.927  10.458  0.0442 -0.1323 -0.0090
   98loPI   GL2 1558  13.578   2.104  10.163  0.1374 -0.1896 -0.1212
   98loPI   C1A 1559  13.827   1.674  10.067 -0.0880 -0.0226 -0.2129
   98loPI   C2A 1560  13.658   1.619   9.703  0.0386  0.0255  0.0143
   98loPI   C3A 1561  13.604   1.645   9.281  0.1352 -0.2494 -0.3420
   98loPI   C4A 1562  13.721   1.541   8.855  0.0610 -0.0163 -0.1748
   98loPI   C5A 1563  13.562   1.667   8.475 -0.0134 -0.1146  0.1120
   98loPI   C6A 1564  13.330   1.821   8.124 -0.0709  0.0899  0.1440
   98loPI   C1B 1565  13.542   2.125   9.775  0.0245  0.1264 -0.1530
   98loPI   C2B 1566  13.589   2.176   9.260  0.1871  0.0846 -0.1363
   98loPI   C3B 1567  13.537   2.023   8.882 -0.3655  0.0096 -0.2719
   98loPI   C4B 1568  13.606   2.157   8.414 -0.2114 -0.2136 -0.1485
   99loPI    C1 1569  11.548  13.184  10.899 -0.0741 -0.1661  0.1711
   99loPI    C2 1570  11.530  12.996  11.251 -0.1527 -0.3314  0.0799
   99loPI    C3 1571  11.857  12.963  11.024 -0.0594 -0.1380  0.1843
   99loPI   PO4 1572  11.412  13.059  10.777 -0.5576  0.1493 -0.2467
   99loPI   GL1 1573  11.262  13.110  10.274 -0.3268  0.3142 -0.0807
   99loPI   GL2 1574  11.264  12.828  10.047 -0.1159  0.3820  0.1163
   99loPI   C1A 1575  11.551  13.257   9.909  0.1217 -0.2256 -0.1960
   99loPI   C2A 1576  11.628  13.492   9.471  0.2746 -0.0728  0.1001
   99loPI   C3A 1577  11.636  13.371   9.046  0.2320  0.1093  0.1635
   99loPI   C4A 1578  11.522  13.299   8.584  0.0062  0.0008 -0.0432
   99loPI   C5A 1579  11.517  13.303   8.147  0.1848  0.1199  0.0360
   99loPI   C6A 1580  11.831  13.186   7.847  0.0565  0.2240 -0.1097
   99loPI   C1B 1581  11.227  12.942   9.616  0.0562 -0.1209  0.0488
   99loPI   C2B 1582  11.188  12.988   9.193 -0.2379  0.0244  0.2629
   99loPI   C3B 1583  11.237  12.968   8.814 -0.3264  0.0963  0.1476
   99loPI   C4B 1584  11.240  12.959   8.297 -0.0842  0.1837  0.1914
  100loPI    C1 1585   1.700   8.415  11.228 -0.0633  0.2514  0.1560
  100loPI    C2 1586   1.998   8.388  11.492 -0.0906 -0.0466  0.1599
  100loPI    C3 1587   1.812   8.057  11.367 -0.1153  0.0955 -0.1912
  100loPI   PO4 1588   1.762   8.539  10.984 -0.4042 -0.2655  0.2759
  100loPI   GL1 1589   1.909   8.385  10.657  0.0864 -0.0611 -0.2681
  100loPI   GL2 1590   1.656   8.539  10.472 -0.0526  0.0347  0.0877
  100loPI   C1A 1591   2.153   8.372  10.247  0.1045  0.0801 -0.2507
  100loPI   C2A 1592   2.229   8.353   9.790  0.1599 -0.0709 -0.0533
  100loPI   C3A 1593   2.091   8.422   9.370 -0.3391  0.1902 -0.0262
  100loPI   C4A 1594   2.192   8.401   9.005 -0.0179 -0.1678  0.0011
  100loPI   C5A 1595   2.246   8.351   8.489 -0.1513 -0.0848 -0.0960
  100loPI   C6A 1596   1.867   8.284   8.214  0.0819 -0.1531  0.0793
  100loPI   C1B 1597   1.629   8.604  10.010  0.1050 -0.1825 -0.0924
  100loPI   C2B 1598   1.554   8.595   9.555  0.0631  0.1983  0.0521
  100loPI   C3B 1599   1.680   8.533   9.140  0.0452  0.2220  0.0078
  100loPI   C4B 1600   1.830   8.513   8.671 -0.1381 -0.0857 -0.3354
  101loPI    C1 1601   2.491   8.508  11.396 -0.2914  0.2246  0.1860
  101loPI    C2 1602   2.884   8.479  11.464 -0.2582  0.3189  0.0390
  101loPI    C3 1603   2.661   8.727  11.684 -0.2564  0.1807  0.1989
  101loPI   PO4 1604   2.515   8.609  11.126 -0.1447 -0.3119  0.0374
  101loPI   GL1 1605   2.441   8.458  10.690 -0.0028  0.0343  0.0328
  101loPI   GL2 1606   2.217   8.785  10.653 -0.2232 -0.0035 -0.2749
  101loPI   C1A 1607   2.565   8.710  10.291 -0.3267  0.2498 -0.0873
  101loPI   C2A 1608   2.559   8.764   9.845  0.0950 -0.2473 -0.1487
  101loPI   C3A 1609   2.489   8.736   9.371  0.2498  0.2938  0.4973
  101loPI   C4A 1610   2.547   8.760   8.835 -0.0164 -0.2612  0.3558
  101loPI   C5A 1611   2.344   8.862   8.513  0.1011  0.2185 -0.0175
  101loPI   C6A 1612   2.265   9.276   8.191  0.0599  0.1723 -0.2016
  101loPI   C1B 1613   2.055   8.889  10.273  0.0530 -0.0316  0.0288
  101loPI   C2B 1614   2.001   8.873   9.840  0.0156 -0.4052 -0.1055
  101loPI   C3B 1615   1.987   8.910   9.363 -0.1423  0.0936  0.2900
  101loPI   C4B 1616   2.090   8.847   9.000 -0.0570 -0.0272 -0.1408
  102loPI    C1 1617   2.763  13.105  11.088  0.1016 -0.0367 -0.2663
  102loPI    C2 1618   2.968  13.382  11.291 -0.3809  0.1198  0.0243
  102loPI    C3 1619   2.847  13.048  11.475 -0.2246 -0.0613 -0.1963
  102loPI   PO4 1620   2.582  13.296  10.902 -0.0991 -0.2686 -0.0775
  102loPI   GL1 1621   2.451  13.187  10.546 -0.2392 -0.1354  0.1104
  102loPI   GL2 1622   2.677  12.923  10.530 -0.3492 -0.1249 -0.0530
  102loPI   C1A 1623   2.522  13.435  10.205  0.3089 -0.2786 -0.1608
  102loPI   C2A 1624   2.523  13.605   9.764  0.1821  0.2795  0.0659
  102loPI   C3A 1625   2.512  13.475   9.352  0.1917  0.0194 -0.1403
  102loPI   C4A 1626   2.481  13.438   8.950 -0.0997 -0.0436  0.0436
  102loPI   C5A 1627   2.248  13.371   8.565 -0.0957  0.2639 -0.1182
  102loPI   C6A 1628   1.890  13.488   8.224  0.2218 -0.3529 -0.1649
  102loPI   C1B 1629   2.582  12.958  10.112  0.1640  0.0518 -0.0107
  102loPI   C2B 1630   2.632  12.986   9.619  0.0793  0.3344  0.0605
  102loPI   C3B 1631   2.568  12.997   9.241  0.2132  0.1455 -0.3658
  102loPI   C4B 1632   2.669  12.919   8.807  0.1375  0.0065 -0.1964
  103loPI    C1 1633   3.327  10.181  11.372 -0.0863  0.2005 -0.2464
  103loPI    C2 1634   3.699  10.288  11.470 -0.0000 -0.2362 -0.0709
  103loPI    C3 1635   3.395  10.371  11.717 -0.0142  0.0642 -0.1846
  103loPI   PO4 1636   3.311  10.216  11.088 -0.2571  0.0891 -0.0711
  103loPI   GL1 1637   3.361  10.426  10.737  0.0771 -0.0908  0.1450
  103loPI   GL2 1638   3.308  10.748  10.786 -0.0930 -0.1503  0.5052
  103loPI   C1A 1639   3.151  10.382  10.401 -0.2643  0.3724 -0.0139
  103loPI   C2A 1640   3.055  10.383   9.988  0.2520 -0.0053 -0.1746
  103loPI   C3A 1641   3.114  10.408   9.583 -0.0320 -0.0407 -0.1055
  103loPI   C4A 1642   3.054  10.500   9.156  0.0480  0.0484 -0.0028
  103loPI   C5A 1643   3.016  10.574   8.721 -0.2320 -0.3518 -0.0614
  103loPI   C6A 1644   3.135  10.282   8.383  0.0045  0.1264  0.0597
  103loPI   C1B 1645   3.133  10.900  10.376 -0.3532 -0.1263  0.1807
  103loPI   C2B 1646   3.017  11.010  10.038 -0.0630  0.0340 -0.0404
  103loPI   C3B 1647   3.010  10.891   9.631  0.1814 -0.4085 -0.0066
  103loPI   C4B 1648   2.922  11.056   9.195 -0.2444 -0.2423  0.0863
  104loPI    C1 1649  12.997  12.091  10.760 -0.0415 -0.0340 -0.0055
  104loPI    C2 1650  12.862  11.794  10.992 -0.1839  0.3288  0.3891
  104loPI    C3 1651  13.201  11.985  11.088  0.1372  0.0247 -0.0964
  104loPI   PO4 1652  12.980  12.074  10.445  0.0826 -0.2422  0.1519
  104loPI   GL1 1653  13.122  12.293  10.154  0.0392  0.0194  0.2635
  104loPI   GL2 1654  12.768  12.510  10.070  0.0094  0.2472 -0.0865
  104loPI   C1A 1655  13.046  12.245   9.687 -0.2916 -0.0732 -0.0600
  104loPI   C2A 1656  13.168  12.296   9.423 -0.1231  0.1799 -0.1007
  104loPI   C3A 1657  13.224  12.288   8.934  0.4863  0.0252  0.0127
  104loPI   C4A 1658  13.184  12.309   8.519 -0.0726 -0.1245 -0.0568
  104loPI   C5A 1659  12.997  12.237   8.132  0.3950 -0.1858  0.0282
  104loPI   C6A 1660  12.685  12.066   7.843  0.0289  0.0243  0.2325
  104loPI   C1B 1661  12.574  12.448   9.671 -0.2960 -0.0442  0.0088
  104loPI   C2B 1662  12.653  12.388   9.286  0.0884  0.0304 -0.0118
  104loPI   C3B 1663  12.701  12.486   8.823  0.2284 -0.0274  0.0085
  104loPI   C4B 1664  12.647  12.471   8.364 -0.0297 -0.1599 -0.1418
  105loPI    C1 1665  16.383  13.438  10.960  0.1831  0.0511  0.0039
  105loPI    C2 1666  16.390  13.838  10.954  0.0779  0.0548  0.0962
  105loPI    C3 1667  16.163  13.646  11.222 -0.1175 -0.0656 -0.1515
  105loPI   PO4 1668  16.361  13.339  10.756 -0.0006  0.0777  0.1526
  105loPI   GL1 1669  16.508  13.314  10.416  0.0235  0.1013 -0.0260
  105loPI   GL2 1670  16.782  13.464  10.399 -0.0612 -0.1388  0.0429
  105loPI   C1A 1671  16.319  13.055  10.088  0.0116  0.4391 -0.0622
  105loPI   C2A 1672  16.337  13.073   9.675  0.0512 -0.0097 -0.0865
  105loPI   C3A 1673  16.210  13.128   9.293 -0.0572 -0.0053  0.1636
  105loPI   C4A 1674  16.241  13.167   8.870 -0.1397  0.0353 -0.0002
  105loPI   C5A 1675  16.357  13.163   8.484 -0.0205 -0.2146  0.1317
  105loPI   C6A 1676  16.316  13.295   8.110 -0.3279 -0.1038  0.1871
  105loPI   C1B 1677  16.617  13.395   9.976 -0.1282  0.1515  0.0951
  105loPI   C2B 1678  16.621  13.503   9.502  0.1930  0.3110 -0.0798
  105loPI   C3B 1679  16.611  13.542   9.115  0.1840  0.0130 -0.0806
  105loPI   C4B 1680  16.679  13.469   8.677  0.2916  0.2184 -0.3947
  106loPI    C1 1681  14.456   6.673  10.638  0.0554  0.0494 -0.0680
  106loPI    C2 1682  14.551   6.473  10.970 -0.0497  0.1304  0.0116
  106loPI    C3 1683  14.178   6.605  10.917 -0.0385  0.0994 -0.1487
  106loPI   PO4 1684  14.610   6.784  10.561  0.2897  0.0055 -0.2329
  106loPI   GL1 1685  14.859   7.013  10.274  0.2917  0.1685  0.0435
  106loPI   GL2 1686  15.129   6.846  10.079  0.3620 -0.1392  0.0719
  106loPI   C1A 1687  14.843   7.368   9.886 -0.0270 -0.0136  0.0578
  106loPI   C2A 1688  14.973   7.304   9.510 -0.2758 -0.2928 -0.0595
  106loPI   C3A 1689  14.966   7.364   9.067 -0.1345 -0.2580 -0.0112
  106loPI   C4A 1690  14.913   7.419   8.708  0.1405  0.1145 -0.0116
  106loPI   C5A 1691  15.130   7.486   8.216 -0.4024 -0.0460 -0.2476
  106loPI   C6A 1692  15.460   7.458   7.917 -0.3375 -0.0130  0.4270
  106loPI   C1B 1693  15.031   6.852   9.669 -0.0319 -0.1686  0.1274
  106loPI   C2B 1694  15.021   6.844   9.219 -0.2279 -0.1696  0.0718
  106loPI   C3B 1695  15.114   6.862   8.798  0.0540  0.0364 -0.0915
  106loPI   C4B 1696  14.933   7.037   8.358 -0.1366  0.0100  0.2751
  107loPI    C1 1697  13.868   7.132  10.820  0.1787  0.2379 -0.1968
  107loPI    C2 1698  13.978   6.981  11.174 -0.0048 -0.1355 -0.2936
  107loPI    C3 1699  13.773   7.324  11.158 -0.1615 -0.2134 -0.0242
  107loPI   PO4 1700  14.112   7.037  10.661  0.1431 -0.1908  0.1669
  107loPI   GL1 1701  14.301   7.028  10.197 -0.0513 -0.1926 -0.0548
  107loPI   GL2 1702  13.967   7.130  10.208 -0.0561  0.1756 -0.0418
  107loPI   C1A 1703  14.517   6.940   9.852 -0.2098  0.2241  0.0793
  107loPI   C2A 1704  14.561   7.084   9.456  0.3560 -0.2017  0.1912
  107loPI   C3A 1705  14.592   7.047   9.073  0.1264  0.1065 -0.1695
  107loPI   C4A 1706  14.559   6.972   8.663 -0.0427 -0.0733 -0.0831
  107loPI   C5A 1707  14.269   6.636   8.350 -0.2249 -0.0723  0.1375
  107loPI   C6A 1708  14.175   6.599   7.884 -0.0184 -0.0769  0.1955
  107loPI   C1B 1709  14.073   7.086   9.736  0.0463 -0.1037  0.0203
  107loPI   C2B 1710  14.033   7.173   9.383 -0.0570  0.1463 -0.0803
  107loPI   C3B 1711  14.130   7.187   8.875 -0.0973  0.3373 -0.2073
  107loPI   C4B 1712  14.040   7.084   8.440  0.1239  0.1919  0.2915
  108loPI    C1 1713   6.487   7.824  10.475  0.0515  0.0692  0.0433
  108loPI    C2 1714   6.698   7.512  10.610 -0.2349 -0.0597  0.2018
  108loPI    C3 1715   6.697   7.856  10.814  0.1492  0.0772 -0.0178
  108loPI   PO4 1716   6.578   7.853  10.185  0.0437  0.0843  0.0390
  108loPI   GL1 1717   6.275   7.833   9.856 -0.0235  0.0561 -0.1420
  108loPI   GL2 1718   6.419   8.031   9.754  0.1396 -0.0467 -0.1176
  108loPI   C1A 1719   5.974   7.571   9.623 -0.2570 -0.1888  0.0216
  108loPI   C2A 1720   6.028   7.534   9.209  0.1154 -0.0178  0.1198
  108loPI   C3A 1721   6.025   7.490   8.709 -0.0376 -0.2680 -0.1273
  108loPI   C4A 1722   6.032   7.483   8.294  0.1994 -0.1989 -0.2775
  108loPI   C5A 1723   6.301   7.395   7.886 -0.2136  0.0735  0.1273
  108loPI   C6A 1724   6.799   7.382   7.769 -0.1462 -0.1462 -0.3769
  108loPI   C1B 1725   6.329   8.004   9.388  0.2448 -0.1309  0.0612
  108loPI   C2B 1726   6.402   7.898   8.966  0.1456  0.1086 -0.0623
  108loPI   C3B 1727   6.483   7.897   8.535 -0.1893 -0.0936  0.0300
  108loPI   C4B 1728   6.372   7.795   8.164 -0.1927  0.2286 -0.0295
  109loPI    C1 1729   7.309   2.332  10.986 -0.1797 -0.1308 -0.0949
  109loPI    C2 1730   7.519   2.318  11.326 -0.2375  0.1259 -0.0464
  109loPI    C3 1731   7.415   1.979  11.141 -0.1191 -0.0125  0.1372
  109loPI   PO4 1732   7.428   2.522  10.805  0.1471 -0.3935 -0.0690
  109loPI   GL1 1733   7.487   2.490  10.337  0.1663 -0.0960  0.1238
  109loPI   GL2 1734   7.276   2.402  10.271 -0.2439 -0.1130  0.3644
  109loPI   C1A 1735   7.427   2.748   9.889  0.1136  0.0583 -0.1022
  109loPI   C2A 1736   7.396   2.781   9.388  0.0175 -0.0541 -0.0641
  109loPI   C3A 1737   7.391   2.858   8.980  0.3540 -0.2041  0.3297
  109loPI   C4A 1738   7.529   2.958   8.608  0.0122 -0.1024 -0.0529
  109loPI   C5A 1739   7.667   3.145   8.291  0.0410  0.1055 -0.3742
  109loPI   C6A 1740   7.489   3.458   7.992 -0.2107  0.0737  0.4708
  109loPI   C1B 1741   7.007   2.390   9.955 -0.1676 -0.1192 -0.0005
  109loPI   C2B 1742   7.074   2.427   9.505  0.2241 -0.0122 -0.1390
  109loPI   C3B 1743   7.056   2.468   9.167  0.1290 -0.1401 -0.1895
  109loPI   C4B 1744   7.068   2.543   8.690 -0.0953  0.1107 -0.3224
  110loPI    C1 1745   6.783  12.593  10.911  0.0250 -0.1184  0.2085
  110loPI    C2 1746   7.057  12.879  10.856 -0.2778  0.1243 -0.0846
  110loPI    C3 1747   6.798  12.906  11.160 -0.2172  0.0886 -0.0297
  110loPI   PO4 1748   6.730  12.572  10.654  0.2094  0.0462 -0.0237
  110loPI   GL1 1749   6.651  12.300  10.333  0.1450  0.3516 -0.6224
  110loPI   GL2 1750   6.410  12.156  10.241 -0.0810  0.1336  0.2659
  110loPI   C1A 1751   6.762  12.504  10.055 -0.1011  0.1348  0.1073
  110loPI   C2A 1752   6.703  12.586   9.681 -0.1295  0.2249  0.2611
  110loPI   C3A 1753   6.742  12.607   9.215  0.0834  0.2853 -0.1933
  110loPI   C4A 1754   6.772  12.588   8.779  0.0571 -0.1304 -0.0715
  110loPI   C5A 1755   6.651  12.664   8.329 -0.0122  0.4113  0.0080
  110loPI   C6A 1756   6.854  12.586   7.929  0.0987  0.4621 -0.3529
  110loPI   C1B 1757   6.343  12.272   9.777 -0.1086  0.0302  0.0811
  110loPI   C2B 1758   6.322  12.244   9.359 -0.0148  0.0999  0.0085
  110loPI   C3B 1759   6.292  12.177   8.896  0.2256  0.1512  0.1086
  110loPI   C4B 1760   6.352  12.275   8.430 -0.2128  0.0260 -0.1160
  111loPI    C1 1761   5.722   5.868  10.910  0.0494 -0.1476 -0.1742
  111loPI    C2 1762   5.809   5.552  11.138  0.2726 -0.1235 -0.2228
  111loPI    C3 1763   5.711   5.900  11.308  0.4169 -0.1115 -0.1635
  111loPI   PO4 1764   5.761   5.896  10.629 -0.0854 -0.0005 -0.2639
  111loPI   GL1 1765   6.009   5.939  10.304  0.1080 -0.0559  0.0108
  111loPI   GL2 1766   6.323   6.048  10.103  0.0990 -0.1012 -0.0027
  111loPI   C1A 1767   5.972   5.673   9.961  0.0449  0.2057 -0.0821
  111loPI   C2A 1768   5.927   5.719   9.487 -0.0517  0.1756  0.1401
  111loPI   C3A 1769   5.987   5.750   9.078 -0.2989 -0.0796 -0.0434
  111loPI   C4A 1770   6.002   5.743   8.627 -0.0073  0.1539 -0.0935
  111loPI   C5A 1771   5.853   5.706   8.243  0.2125 -0.1318 -0.0398
  111loPI   C6A 1772   5.495   5.828   7.968 -0.1165  0.2567  0.0366
  111loPI   C1B 1773   6.281   6.091   9.749  0.2917  0.0740 -0.0982
  111loPI   C2B 1774   6.282   6.051   9.377 -0.3422 -0.1211 -0.0932
  111loPI   C3B 1775   6.369   6.043   8.917  0.2274  0.1145 -0.0660
  111loPI   C4B 1776   6.326   6.075   8.462 -0.1449 -0.3053  0.1322
  112loPI    C1 1777   5.036  17.481  10.993  0.1275  0.2957  0.0150
  112loPI    C2 1778   5.421  17.500  10.884  0.1762  0.0974  0.1469
  112loPI    C3 1779   5.289  17.715  11.195  0.1564  0.2453  0.0372
  112loPI   PO4 1780   4.954  17.443  10.707 -0.0378  0.1454  0.0206
  112loPI   GL1 1781   4.877  17.220  10.320  0.1038 -0.0283 -0.2328
  112loPI   GL2 1782   4.925  17.002  10.165 -0.0607  0.2572 -0.1037
  112loPI   C1A 1783   4.815  17.465   9.958  0.2803  0.2006  0.1885
  112loPI   C2A 1784   4.784  17.522   9.486  0.2022 -0.2310  0.2328
  112loPI   C3A 1785   4.791  17.555   8.968 -0.1865 -0.4795  0.1321
  112loPI   C4A 1786   4.966  17.388   8.663 -0.0829 -0.1876  0.0864
  112loPI   C5A 1787   4.881  17.018   8.307 -0.2021 -0.1146 -0.0594
  112loPI   C6A 1788   4.621  16.985   8.051  0.1383  0.0395  0.1146
  112loPI   C1B 1789   4.948  17.065   9.685 -0.0383  0.1119 -0.1379
  112loPI   C2B 1790   4.979  17.072   9.278  0.0594  0.4013  0.0506
  112loPI   C3B 1791   5.014  16.923   8.801 -0.2738  0.1495  0.1939
  112loPI   C4B 1792   5.324  17.101   8.520  0.2923  0.4307 -0.0820
  113loPI    C1 1793   1.041  10.397  10.947  0.2109 -0.1848 -0.0316
  113loPI    C2 1794   0.724  10.157  10.896  0.0406 -0.0084  0.1745
  113loPI    C3 1795   0.933  10.143  11.237  0.2485 -0.1145  0.0445
  113loPI   PO4 1796   1.135  10.419  10.746 -0.2267  0.1827 -0.2054
  113loPI   GL1 1797   1.238  10.214  10.460 -0.4778  0.1087  0.0325
  113loPI   GL2 1798   1.347   9.967  10.376  0.1069 -0.3209 -0.3600
  113loPI   C1A 1799   1.293  10.594  10.141  0.0231  0.3370 -0.1441
  113loPI   C2A 1800   1.221  10.596   9.625  0.1538  0.0080  0.1686
  113loPI   C3A 1801   1.162  10.617   9.209 -0.0020  0.2339 -0.0639
  113loPI   C4A 1802   1.256  10.564   8.828  0.1990 -0.0526 -0.0573
  113loPI   C5A 1803   1.186  10.353   8.496  0.0792  0.2126  0.0186
  113loPI   C6A 1804   1.489  10.233   8.125  0.0094  0.0406  0.4048
  113loPI   C1B 1805   1.313  10.065   9.915  0.0096 -0.0410  0.1479
  113loPI   C2B 1806   1.316  10.152   9.403  0.0403  0.0182 -0.1567
  113loPI   C3B 1807   1.319  10.067   8.952 -0.0973 -0.1875  0.0623
  113loPI   C4B 1808   1.364   9.848   8.535  0.0133  0.1549  0.3314
  114loPI    C1 1809   4.901  16.826  10.693  0.0742  0.1395 -0.2244
  114loPI    C2 1810   4.836  16.717  11.072 -0.0748 -0.1434 -0.3281
  114loPI    C3 1811   5.107  16.999  10.989 -0.1000 -0.0193 -0.0064
  114loPI   PO4 1812   4.641  16.924  10.638  0.0108  0.1669  0.0530
  114loPI   GL1 1813   4.340  16.938  10.241 -0.2070  0.1709  0.1819
  114loPI   GL2 1814   4.413  17.161  10.136 -0.0911  0.0076  0.0941
  114loPI   C1A 1815   4.112  16.874   9.884 -0.0561  0.0151  0.1069
  114loPI   C2A 1816   4.107  16.899   9.414  0.0523  0.0694 -0.3243
  114loPI   C3A 1817   4.116  16.891   9.000 -0.2328 -0.0723 -0.0168
  114loPI   C4A 1818   4.110  16.721   8.566 -0.0157  0.0938  0.0510
  114loPI   C5A 1819   4.199  16.726   8.151  0.0573 -0.1016 -0.3523
  114loPI   C6A 1820   4.272  16.526   7.773 -0.2562 -0.0125 -0.3002
  114loPI   C1B 1821   4.433  17.223   9.739 -0.3497  0.3086 -0.0316
  114loPI   C2B 1822   4.470  17.270   9.193  0.0004  0.1095 -0.1936
  114loPI   C3B 1823   4.554  17.150   8.749 -0.1253 -0.1302  0.4551
  114loPI   C4B 1824   4.573  17.512   8.409 -0.3074  0.4162 -0.2384
  115loPI    C1 1825   5.554  11.372  11.195 -0.1581  0.1743  0.2298
  115loPI    C2 1826   5.642  11.098  11.473 -0.3209 -0.2032 -0.0812
  115loPI    C3 1827   5.928  11.340  11.333 -0.1625 -0.2487  0.1581
  115loPI   PO4 1828   5.468  11.265  10.974  0.0433 -0.2189  0.2960
  115loPI   GL1 1829   5.548  11.234  10.570  0.1046  0.2126 -0.0291
  115loPI   GL2 1830   5.279  11.172  10.490 -0.1062  0.1216 -0.1014
  115loPI   C1A 1831   5.659  11.395  10.122  0.1224  0.0909 -0.0804
  115loPI   C2A 1832   5.624  11.483   9.731  0.2283 -0.1830  0.1089
  115loPI   C3A 1833   5.647  11.441   9.306  0.1272 -0.1276 -0.2046
  115loPI   C4A 1834   5.656  11.525   8.864 -0.0140 -0.1812 -0.0452
  115loPI   C5A 1835   5.596  11.493   8.468 -0.1277 -0.2125 -0.0436
  115loPI   C6A 1836   5.416  11.697   8.064 -0.1928  0.3601  0.1094
  115loPI   C1B 1837   5.287  11.097  10.145 -0.4755  0.1997  0.0354
  115loPI   C2B 1838   5.218  11.189   9.713  0.2416  0.1912  0.2501
  115loPI   C3B 1839   5.209  11.177   9.232 -0.1076  0.2402  0.1468
  115loPI   C4B 1840   5.217  11.193   8.775 -0.0872 -0.0561  0.2418
  116loPI    C1 1841   4.148  13.775  11.080 -0.1536  0.2155 -0.0755
  116loPI    C2 1842   4.184  14.089  11.325  0.0844  0.0414  0.1173
  116loPI    C3 1843   3.920  13.800  11.407  0.0625  0.0540  0.0909
  116loPI   PO4 1844   4.321  13.794  10.946  0.1907 -0.3702 -0.1972
  116loPI   GL1 1845   4.260  13.807  10.589 -0.3192  0.0559 -0.0589
  116loPI   GL2 1846   4.190  14.164  10.634  0.1012 -0.0183  0.0874
  116loPI   C1A 1847   4.193  13.852  10.162 -0.1249 -0.0165  0.1517
  116loPI   C2A 1848   4.212  13.867   9.732  0.4838  0.3658  0.0085
  116loPI   C3A 1849   4.246  13.878   9.275 -0.0734  0.1807 -0.1222
  116loPI   C4A 1850   4.188  13.841   8.855  0.1128  0.0897 -0.2320
  116loPI   C5A 1851   4.151  13.958   8.426  0.0754 -0.3192 -0.1389
  116loPI   C6A 1852   4.371  14.252   8.121 -0.2038 -0.1602 -0.2087
  116loPI   C1B 1853   4.493  14.212  10.286  0.1821 -0.1732 -0.2363
  116loPI   C2B 1854   4.560  14.171   9.838  0.1131 -0.0656 -0.0875
  116loPI   C3B 1855   4.552  14.243   9.359 -0.1261 -0.1743 -0.0336
  116loPI   C4B 1856   4.558  14.185   8.924 -0.0955 -0.1736  0.0008
  117loPI    C1 1857  17.764   5.744  10.915 -0.1046 -0.1313  0.1435
  117loPI    C2 1858  18.088   5.976  10.945 -0.0958 -0.1192 -0.0328
  117loPI    C3 1859  17.884   5.873  11.274 -0.0058  0.0038  0.0625
  117loPI   PO4 1860  17.589   5.856  10.734  0.0281 -0.0129  0.1918
  117loPI   GL1 1861  17.495   5.972  10.335 -0.1347  0.0919  0.4374
  117loPI   GL2 1862  17.293   5.648  10.394  0.2608  0.0360  0.0515
  117loPI   C1A 1863  17.559   6.003   9.865 -0.0029 -0.0033  0.1276
  117loPI   C2A 1864  17.528   6.013   9.447 -0.0814 -0.1480  0.0209
  117loPI   C3A 1865  17.524   6.058   9.079  0.0606 -0.1585  0.1202
  117loPI   C4A 1866  17.544   6.026   8.740  0.2083 -0.0235 -0.1277
  117loPI   C5A 1867  17.548   5.859   8.341 -0.0931  0.1662  0.1295
  117loPI   C6A 1868  17.447   6.082   7.908 -0.1670  0.4936 -0.0652
  117loPI   C1B 1869  17.199   5.676   9.989  0.1810 -0.1267 -0.0523
  117loPI   C2B 1870  17.168   5.701   9.543  0.2224 -0.0787 -0.0368
  117loPI   C3B 1871  17.126   5.732   9.050  0.3566 -0.0156 -0.0376
  117loPI   C4B 1872  17.139   5.545   8.609  0.0959 -0.0025 -0.1607
  118loPI    C1 1873   9.195   3.447  10.621  0.0200  0.1307 -0.1079
  118loPI    C2 1874   9.387   3.494  10.969 -0.0552 -0.2101 -0.0163
  118loPI    C3 1875   9.017   3.638  10.924  0.1668  0.3431 -0.1535
  118loPI   PO4 1876   9.348   3.537  10.347  0.0950  0.0076  0.0930
  118loPI   GL1 1877   9.250   3.378  10.049  0.2958 -0.0171  0.1358
  118loPI   GL2 1878   9.036   3.671   9.806 -0.1499  0.2001 -0.0168
  118loPI   C1A 1879   9.162   3.213   9.517 -0.1862 -0.2235  0.1311
  118loPI   C2A 1880   9.226   3.163   9.098 -0.1982 -0.0677  0.0510
  118loPI   C3A 1881   9.320   3.206   8.771 -0.0701 -0.0346 -0.0532
  118loPI   C4A 1882   9.305   3.108   8.439 -0.2113  0.0299 -0.3807
  118loPI   C5A 1883   9.401   3.275   8.049  0.1202 -0.2208 -0.0084
  118loPI   C6A 1884   9.854   3.548   8.003 -0.0411 -0.0477  0.0675
  118loPI   C1B 1885   9.040   3.723   9.313  0.0781  0.1480  0.1576
  118loPI   C2B 1886   9.258   3.705   8.787  0.1308 -0.1431 -0.0388
  118loPI   C3B 1887   9.321   3.629   8.445  0.2974  0.0474  0.0490
  118loPI   C4B 1888   9.102   3.660   7.976  0.0121 -0.0330 -0.2119
  119loPI    C1 1889  15.066   7.415  10.709  0.1506  0.2021  0.1322
  119loPI    C2 1890  14.945   7.053  10.830  0.3550  0.0669 -0.0584
  119loPI    C3 1891  15.299   7.196  10.950  0.2053  0.2740  0.1448
  119loPI   PO4 1892  15.112   7.418  10.545 -0.0207  0.2314 -0.0918
  119loPI   GL1 1893  15.258   7.501  10.144 -0.1653  0.0047 -0.1540
  119loPI   GL2 1894  15.447   7.175  10.136  0.2248 -0.1257 -0.0110
  119loPI   C1A 1895  15.326   7.658   9.873 -0.0459 -0.3875 -0.0945
  119loPI   C2A 1896  15.337   7.760   9.440 -0.0499  0.1101 -0.2928
  119loPI   C3A 1897  15.425   7.695   9.073 -0.2910  0.0691 -0.4332
  119loPI   C4A 1898  15.410   7.685   8.575 -0.2641  0.1166 -0.2246
  119loPI   C5A 1899  15.528   7.801   8.273 -0.2040  0.0320 -0.1572
  119loPI   C6A 1900  15.868   7.855   7.951  0.0814  0.1605  0.1316
  119loPI   C1B 1901  15.428   7.219   9.725 -0.4286  0.2008  0.0236
  119loPI   C2B 1902  15.439   7.173   9.287  0.0573  0.1879 -0.2061
  119loPI   C3B 1903  15.434   7.234   8.837  0.1628 -0.0231  0.0016
  119loPI   C4B 1904  15.536   7.250   8.472 -0.1173  0.0291  0.4001
  120loPI    C1 1905  16.690  12.058  10.710  0.0081  0.0678 -0.1339
  120loPI    C2 1906  16.504  12.409  10.755 -0.1806 -0.0509  0.0273
  120loPI    C3 1907  16.700  12.245  11.063  0.0792  0.0083 -0.1040
  120loPI   PO4 1908  16.521  11.912  10.668 -0.4233 -0.3140  0.1400
  120loPI   GL1 1909  16.449  11.555  10.397  0.1749 -0.2298 -0.1311
  120loPI   GL2 1910  16.571  11.282  10.274 -0.3902 -0.2024  0.1230
  120loPI   C1A 1911  16.496  11.676   9.994  0.0437  0.0879  0.2182
  120loPI   C2A 1912  16.589  11.641   9.535 -0.1883  0.1002 -0.1435
  120loPI   C3A 1913  16.591  11.552   9.147  0.1682 -0.1434  0.2186
  120loPI   C4A 1914  16.489  11.491   8.836 -0.2358  0.0386  0.2486
  120loPI   C5A 1915  16.553  11.572   8.449  0.2543 -0.1333 -0.1067
  120loPI   C6A 1916  16.282  11.825   8.123 -0.0155  0.0689 -0.0538
  120loPI   C1B 1917  16.663  11.198   9.892 -0.1055 -0.1006  0.1057
  120loPI   C2B 1918  16.687  11.152   9.439  0.1067 -0.0814  0.2729
  120loPI   C3B 1919  16.625  11.025   8.995  0.0470  0.1431 -0.0469
  120loPI   C4B 1920  16.633  11.036   8.516 -0.1192  0.1225  0.1404
  121loPI    C1 1921  16.683   9.231  10.854 -0.1448  0.1191 -0.1484
  121loPI    C2 1922  17.036   9.350  10.998 -0.1820  0.1055 -0.0456
  121loPI    C3 1923  16.819   9.080  11.198 -0.0610 -0.2002 -0.3173
  121loPI   PO4 1924  16.692   9.284  10.514  0.2151  0.1277 -0.1936
  121loPI   GL1 1925  16.708   8.971  10.171  0.0544 -0.0827  0.0968
  121loPI   GL2 1926  16.476   9.100  10.011  0.2045  0.0477  0.2554
  121loPI   C1A 1927  16.977   9.061   9.784 -0.1367  0.0122  0.1216
  121loPI   C2A 1928  17.074   9.104   9.341  0.0543  0.1521 -0.0125
  121loPI   C3A 1929  17.013   9.082   8.880  0.0009 -0.0780  0.0160
  121loPI   C4A 1930  16.979   9.116   8.486  0.0368  0.0822  0.0804
  121loPI   C5A 1931  17.109   9.185   8.068 -0.2386  0.0619  0.0913
  121loPI   C6A 1932  17.220   9.073   7.723  0.0610 -0.3927 -0.2788
  121loPI   C1B 1933  16.501   9.243   9.598 -0.2235 -0.0296 -0.1899
  121loPI   C2B 1934  16.606   9.187   9.247  0.0301 -0.0661 -0.0597
  121loPI   C3B 1935  16.486   9.236   8.826 -0.1065  0.2926  0.2452
  121loPI   C4B 1936  16.513   9.358   8.386 -0.1648  0.1267 -0.2799
  122loPI    C1 1937  12.989   3.350  10.711 -0.0739  0.1620  0.2493
  122loPI    C2 1938  13.044   2.986  10.868 -0.0416  0.0312 -0.0587
  122loPI    C3 1939  12.699   3.179  10.927 -0.0890 -0.0826  0.0397
  122loPI   PO4 1940  13.022   3.343  10.337 -0.2625 -0.3082  0.2197
  122loPI   GL1 1941  13.345   3.306  10.077 -0.1117 -0.0478 -0.0552
  122loPI   GL2 1942  13.490   3.550  10.070 -0.1899  0.1131  0.1371
  122loPI   C1A 1943  13.454   3.227   9.654 -0.0754  0.0297 -0.1634
  122loPI   C2A 1944  13.429   3.112   9.173  0.2371 -0.0083  0.0219
  122loPI   C3A 1945  13.473   3.184   8.828  0.1537  0.2246 -0.0154
  122loPI   C4A 1946  13.526   3.118   8.511 -0.3963  0.1335 -0.3949
  122loPI   C5A 1947  13.568   3.155   8.056 -0.0300 -0.1185  0.0748
  122loPI   C6A 1948  13.671   2.832   7.753 -0.2815  0.3208  0.1545
  122loPI   C1B 1949  13.398   3.728   9.568 -0.5550 -0.0434  0.0527
  122loPI   C2B 1950  13.287   3.596   9.129 -0.0071 -0.2179 -0.1011
  122loPI   C3B 1951  13.337   3.631   8.674 -0.2232 -0.3130  0.0870
  122loPI   C4B 1952  13.470   3.594   8.281 -0.2094 -0.0940 -0.1032
  123loPI    C1 1953   4.233  10.620  11.195 -0.1097 -0.0159 -0.0833
  123loPI    C2 1954   4.226  10.980  11.370 -0.2439 -0.0621  0.0070
  123loPI    C3 1955   4.183  10.649  11.590  0.2196 -0.1524 -0.0287
  123loPI   PO4 1956   4.215  10.700  10.924  0.0152 -0.1521  0.1184
  123loPI   GL1 1957   4.233  10.511  10.571  0.1198 -0.0215  0.1445
  123loPI   GL2 1958   4.525  10.499  10.374 -0.0451 -0.2332  0.1570
  123loPI   C1A 1959   4.030  10.677  10.158 -0.0974  0.0371  0.2371
  123loPI   C2A 1960   3.931  10.582   9.791  0.2129 -0.0412  0.0195
  123loPI   C3A 1961   4.006  10.596   9.321 -0.2568 -0.2184 -0.2654
  123loPI   C4A 1962   3.901  10.624   8.909 -0.0863  0.1430  0.3157
  123loPI   C5A 1963   3.731  10.860   8.509  0.3728 -0.4958  0.0195
  123loPI   C6A 1964   3.897  11.290   8.328 -0.1057 -0.2034  0.2189
  123loPI   C1B 1965   4.451  10.490   9.866 -0.1449 -0.1784 -0.6279
  123loPI   C2B 1966   4.482  10.438   9.491 -0.0436  0.0040 -0.1820
  123loPI   C3B 1967   4.391  10.541   9.014 -0.0227 -0.0743  0.3771
  123loPI   C4B 1968   4.532  10.484   8.525  0.0070 -0.1379  0.0661
  124loPI    C1 1969   7.187   4.310  10.997 -0.0711  0.0167  0.0997
  124loPI    C2 1970   7.442   4.464  11.264  0.0966  0.0362 -0.0695
  124loPI    C3 1971   7.282   4.102  11.325  0.1552  0.0291  0.0436
  124loPI   PO4 1972   7.310   4.251  10.773  0.1280  0.0831  0.1090
  124loPI   GL1 1973   7.403   4.279  10.389 -0.1050  0.0510 -0.0908
  124loPI   GL2 1974   7.683   4.340  10.278  0.1285  0.2029  0.0338
  124loPI   C1A 1975   7.474   4.139   9.889 -0.1827 -0.1440 -0.0137
  124loPI   C2A 1976   7.585   4.155   9.548  0.2517  0.1350 -0.4185
  124loPI   C3A 1977   7.666   4.131   9.119  0.2305 -0.1055  0.0617
  124loPI   C4A 1978   7.718   4.148   8.654  0.0496 -0.2426 -0.0668
  124loPI   C5A 1979   7.896   4.231   8.280  0.1862 -0.2289 -0.1556
  124loPI   C6A 1980   8.115   3.976   7.945 -0.1954 -0.0936 -0.0032
  124loPI   C1B 1981   7.893   4.503   9.794  0.3421  0.3164 -0.2385
  124loPI   C2B 1982   7.896   4.519   9.369  0.3598  0.3621 -0.1371
  124loPI   C3B 1983   8.032   4.449   8.891  0.0034 -0.1198 -0.0792
  124loPI   C4B 1984   8.200   4.577   8.470  0.0441 -0.0018 -0.2651
  125loPI    C1 1985   7.176   5.060  10.773  0.1133 -0.0806  0.1614
  125loPI    C2 1986   7.524   5.256  10.798  0.1203 -0.0718  0.0093
  125loPI    C3 1987   7.474   4.910  10.994  0.0596  0.1487  0.3933
  125loPI   PO4 1988   7.110   5.122  10.601 -0.0176 -0.1187  0.1773
  125loPI   GL1 1989   6.882   4.927  10.114 -0.3479 -0.0815  0.0251
  125loPI   GL2 1990   6.659   4.628  10.325 -0.0601 -0.0749  0.2691
  125loPI   C1A 1991   6.942   4.673   9.808 -0.1062  0.0825  0.0224
  125loPI   C2A 1992   7.019   4.840   9.425  0.1221 -0.0900  0.2421
  125loPI   C3A 1993   7.045   4.884   8.974 -0.0349  0.2517 -0.0948
  125loPI   C4A 1994   7.267   4.901   8.570  0.1322  0.1351  0.0254
  125loPI   C5A 1995   7.090   4.776   8.268  0.1994 -0.3015 -0.0811
  125loPI   C6A 1996   7.158   4.864   7.865  0.0584  0.1276  0.0919
  125loPI   C1B 1997   6.536   4.387   9.979 -0.0834  0.1373  0.1712
  125loPI   C2B 1998   6.634   4.399   9.546 -0.0974 -0.3864 -0.2151
  125loPI   C3B 1999   6.658   4.471   9.092 -0.2272 -0.0419  0.2031
  125loPI   C4B 2000   6.701   4.457   8.631  0.2667  0.0414 -0.0158
  126loPI    C1 2001   3.916   7.266  10.821  0.0402  0.3038 -0.2498
  126loPI    C2 2002   3.723   7.359  11.158  0.1906 -0.1865 -0.0193
  126loPI    C3 2003   4.094   7.494  11.096  0.0557  0.1444 -0.1261
  126loPI   PO4 2004   3.732   7.323  10.603 -0.1121  0.0400  0.1272
  126loPI   GL1 2005   3.777   7.269  10.190 -0.1675  0.1161 -0.3241
  126loPI   GL2 2006   4.125   7.382  10.301 -0.1436 -0.3358 -0.2701
  126loPI   C1A 2007   3.877   7.456   9.759 -0.0160  0.2310  0.1597
  126loPI   C2A 2008   3.752   7.532   9.277 -0.0520  0.0748 -0.3086
  126loPI   C3A 2009   3.803   7.415   8.809 -0.2973  0.2029  0.0391
  126loPI   C4A 2010   3.657   7.465   8.351  0.2384  0.4230  0.0443
  126loPI   C5A 2011   3.301   7.517   8.207  0.1832  0.0468 -0.0792
  126loPI   C6A 2012   2.785   7.651   8.260 -0.2333 -0.0186  0.1423
  126loPI   C1B 2013   4.288   7.282   9.999  0.0107  0.1595  0.1119
  126loPI   C2B 2014   4.308   7.241   9.521 -0.0738  0.2557  0.0237
  126loPI   C3B 2015   4.246   7.279   9.061 -0.1382 -0.4538 -0.1252
  126loPI   C4B 2016   4.255   7.226   8.639 -0.2253 -0.0757  0.0626
  127loPI    C1 2017   5.586   9.716  11.107  0.2992 -0.0727  0.3379
  127loPI    C2 2018   5.255   9.513  11.203 -0.0002  0.2835  0.0922
  127loPI    C3 2019   5.459   9.710  11.486 -0.0459  0.1354  0.2300
  127loPI   PO4 2020   5.484   9.784  10.804  0.2563  0.2129 -0.1041
  127loPI   GL1 2021   5.359   9.855  10.383  0.2773 -0.1259 -0.1091
  127loPI   GL2 2022   5.051   9.710  10.257 -0.0695 -0.1587  0.1072
  127loPI   C1A 2023   5.386  10.077   9.968  0.1436  0.1505  0.2078
  127loPI   C2A 2024   5.377  10.154   9.466 -0.1274 -0.2325  0.1752
  127loPI   C3A 2025   5.397  10.112   9.017  0.1056  0.0738  0.0414
  127loPI   C4A 2026   5.383  10.050   8.609 -0.1343 -0.1704 -0.2775
  127loPI   C5A 2027   5.474   9.881   8.167 -0.4491 -0.0439 -0.2279
  127loPI   C6A 2028   5.253   9.516   7.971  0.1062 -0.3839  0.2980
  127loPI   C1B 2029   4.953   9.774   9.792 -0.3551  0.2631  0.3956
  127loPI   C2B 2030   5.007   9.833   9.346 -0.1347  0.2108  0.0477
  127loPI   C3B 2031   4.917   9.867   8.945  0.3551  0.2304  0.2459
  127loPI   C4B 2032   4.980   9.701   8.528 -0.0537  0.3838 -0.0987
  128loPI    C1 2033   0.120   7.515  11.149 -0.0987  0.1445 -0.1256
  128loPI    C2 2034   0.431   7.765  11.115 -0.0044  0.0538  0.0552
  128loPI    C3 2035   0.150   7.832  11.392 -0.0899  0.0755 -0.0362
  128loPI   PO4 2036   0.092   7.443  10.922 -0.0958 -0.0073  0.3149
  128loPI   GL1 2037  -0.012   7.492  10.412  0.1131  0.0539  0.0590
  128loPI   GL2 2038  -0.378   7.434  10.348  0.0671  0.0204 -0.0004
  128loPI   C1A 2039   0.035   7.592   9.952  0.0081  0.2315 -0.1576
  128loPI   C2A 2040   0.010   7.683   9.508  0.4765 -0.0988  0.2184
  128loPI   C3A 2041   0.028   7.748   9.074 -0.0043  0.1000  0.1435
  128loPI   C4A 2042   0.019   7.788   8.796  0.2362  0.0558 -0.0076
  128loPI   C5A 2043  -0.079   7.797   8.304  0.0085 -0.2022 -0.0306
  128loPI   C6A 2044  -0.090   7.426   8.046  0.2834 -0.0638 -0.0388
  128loPI   C1B 2045  -0.360   7.318   9.945 -0.4272 -0.0612 -0.1093
  128loPI   C2B 2046  -0.380   7.310   9.513  0.1856  0.1704  0.0100
  128loPI   C3B 2047  -0.385   7.392   9.017 -0.1880 -0.0000 -0.0047
  128loPI   C4B 2048  -0.407   7.446   8.495 -0.3416  0.2232 -0.2090
  129loPI    C1 2049  11.754  15.868  11.021  0.2952  0.0428  0.0910
  129loPI    C2 2050  11.484  15.901  11.314 -0.0458 -0.0524 -0.2047
  129loPI    C3 2051  11.874  15.930  11.397 -0.1424  0.0746  0.2314
  129loPI   PO4 2052  11.483  15.767  10.803 -0.1178 -0.1194  0.3313
  129loPI   GL1 2053  11.510  15.648  10.377  0.4856 -0.1022 -0.0940
  129loPI   GL2 2054  11.483  15.997  10.284 -0.0330  0.0942  0.0658
  129loPI   C1A 2055  11.504  15.697   9.865  0.0957  0.0141 -0.0988
  129loPI   C2A 2056  11.634  15.765   9.502 -0.4369 -0.2762 -0.0880
  129loPI   C3A 2057  11.572  15.713   9.047  0.0295 -0.2113 -0.0057
  129loPI   C4A 2058  11.606  15.798   8.646 -0.1718 -0.0506 -0.0537
  129loPI   C5A 2059  11.618  15.698   8.333 -0.0842 -0.0909 -0.1324
  129loPI   C6A 2060  11.537  15.946   8.036 -0.0218  0.1163  0.3175
  129loPI   C1B 2061  11.436  16.166   9.864 -0.0362  0.0105 -0.3442
  129loPI   C2B 2062  11.460  16.321   9.513  0.0216  0.1863 -0.4042
  129loPI   C3B 2063  11.498  16.179   9.134 -0.0523  0.0807  0.1614
  129loPI   C4B 2064  11.437  16.291   8.679  0.1881 -0.0231  0.2081
  130loPI    C1 2065   4.752   9.512  11.163  0.1918 -0.1826 -0.0515
  130loPI    C2 2066   4.479   9.283  11.345  0.0984 -0.0971 -0.0831
  130loPI    C3 2067   4.858   9.158  11.316  0.0752 -0.1909  0.0113
  130loPI   PO4 2068   4.618   9.516  10.922 -0.0954 -0.0541  0.0732
  130loPI   GL1 2069   4.603   9.740  10.561  0.0516 -0.0718 -0.0121
  130loPI   GL2 2070   4.468   9.962  10.657 -0.0375  0.1956  0.0879
  130loPI   C1A 2071   4.617   9.569  10.064 -0.5543 -0.1243 -0.1881
  130loPI   C2A 2072   4.596   9.447   9.640 -0.1153  0.2190 -0.0534
  130loPI   C3A 2073   4.709   9.470   9.179 -0.3841  0.1656 -0.1165
  130loPI   C4A 2074   4.557   9.499   8.809  0.0404  0.1545 -0.1068
  130loPI   C5A 2075   4.500   9.502   8.393  0.1056  0.0156 -0.1775
  130loPI   C6A 2076   4.365   9.252   8.109 -0.1761  0.1469  0.0380
  130loPI   C1B 2077   4.193   9.992  10.393 -0.1143 -0.0582  0.2483
  130loPI   C2B 2078   4.093  10.186   9.998 -0.0097  0.2572  0.1569
  130loPI   C3B 2079   4.122  10.129   9.517 -0.1690 -0.2649 -0.1743
  130loPI   C4B 2080   4.017  10.162   9.010 -0.3080 -0.0407 -0.2607
  131loPI    C1 2081  14.364   7.706  11.048  0.1773  0.0109  0.1174
  131loPI    C2 2082  14.733   7.565  10.983  0.1854  0.0111  0.1630
  131loPI    C3 2083  14.535   7.460  11.313  0.0462 -0.1900  0.0177
  131loPI   PO4 2084  14.198   7.570  10.844  0.0286 -0.0953  0.1576
  131loPI   GL1 2085  14.223   7.603  10.314  0.2378 -0.2772  0.0612
  131loPI   GL2 2086  13.901   7.642  10.095  0.3063  0.1437 -0.2418
  131loPI   C1A 2087  14.370   7.458   9.898  0.2731 -0.0034 -0.2867
  131loPI   C2A 2088  14.421   7.592   9.417 -0.0371  0.1678 -0.1694
  131loPI   C3A 2089  14.507   7.529   9.033 -0.0707  0.1849 -0.1270
  131loPI   C4A 2090  14.424   7.417   8.552  0.1277  0.0559 -0.1491
  131loPI   C5A 2091  14.496   7.183   8.152  0.5095  0.0055 -0.0277
  131loPI   C6A 2092  14.826   7.245   7.886 -0.2527  0.0100  0.1910
  131loPI   C1B 2093  13.976   7.677   9.670  0.0148 -0.0054 -0.1173
  131loPI   C2B 2094  13.883   7.669   9.234  0.0416  0.1641 -0.3076
  131loPI   C3B 2095  14.013   7.662   8.900 -0.0361 -0.1285  0.1265
  131loPI   C4B 2096  13.866   7.570   8.445 -0.0240  0.1639 -0.0239
  132loPI    C1 2097   4.609  13.567  11.361  0.2920  0.1284 -0.1317
  132loPI    C2 2098   4.409  13.758  11.651  0.1875  0.1652 -0.2274
  132loPI    C3 2099   4.601  13.417  11.732 -0.1250 -0.0045 -0.1891
  132loPI   PO4 2100   4.739  13.760  11.242 -0.3745 -0.2154 -0.1641
  132loPI   GL1 2101   4.783  13.820  10.757  0.0059 -0.1532  0.0837
  132loPI   GL2 2102   5.036  14.052  10.654  0.0898  0.1644 -0.1680
  132loPI   C1A 2103   4.687  13.601  10.357  0.1655 -0.0457 -0.1759
  132loPI   C2A 2104   4.670  13.676   9.900  0.1074  0.2836  0.0038
  132loPI   C3A 2105   4.679  13.736   9.496  0.1303 -0.1238  0.0700
  132loPI   C4A 2106   4.657  13.689   9.034  0.0588 -0.1309 -0.0482
  132loPI   C5A 2107   4.616  13.654   8.677 -0.1591  0.0293 -0.0878
  132loPI   C6A 2108   4.367  13.425   8.409  0.2574  0.3805 -0.0222
  132loPI   C1B 2109   4.928  13.999  10.235 -0.0808 -0.0901  0.0721
  132loPI   C2B 2110   5.045  14.003   9.899 -0.1627 -0.0343 -0.1967
  132loPI   C3B 2111   5.017  14.083   9.457  0.0038 -0.1006 -0.0799
  132loPI   C4B 2112   5.069  13.998   9.014 -0.0553 -0.0159  0.3124
  133loPI    C1 2113  12.145   3.446  10.498  0.0069 -0.3076  0.2561
  133loPI    C2 2114  12.365   3.563  10.811 -0.0239 -0.0620  0.1878
  133loPI    C3 2115  12.017   3.743  10.732 -0.0421 -0.1588  0.0429
  133loPI   PO4 2116  12.375   3.309  10.359  0.0085  0.1414  0.1332
  133loPI   GL1 2117  12.502   3.104   9.995 -0.4331 -0.1122  0.0619
  133loPI   GL2 2118  12.529   3.383   9.809  0.0312  0.2276 -0.1830
  133loPI   C1A 2119  12.506   2.985   9.540 -0.4472 -0.0195 -0.0531
  133loPI   C2A 2120  12.524   2.926   9.152  0.0029  0.2923 -0.0307
  133loPI   C3A 2121  12.577   3.028   8.626 -0.0456  0.0663  0.2541
  133loPI   C4A 2122  12.654   2.869   8.172  0.0744 -0.2775  0.1000
  133loPI   C5A 2123  12.590   2.878   7.846  0.1006 -0.3453 -0.2119
  133loPI   C6A 2124  12.209   3.116   7.794 -0.0814  0.1301 -0.1478
  133loPI   C1B 2125  12.425   3.440   9.308  0.1426 -0.1124 -0.2960
  133loPI   C2B 2126  12.366   3.485   8.871  0.2181 -0.1393 -0.2065
  133loPI   C3B 2127  12.459   3.507   8.458 -0.0821  0.1799 -0.3407
  133loPI   C4B 2128  12.521   3.340   8.101  0.3732  0.5132 -0.1136
  134loPI    C1 2129  12.987   8.897  10.800  0.0165  0.0197 -0.2273
  134loPI    C2 2130  13.250   8.612  10.703 -0.0382  0.0033 -0.3296
  134loPI    C3 2131  13.068   8.604  11.059  0.1628  0.0624 -0.2239
  134loPI   PO4 2132  12.786   8.905  10.585 -0.0426  0.0125 -0.2957
  134loPI   GL1 2133  12.590   8.874  10.252  0.0846  0.0824 -0.1860
  134loPI   GL2 2134  12.494   8.486  10.157 -0.0285  0.1199 -0.0329
  134loPI   C1A 2135  12.744   8.936   9.897  0.1417  0.2236  0.1709
  134loPI   C2A 2136  12.816   9.078   9.444 -0.0685  0.3310  0.0044
  134loPI   C3A 2137  12.799   9.061   8.980  0.1949 -0.2879 -0.2831
  134loPI   C4A 2138  12.874   9.026   8.478  0.0363 -0.5161  0.0728
  134loPI   C5A 2139  13.225   9.008   8.171 -0.0486  0.1852  0.0257
  134loPI   C6A 2140  13.350   8.689   7.867  0.0519  0.1206 -0.1300
  134loPI   C1B 2141  12.431   8.620   9.656 -0.2342 -0.1425  0.1718
  134loPI   C2B 2142  12.462   8.728   9.326 -0.0930  0.0536  0.0296
  134loPI   C3B 2143  12.490   8.657   8.881 -0.0081  0.0563  0.0823
  134loPI   C4B 2144  12.470   8.687   8.430  0.1218 -0.2189  0.2018
  135loPI    C1 2145  16.741   8.354  10.815 -0.1226 -0.0409 -0.0486
  135loPI    C2 2146  16.662   7.979  10.932 -0.1436 -0.0290 -0.0246
  135loPI    C3 2147  16.930   8.199  11.131 -0.0941 -0.0487 -0.0695
  135loPI   PO4 2148  16.785   8.372  10.592  0.2154 -0.0405  0.0975
  135loPI   GL1 2149  16.996   8.324  10.248  0.1254  0.1567  0.2933
  135loPI   GL2 2150  17.118   8.129  10.115  0.4545  0.0909  0.2107
  135loPI   C1A 2151  17.130   8.611   9.944 -0.1328 -0.1708 -0.0725
  135loPI   C2A 2152  17.197   8.611   9.506  0.0546 -0.1948  0.0627
  135loPI   C3A 2153  17.076   8.627   9.139  0.2281 -0.2315  0.0476
  135loPI   C4A 2154  17.117   8.645   8.663  0.2609  0.0626  0.0843
  135loPI   C5A 2155  17.111   8.642   8.229  0.2999 -0.1117  0.1871
  135loPI   C6A 2156  17.455   8.739   7.967  0.0060 -0.0965 -0.1667
  135loPI   C1B 2157  17.274   8.038   9.712 -0.0152 -0.0514 -0.0002
  135loPI   C2B 2158  17.242   8.102   9.307  0.0780  0.2222  0.0392
  135loPI   C3B 2159  17.269   8.068   8.994  0.1465 -0.2579  0.0691
  135loPI   C4B 2160  17.214   8.112   8.634  0.0734 -0.3120  0.2180
  136loPI    C1 2161  13.048  13.495  11.049  0.2069 -0.1132 -0.0416
  136loPI    C2 2162  13.257  13.820  11.151 -0.0317  0.0238  0.0181
  136loPI    C3 2163  12.971  13.682  11.394  0.0875 -0.2496  0.0067
  136loPI   PO4 2164  12.993  13.467  10.803 -0.2051  0.0168 -0.2010
  136loPI   GL1 2165  13.010  13.277  10.400  0.0064  0.1731  0.0788
  136loPI   GL2 2166  13.117  12.950  10.162 -0.0438 -0.0533  0.4730
  136loPI   C1A 2167  12.963  13.416   9.938  0.2886  0.2173 -0.0796
  136loPI   C2A 2168  13.014  13.347   9.456 -0.1582  0.2652  0.2180
  136loPI   C3A 2169  12.976  13.308   9.153  0.0084 -0.0608 -0.0680
  136loPI   C4A 2170  13.052  13.314   8.790  0.1653  0.0644 -0.0113
  136loPI   C5A 2171  12.943  13.308   8.413 -0.3381  0.0857 -0.4800
  136loPI   C6A 2172  13.162  13.490   8.115  0.1426  0.4367 -0.1499
  136loPI   C1B 2173  13.095  12.793   9.714 -0.1082  0.0489  0.0624
  136loPI   C2B 2174  13.083  12.816   9.218 -0.2044  0.1696 -0.0145
  136loPI   C3B 2175  13.054  12.850   8.776 -0.1310 -0.0783 -0.1273
  136loPI   C4B 2176  13.073  12.862   8.357 -0.0322  0.1134  0.0140
  137loPI    C1 2177   1.987  13.295  11.345 -0.1163  0.1900 -0.1193
  137loPI    C2 2178   2.373  13.204  11.398 -0.2287 -0.2544 -0.0303
  137loPI    C3 2179   2.200  13.483  11.627  0.0095 -0.1338  0.0058
  137loPI   PO4 2180   2.013  13.367  11.083  0.0384 -0.0491  0.1341
  137loPI   GL1 2181   1.950  13.219  10.583  0.1038 -0.0265 -0.1795
  137loPI   GL2 2182   1.715  13.525  10.673  0.0349 -0.0748 -0.0306
  137loPI   C1A 2183   2.140  13.110  10.201  0.3990  0.0016  0.1172
  137loPI   C2A 2184   2.225  13.160   9.770  0.0123  0.1560 -0.3302
  137loPI   C3A 2185   2.047  13.084   9.360  0.0486 -0.1854  0.0743
  137loPI   C4A 2186   2.112  12.992   8.885 -0.1278 -0.1242 -0.0487
  137loPI   C5A 2187   2.357  12.873   8.427  0.2135 -0.0420  0.1138
  137loPI   C6A 2188   2.540  12.471   8.364 -0.1938  0.3332  0.2379
  137loPI   C1B 2189   1.661  13.432  10.268  0.1944 -0.1105  0.2275
  137loPI   C2B 2190   1.753  13.261   9.914  0.0271 -0.1209 -0.2289
  137loPI   C3B 2191   1.658  13.306   9.480  0.2401  0.1282  0.1651
  137loPI   C4B 2192   1.637  13.156   9.074  0.0802  0.1950 -0.0398
  138loPI    C1 2193  13.946  12.225  10.992  0.1387 -0.1038  0.2927
  138loPI    C2 2194  13.887  12.517  11.259 -0.0567  0.3810 -0.2603
  138loPI    C3 2195  13.598  12.249  11.189  0.1208  0.0426  0.2441
  138loPI   PO4 2196  13.985  12.336  10.717 -0.2075 -0.0188  0.0869
  138loPI   GL1 2197  14.110  12.294  10.298 -0.0346  0.1008 -0.1229
  138loPI   GL2 2198  14.361  12.558  10.454  0.0088 -0.0132  0.4698
  138loPI   C1A 2199  13.974  12.470   9.852  0.1255 -0.2626  0.2236
  138loPI   C2A 2200  13.990  12.431   9.433 -0.0375 -0.1692  0.0016
  138loPI   C3A 2201  14.127  12.428   9.084 -0.1676  0.1033  0.0078
  138loPI   C4A 2202  14.075  12.505   8.623 -0.1282  0.1028  0.0879
  138loPI   C5A 2203  14.417  12.674   8.359  0.1899  0.1055  0.0399
  138loPI   C6A 2204  14.326  13.020   8.167 -0.2303  0.4392  0.0421
  138loPI   C1B 2205  14.315  12.709  10.129 -0.1925  0.0744 -0.1391
  138loPI   C2B 2206  14.500  12.920   9.793 -0.1952  0.3434 -0.1586
  138loPI   C3B 2207  14.476  12.802   9.345 -0.1742 -0.1150  0.0544
  138loPI   C4B 2208  14.456  12.775   8.909 -0.0826  0.3339 -0.0018
  139loPI    C1 2209   3.230   2.868  11.017 -0.0699  0.1609 -0.4865
  139loPI    C2 2210   2.978   3.176  11.057 -0.1245  0.0628 -0.0127
  139loPI    C3 2211   2.838   2.815  10.958 -0.1326  0.0696 -0.0260
  139loPI   PO4 2212   3.426   2.934  10.802  0.3794 -0.2936  0.0386
  139loPI   GL1 2213   3.396   2.933  10.375 -0.1307 -0.1594  0.1242
  139loPI   GL2 2214   3.555   3.085  10.161 -0.1302  0.2549  0.1775
  139loPI   C1A 2215   3.280   2.747   9.871  0.0253  0.0926 -0.1387
  139loPI   C2A 2216   3.334   2.722   9.499 -0.0401  0.2152 -0.0382
  139loPI   C3A 2217   3.292   2.785   9.075 -0.0842 -0.2470  0.3224
  139loPI   C4A 2218   3.233   2.811   8.666 -0.1999  0.3654  0.1183
  139loPI   C5A 2219   3.361   2.741   8.276  0.0910  0.0390  0.2037
  139loPI   C6A 2220   3.407   2.922   7.909  0.1850 -0.1512  0.0851
  139loPI   C1B 2221   3.682   3.132   9.778  0.1621  0.1108  0.3867
  139loPI   C2B 2222   3.661   3.154   9.321  0.2444 -0.0591  0.0877
  139loPI   C3B 2223   3.691   3.030   8.883 -0.1705  0.3580 -0.0321
  139loPI   C4B 2224   3.778   2.664   8.541  0.1514 -0.1278  0.0526
  140loPI    C1 2225   1.009  16.105  11.497  0.0430  0.0150 -0.0365
  140loPI    C2 2226   0.943  16.469  11.346 -0.2389 -0.0548 -0.0875
  140loPI    C3 2227   1.311  16.366  11.465 -0.1696  0.2684 -0.0107
  140loPI   PO4 2228   0.889  15.945  11.298 -0.2274  0.1353  0.0196
  140loPI   GL1 2229   0.959  15.662  10.914  0.0213 -0.0736  0.3069
  140loPI   GL2 2230   1.187  15.539  10.730 -0.2504 -0.1086 -0.2880
  140loPI   C1A 2231   0.962  16.035  10.599  0.2888 -0.1126 -0.0288
  140loPI   C2A 2232   1.073  16.075  10.150 -0.1136  0.0847  0.0760
  140loPI   C3A 2233   1.159  15.960   9.667 -0.0139 -0.2236  0.1118
  140loPI   C4A 2234   1.141  15.967   9.183 -0.0468 -0.0384 -0.2866
  140loPI   C5A 2235   1.117  15.841   8.689 -0.0125  0.1580  0.0127
  140loPI   C6A 2236   1.454  15.613   8.488  0.1153  0.1327 -0.1208
  140loPI   C1B 2237   1.160  15.443  10.326  0.1324  0.1639 -0.0394
  140loPI   C2B 2238   1.228  15.513   9.892  0.2284 -0.0978 -0.1874
  140loPI   C3B 2239   1.242  15.531   9.466  0.1435  0.1099 -0.2421
  140loPI   C4B 2240   1.294  15.495   9.032 -0.0112  0.1634  0.1132
  141loPI    C1 2241  12.158  10.287  10.652 -0.1079  0.0893  0.1172
  141loPI    C2 2242  12.244  10.413  11.022  0.1000  0.0090  0.0973
  141loPI    C3 2243  12.068  10.058  10.967 -0.0215  0.0646  0.1241
  141loPI   PO4 2244  12.348  10.309  10.536  0.1808 -0.0566 -0.0843
  141loPI   GL1 2245  12.478  10.037  10.304  0.0292  0.1994 -0.0881
  141loPI   GL2 2246  12.569   9.689  10.275  0.2092  0.2834  0.0977
  141loPI   C1A 2247  12.634  10.066   9.882 -0.0109 -0.0289 -0.2750
  141loPI   C2A 2248  12.621  10.057   9.400  0.1300  0.0812  0.1470
  141loPI   C3A 2249  12.632  10.152   9.039  0.0687 -0.1894  0.0062
  141loPI   C4A 2250  12.658  10.053   8.674  0.2919 -0.1148  0.1554
  141loPI   C5A 2251  12.541   9.974   8.303 -0.0958  0.0771 -0.1015
  141loPI   C6A 2252  12.522  10.202   7.903  0.0719  0.2122 -0.2151
  141loPI   C1B 2253  12.704   9.497   9.824 -0.0002 -0.0363  0.0697
  141loPI   C2B 2254  12.779   9.595   9.454  0.0957  0.1798 -0.0461
  141loPI   C3B 2255  12.769   9.613   8.973 -0.0487  0.1964  0.0898
  141loPI   C4B 2256  12.747   9.508   8.518 -0.2920  0.0773 -0.0233
  142loPI    C1 2257   8.854  10.267  10.691 -0.2116  0.1402 -0.0717
  142loPI    C2 2258   8.729  10.027  10.986 -0.1605  0.1058 -0.0778
  142loPI    C3 2259   9.113  10.138  10.968 -0.1542  0.0719 -0.1566
  142loPI   PO4 2260   8.791  10.192  10.454  0.0823  0.1310 -0.2647
  142loPI   GL1 2261   8.488  10.386  10.180 -0.0401 -0.1678 -0.4728
  142loPI   GL2 2262   8.818  10.539  10.121 -0.0512  0.1769  0.2005
  142loPI   C1A 2263   8.483  10.676   9.753  0.3128  0.0622  0.2216
  142loPI   C2A 2264   8.563  10.717   9.244  0.3362 -0.1437  0.0455
  142loPI   C3A 2265   8.529  10.613   8.714 -0.0778  0.1652 -0.3743
  142loPI   C4A 2266   8.602  10.601   8.287 -0.2108 -0.0354 -0.1576
  142loPI   C5A 2267   8.549  10.224   7.969 -0.1716  0.0500  0.0465
  142loPI   C6A 2268   8.329  10.037   7.570  0.0229 -0.1003  0.2381
  142loPI   C1B 2269   8.975  10.561   9.700  0.1782  0.0255 -0.1502
  142loPI   C2B 2270   9.033  10.534   9.298  0.3767 -0.1312  0.2268
  142loPI   C3B 2271   8.954  10.520   8.879 -0.1325  0.1568 -0.1820
  142loPI   C4B 2272   9.105  10.458   8.460 -0.2679 -0.1566 -0.0080
  143loPI    C1 2273  16.724   4.740  10.520  0.0125  0.1167 -0.0528
  143loPI    C2 2274  16.563   4.554  10.835  0.1395  0.0506 -0.0260
  143loPI    C3 2275  16.639   4.946  10.851  0.2217  0.0316  0.0558
  143loPI   PO4 2276  16.663   4.436  10.326  0.1077  0.1312  0.0883
  143loPI   GL1 2277  16.827   4.520   9.990 -0.1318  0.0089  0.2736
  143loPI   GL2 2278  17.036   4.306   9.818  0.0663  0.1649  0.2056
  143loPI   C1A 2279  16.875   4.807   9.654  0.1142  0.0763  0.1064
  143loPI   C2A 2280  16.883   4.873   9.253 -0.0723 -0.1620 -0.1351
  143loPI   C3A 2281  16.816   4.653   8.804 -0.1952  0.0177  0.0194
  143loPI   C4A 2282  16.868   4.830   8.393  0.1269 -0.0271  0.5034
  143loPI   C5A 2283  16.806   5.102   8.055  0.2057  0.2675 -0.2509
  143loPI   C6A 2284  16.837   5.489   7.740  0.1127  0.3169  0.1343
  143loPI   C1B 2285  16.896   4.259   9.386 -0.1036 -0.1582 -0.2838
  143loPI   C2B 2286  16.946   4.200   8.869 -0.1621  0.1369  0.1219
  143loPI   C3B 2287  16.890   4.258   8.410 -0.2399  0.1091  0.1019
  143loPI   C4B 2288  16.758   4.171   7.927  0.2484 -0.2990  0.1018
  144loPI    C1 2289  13.550  12.779  11.011 -0.1977  0.2913 -0.1557
  144loPI    C2 2290  13.843  13.009  11.155  0.0911 -0.0976 -0.1070
  144loPI    C3 2291  13.540  12.901  11.392 -0.0012  0.1564 -0.1061
  144loPI   PO4 2292  13.633  12.669  10.823 -0.5541 -0.0092 -0.1586
  144loPI   GL1 2293  13.636  12.573  10.427 -0.0561 -0.0202  0.3631
  144loPI   GL2 2294  13.897  12.730  10.328 -0.1612 -0.0098  0.3006
  144loPI   C1A 2295  13.519  12.692  10.001  0.0399  0.1775  0.0817
  144loPI   C2A 2296  13.544  12.613   9.615 -0.1290  0.1760 -0.0000
  144loPI   C3A 2297  13.568  12.621   9.259  0.1296  0.3844  0.0256
  144loPI   C4A 2298  13.559  12.635   8.861 -0.1942  0.2495  0.2759
  144loPI   C5A 2299  13.630  12.547   8.446  0.0626  0.2913  0.0597
  144loPI   C6A 2300  13.455  12.518   7.986  0.0275  0.3731 -0.0108
  144loPI   C1B 2301  13.919  12.969   9.934  0.3037  0.0560  0.1008
  144loPI   C2B 2302  13.933  12.929   9.554  0.0549 -0.0260  0.2867
  144loPI   C3B 2303  13.913  12.932   9.092 -0.2255  0.1432 -0.1904
  144loPI   C4B 2304  14.022  12.958   8.683  0.4167 -0.2166  0.1108
  145loPI    C1 2305  10.769   5.501  10.698  0.0582 -0.1119 -0.0315
  145loPI    C2 2306  10.605   5.309  11.009 -0.0607 -0.0458 -0.0530
  145loPI    C3 2307  10.763   5.673  11.059 -0.2298  0.0358 -0.1042
  145loPI   PO4 2308  10.608   5.467  10.401 -0.1253  0.0325  0.2304
  145loPI   GL1 2309  10.698   5.468   9.967  0.2323 -0.0640 -0.2581
  145loPI   GL2 2310  10.484   5.644   9.795 -0.4633  0.1618  0.0556
  145loPI   C1A 2311  10.985   5.378   9.629 -0.1047  0.0399  0.1418
  145loPI   C2A 2312  11.095   5.413   9.179 -0.2377  0.0408 -0.1037
  145loPI   C3A 2313  11.102   5.263   8.813  0.1101 -0.1355  0.0696
  145loPI   C4A 2314  11.122   5.297   8.326 -0.1382 -0.0903  0.1238
  145loPI   C5A 2315  10.987   5.380   7.843  0.0238 -0.0703  0.0317
  145loPI   C6A 2316  11.095   5.520   7.429  0.2979  0.1359  0.2354
  145loPI   C1B 2317  10.526   5.620   9.363 -0.1106  0.1028 -0.0013
  145loPI   C2B 2318  10.671   5.565   9.015  0.2581 -0.0604  0.0758
  145loPI   C3B 2319  10.625   5.555   8.575  0.3770 -0.0199 -0.1163
  145loPI   C4B 2320  10.627   5.448   8.183 -0.3072 -0.2842 -0.0835
  146loPI    C1 2321  17.723  17.609  11.001  0.0126 -0.0769  0.0830
  146loPI    C2 2322  17.535  17.878  11.230  0.1428  0.0683  0.0206
  146loPI    C3 2323  17.676  17.540  11.392  0.0922  0.0961  0.1237
  146loPI   PO4 2324  17.634  17.709  10.737 -0.1655  0.0346 -0.1954
  146loPI   GL1 2325  17.767  17.701  10.325 -0.0862  0.1908  0.4362
  146loPI   GL2 2326  17.856  18.018  10.161  0.2539  0.2765  0.0539
  146loPI   C1A 2327  17.537  17.528   9.942 -0.4283  0.1514 -0.0309
  146loPI   C2A 2328  17.570  17.389   9.536  0.1349  0.1943  0.0761
  146loPI   C3A 2329  17.550  17.339   9.102  0.2132 -0.0569  0.1957
  146loPI   C4A 2330  17.601  17.400   8.637 -0.3516 -0.0911  0.1320
  146loPI   C5A 2331  17.443  17.300   8.258  0.0564 -0.1559  0.0095
  146loPI   C6A 2332  17.736  17.461   7.972  0.0211 -0.0688 -0.1962
  146loPI   C1B 2333  17.910  17.788   9.741  0.0674  0.3577 -0.3277
  146loPI   C2B 2334  17.908  17.731   9.328 -0.0897 -0.3392 -0.0796
  146loPI   C3B 2335  17.934  17.747   8.971  0.3814  0.2986 -0.0436
  146loPI   C4B 2336  17.972  17.713   8.472 -0.0738 -0.0660 -0.3536
  147loPI    C1 2337   2.843   4.066  10.755  0.0130  0.0831  0.1143
  147loPI    C2 2338   2.922   4.441  10.867 -0.4967  0.2233  0.0326
  147loPI    C3 2339   2.912   4.149  11.140 -0.2115  0.2859  0.1135
  147loPI   PO4 2340   2.863   4.070  10.498 -0.1832 -0.1369  0.2869
  147loPI   GL1 2341   2.686   4.009  10.034 -0.1125 -0.1923  0.1508
  147loPI   GL2 2342   2.588   4.355  10.022  0.2497  0.0632 -0.2516
  147loPI   C1A 2343   2.630   4.037   9.578  0.2178 -0.1838 -0.3415
  147loPI   C2A 2344   2.639   4.012   9.109 -0.0161  0.0478  0.1476
  147loPI   C3A 2345   2.599   4.130   8.751 -0.2685  0.0045 -0.2770
  147loPI   C4A 2346   2.624   4.026   8.319 -0.0536 -0.0936 -0.1196
  147loPI   C5A 2347   2.394   3.822   8.026 -0.0512  0.3806  0.1528
  147loPI   C6A 2348   1.938   3.920   7.989 -0.1066 -0.0815 -0.1129
  147loPI   C1B 2349   2.540   4.530   9.648  0.0243 -0.1270 -0.1599
  147loPI   C2B 2350   2.549   4.626   9.148 -0.1227  0.2034  0.3414
  147loPI   C3B 2351   2.387   4.585   8.806  0.0508 -0.3132 -0.1171
  147loPI   C4B 2352   2.590   4.539   8.342 -0.0698  0.0349 -0.2158
  148loPI    C1 2353  13.495   4.304  10.663 -0.0616  0.0127  0.0485
  148loPI    C2 2354  13.808   4.534  10.758  0.1180 -0.1063 -0.2418
  148loPI    C3 2355  13.653   4.285  11.030  0.2321  0.0015 -0.0759
  148loPI   PO4 2356  13.622   4.316  10.350 -0.1028 -0.2736  0.2004
  148loPI   GL1 2357  13.860   4.131   9.990  0.0230  0.1991 -0.2087
  148loPI   GL2 2358  13.522   4.064   9.950  0.1305  0.1581 -0.2210
  148loPI   C1A 2359  13.848   3.963   9.571 -0.0074 -0.1450 -0.0099
  148loPI   C2A 2360  13.732   3.941   9.115  0.0842 -0.0526  0.2607
  148loPI   C3A 2361  13.815   3.984   8.736 -0.0729  0.3097 -0.1394
  148loPI   C4A 2362  13.846   3.970   8.317 -0.0571 -0.1872 -0.3213
  148loPI   C5A 2363  13.884   3.854   7.956 -0.2555  0.0524  0.0523
  148loPI   C6A 2364  13.620   3.612   7.811  0.1130 -0.1081 -0.0148
  148loPI   C1B 2365  13.584   4.354   9.682  0.2166 -0.3042 -0.0107
  148loPI   C2B 2366  13.836   4.415   9.333  0.0323 -0.2294 -0.0864
  148loPI   C3B 2367  13.739   4.437   8.979 -0.0891  0.0305 -0.1076
  148loPI   C4B 2368  13.724   4.460   8.552  0.1280  0.1392  0.0883
  149loPI    C1 2369  16.004   1.686  10.647  0.0513  0.0041 -0.0247
  149loPI    C2 2370  15.920   1.900  10.975 -0.0449  0.0182 -0.0581
  149loPI    C3 2371  15.637   1.672  10.807  0.0335 -0.0703 -0.0714
  149loPI   PO4 2372  16.154   1.895  10.456 -0.2754 -0.1999  0.1316
  149loPI   GL1 2373  15.917   2.136  10.123 -0.0005  0.1222 -0.0491
  149loPI   GL2 2374  15.572   2.294  10.147  0.0044 -0.0536 -0.0047
  149loPI   C1A 2375  15.929   2.287   9.694  0.1470  0.2600 -0.2087
  149loPI   C2A 2376  15.833   2.174   9.279  0.0184 -0.1633 -0.0301
  149loPI   C3A 2377  15.912   2.221   8.938  0.2003 -0.0901  0.1618
  149loPI   C4A 2378  16.028   2.195   8.519 -0.1960  0.0236 -0.0898
  149loPI   C5A 2379  15.882   2.136   8.188  0.0643 -0.0994  0.0803
  149loPI   C6A 2380  15.744   2.252   7.784  0.0405 -0.0780  0.5092
  149loPI   C1B 2381  15.403   2.412   9.674 -0.1530 -0.0081  0.2515
  149loPI   C2B 2382  15.371   2.399   9.248 -0.1625 -0.1326  0.2406
  149loPI   C3B 2383  15.401   2.402   8.682  0.2787  0.0250  0.0507
  149loPI   C4B 2384  15.432   2.369   8.215 -0.2302  0.3530  0.1740
  150loPI    C1 2385  10.042  15.834  10.854  0.0190  0.1376  0.1840
  150loPI    C2 2386  10.277  16.050  11.095  0.1026  0.1221  0.1167
  150loPI    C3 2387  10.093  15.723  11.235  0.0829  0.1614  0.1825
  150loPI   PO4 2388   9.972  15.911  10.694 -0.0117  0.0681 -0.1815
  150loPI   GL1 2389  10.238  15.860  10.344  0.4031  0.0098 -0.1186
  150loPI   GL2 2390  10.287  15.562  10.174 -0.0685  0.1492 -0.0229
  150loPI   C1A 2391  10.158  15.857   9.841 -0.1772 -0.0910 -0.1577
  150loPI   C2A 2392  10.232  15.776   9.391  0.1365  0.0218 -0.2502
  150loPI   C3A 2393  10.305  15.617   8.989  0.0066  0.0212  0.3935
  150loPI   C4A 2394  10.309  15.736   8.531  0.1304 -0.2451  0.0716
  150loPI   C5A 2395  10.174  15.575   8.152 -0.1007  0.0492 -0.0257
  150loPI   C6A 2396   9.820  15.789   7.904  0.1703 -0.0410  0.2016
  150loPI   C1B 2397  10.599  15.616   9.823  0.0677  0.0526 -0.3362
  150loPI   C2B 2398  10.773  15.517   9.339  0.0419 -0.0394 -0.1955
  150loPI   C3B 2399  10.757  15.507   8.859 -0.1476  0.0518 -0.1060
  150loPI   C4B 2400  10.698  15.511   8.348  0.0366  0.0555 -0.3266
  151loPI    C1 2401  12.752  14.384  10.839  0.2225 -0.1212 -0.1347
  151loPI    C2 2402  13.057  14.349  11.095  0.1683 -0.1221 -0.0698
  151loPI    C3 2403  12.719  14.144  11.157  0.0444  0.1066  0.0225
  151loPI   PO4 2404  12.769  14.345  10.517 -0.0291  0.0019  0.0008
  151loPI   GL1 2405  12.690  14.158  10.086  0.3390 -0.4559 -0.1565
  151loPI   GL2 2406  13.068  14.299  10.089 -0.0909  0.0693  0.0525
  151loPI   C1A 2407  12.800  13.889   9.871  0.0549 -0.1495  0.1873
  151loPI   C2A 2408  12.970  13.810   9.460  0.2249 -0.1399  0.1681
  151loPI   C3A 2409  12.906  13.805   9.024  0.1922  0.0113  0.1783
  151loPI   C4A 2410  12.790  13.732   8.607 -0.3330 -0.0864 -0.0400
  151loPI   C5A 2411  12.787  13.846   8.199 -0.2791 -0.1673  0.3104
  151loPI   C6A 2412  12.881  13.814   7.745  0.0855  0.3225 -0.1927
  151loPI   C1B 2413  13.224  14.254   9.731  0.2012 -0.0605  0.1165
  151loPI   C2B 2414  13.278  14.233   9.327  0.1077 -0.3197  0.3212
  151loPI   C3B 2415  13.281  14.129   8.928  0.0295 -0.2374  0.1198
  151loPI   C4B 2416  13.117  14.131   8.474 -0.2902  0.1451 -0.2258
  152loPI    C1 2417   3.471  15.608  11.024  0.0759 -0.1801  0.1582
  152loPI    C2 2418   3.304  15.504  11.372 -0.1235 -0.0637  0.0995
  152loPI    C3 2419   3.494  15.854  11.339  0.1343 -0.1944  0.1652
  152loPI   PO4 2420   3.344  15.462  10.825  0.0578 -0.0412  0.0812
  152loPI   GL1 2421   3.366  15.832  10.510 -0.0256 -0.2529 -0.0961
  152loPI   GL2 2422   3.346  16.135  10.489  0.0104  0.0210  0.2702
  152loPI   C1A 2423   3.395  15.587  10.199 -0.1350 -0.2166  0.0627
  152loPI   C2A 2424   3.419  15.639   9.752 -0.1019 -0.2374 -0.3367
  152loPI   C3A 2425   3.445  15.628   9.338 -0.1712 -0.1213 -0.1024
  152loPI   C4A 2426   3.545  15.549   8.886  0.1935  0.3429  0.0358
  152loPI   C5A 2427   3.604  15.258   8.468  0.0404 -0.0748 -0.3614
  152loPI   C6A 2428   3.652  15.510   8.184 -0.0879 -0.2897 -0.1514
  152loPI   C1B 2429   3.359  16.086  10.086 -0.2391  0.2300 -0.1625
  152loPI   C2B 2430   3.319  16.130   9.591  0.1165  0.2320 -0.0270
  152loPI   C3B 2431   3.365  16.252   9.137  0.0896 -0.1176 -0.2388
  152loPI   C4B 2432   3.315  16.201   8.629 -0.2334 -0.0381  0.0507
  153loPI    C1 2433  12.952   1.081  10.716 -0.1688 -0.0591 -0.1101
  153loPI    C2 2434  12.757   0.732  10.696  0.1673 -0.2733  0.2133
  153loPI    C3 2435  12.643   1.009  10.961  0.0363 -0.2230  0.1056
  153loPI   PO4 2436  12.956   1.188  10.529  0.0445  0.0169  0.2355
  153loPI   GL1 2437  12.933   1.516  10.198 -0.2099  0.0609  0.0698
  153loPI   GL2 2438  12.519   1.464  10.227  0.1348 -0.2167 -0.0801
  153loPI   C1A 2439  12.809   1.550   9.829 -0.0863  0.3395  0.0826
  153loPI   C2A 2440  12.774   1.518   9.364 -0.2349  0.1344 -0.0063
  153loPI   C3A 2441  12.787   1.444   9.013  0.1505 -0.0525 -0.3309
  153loPI   C4A 2442  12.869   1.397   8.499  0.0305 -0.0081 -0.0302
  153loPI   C5A 2443  12.893   1.519   8.086  0.0741 -0.1433  0.0044
  153loPI   C6A 2444  12.819   1.853   7.760  0.0630  0.0513 -0.3212
  153loPI   C1B 2445  12.277   1.649   9.939  0.0108 -0.2932 -0.0544
  153loPI   C2B 2446  12.346   1.737   9.539 -0.1709  0.0271 -0.1201
  153loPI   C3B 2447  12.379   1.663   9.068 -0.0324  0.4616 -0.1971
  153loPI   C4B 2448  12.356   1.503   8.630 -0.1832  0.0708  0.0407
  154loPI    C1 2449   4.029   8.501  10.820  0.1781 -0.0365  0.0122
  154loPI    C2 2450   4.306   8.693  11.035  0.0820  0.0345  0.0736
  154loPI    C3 2451   4.092   8.399  11.201  0.0793  0.0195  0.0438
  154loPI   PO4 2452   4.145   8.371  10.579 -0.0901 -0.5369  0.0496
  154loPI   GL1 2453   4.052   8.339  10.168 -0.5329 -0.1374 -0.1022
  154loPI   GL2 2454   4.249   8.607  10.109  0.1273  0.1581 -0.1719
  154loPI   C1A 2455   4.001   8.318   9.758  0.4612 -0.0453 -0.1861
  154loPI   C2A 2456   4.008   8.258   9.341 -0.1180  0.1608  0.1288
  154loPI   C3A 2457   4.047   8.205   8.890  0.0291  0.1016  0.1741
  154loPI   C4A 2458   4.265   8.326   8.401 -0.0982 -0.0065  0.0403
  154loPI   C5A 2459   4.542   8.580   8.053  0.0497  0.1181  0.3721
  154loPI   C6A 2460   4.583   8.761   7.648  0.0152 -0.0338 -0.1689
  154loPI   C1B 2461   4.391   8.625   9.682  0.1759 -0.2154 -0.1548
  154loPI   C2B 2462   4.346   8.639   9.183  0.2988  0.1380  0.4954
  154loPI   C3B 2463   4.408   8.589   8.797 -0.1327  0.1995  0.3178
  154loPI   C4B 2464   4.359   8.803   8.432 -0.2060  0.0528 -0.2616
  155loPI    C1 2465   6.717   8.632  10.647  0.1413  0.0986 -0.0817
  155loPI    C2 2466   7.082   8.697  10.498  0.2221 -0.0515  0.0480
  155loPI    C3 2467   6.995   8.810  10.871  0.1575 -0.0799  0.0418
  155loPI   PO4 2468   6.591   8.617  10.480 -0.0343  0.3065 -0.0081
  155loPI   GL1 2469   6.675   8.794  10.146  0.0607  0.2263  0.0938
  155loPI   GL2 2470   6.818   8.515  10.070  0.0717  0.3348  0.0043
  155loPI   C1A 2471   6.640   8.770   9.672  0.0272  0.0152  0.2006
  155loPI   C2A 2472   6.677   8.866   9.235 -0.0219  0.1057  0.0277
  155loPI   C3A 2473   6.584   8.852   8.842  0.1380 -0.2348  0.2355
  155loPI   C4A 2474   6.642   8.834   8.435 -0.1632  0.4466  0.1043
  155loPI   C5A 2475   6.637   8.941   8.089 -0.0357  0.2432 -0.1406
  155loPI   C6A 2476   6.757   9.265   7.878 -0.0667  0.1670 -0.1150
  155loPI   C1B 2477   6.843   8.281   9.727  0.2464 -0.0096  0.0750
  155loPI   C2B 2478   6.805   8.330   9.268  0.0234  0.0757 -0.1627
  155loPI   C3B 2479   6.776   8.362   8.862  0.2072  0.0767 -0.2409
  155loPI   C4B 2480   6.819   8.314   8.484 -0.3031  0.0365  0.2783
  156loPI    C1 2481   0.774  14.460  11.615 -0.0915  0.1199 -0.0778
  156loPI    C2 2482   0.883  14.751  11.865 -0.0924  0.1039 -0.0588
  156loPI    C3 2483   0.572  14.517  11.955  0.1088 -0.1136  0.0843
  156loPI   PO4 2484   0.775  14.617  11.383  0.2981 -0.0918  0.2334
  156loPI   GL1 2485   0.815  14.717  10.961 -0.2657  0.1813  0.2783
  156loPI   GL2 2486   0.438  14.652  10.753  0.1970  0.1758 -0.0446
  156loPI   C1A 2487   0.995  14.683  10.537 -0.3301  0.0332 -0.0606
  156loPI   C2A 2488   0.934  14.634  10.066  0.2995 -0.4366  0.1093
  156loPI   C3A 2489   0.918  14.674   9.678 -0.0440 -0.0223 -0.0759
  156loPI   C4A 2490   0.951  14.537   9.240  0.2495 -0.0280  0.1690
  156loPI   C5A 2491   0.953  14.548   8.776 -0.4432  0.4586  0.1811
  156loPI   C6A 2492   0.845  14.474   8.376 -0.1837 -0.2760  0.1223
  156loPI   C1B 2493   0.558  14.788  10.332 -0.0058  0.2822  0.1307
  156loPI   C2B 2494   0.463  14.810   9.927  0.0019 -0.0819 -0.1452
  156loPI   C3B 2495   0.516  14.753   9.411  0.0784  0.0424 -0.4642
  156loPI   C4B 2496   0.501  14.645   8.945  0.0821  0.1204  0.1235
  157loPI    C1 2497   9.142   9.684  10.723 -0.0077 -0.0511 -0.0033
  157loPI    C2 2498   8.844   9.623  10.464  0.1579 -0.0984 -0.1844
  157loPI    C3 2499   8.789   9.545  10.852 -0.0624 -0.1140 -0.2171
  157loPI   PO4 2500   9.296   9.874  10.571 -0.0288 -0.1120  0.0334
  157loPI   GL1 2501   9.217   9.793  10.117  0.2568 -0.1084  0.1690
  157loPI   GL2 2502   8.948  10.068   9.916 -0.1500  0.1257  0.0494
  157loPI   C1A 2503   9.411   9.807   9.705 -0.1878 -0.0901 -0.2301
  157loPI   C2A 2504   9.518   9.820   9.265  0.1734 -0.1741 -0.1602
  157loPI   C3A 2505   9.521   9.785   8.841 -0.0299 -0.1110  0.3145
  157loPI   C4A 2506   9.512   9.753   8.432 -0.0484 -0.3507 -0.4979
  157loPI   C5A 2507   9.612   9.720   8.074 -0.0858  0.0367  0.3109
  157loPI   C6A 2508   9.881   9.881   7.787 -0.0580 -0.0010 -0.0536
  157loPI   C1B 2509   9.022  10.066   9.507 -0.2242 -0.5023 -0.1504
  157loPI   C2B 2510   9.144  10.089   9.105 -0.0053  0.0567 -0.1490
  157loPI   C3B 2511   9.132  10.010   8.616  0.2139 -0.3002  0.1984
  157loPI   C4B 2512   9.128   9.975   8.110 -0.2656  0.2575  0.1269
  158loPI    C1 2513  11.790  15.400  10.887 -0.1433  0.1300  0.0235
  158loPI    C2 2514  12.043  15.120  11.016 -0.1439  0.1256  0.0157
  158loPI    C3 2515  11.978  15.446  11.237 -0.1683  0.1043  0.0403
  158loPI   PO4 2516  11.924  15.462  10.543  0.0531  0.0787 -0.3244
  158loPI   GL1 2517  11.983  15.540  10.198 -0.0729  0.1090  0.1658
  158loPI   GL2 2518  11.790  15.272  10.097  0.0819 -0.0963 -0.0909
  158loPI   C1A 2519  12.031  15.596   9.819  0.1367  0.0776  0.1628
  158loPI   C2A 2520  12.066  15.506   9.359  0.1011 -0.0752 -0.0366
  158loPI   C3A 2521  12.139  15.525   8.955 -0.1432  0.4329 -0.0371
  158loPI   C4A 2522  12.074  15.512   8.615  0.0053 -0.0789  0.1313
  158loPI   C5A 2523  12.127  15.636   8.178  0.3194  0.0304 -0.2072
  158loPI   C6A 2524  11.985  15.963   7.845 -0.0267 -0.0391  0.1311
  158loPI   C1B 2525  11.634  15.209   9.646  0.1472 -0.0056  0.0412
  158loPI   C2B 2526  11.651  15.227   9.235 -0.1419  0.2379 -0.1121
  158loPI   C3B 2527  11.659  15.261   8.860 -0.1191 -0.0597 -0.0152
  158loPI   C4B 2528  11.713  15.212   8.421 -0.0932  0.0580  0.1203
  159loPI    C1 2529   8.263  12.405  10.918  0.0523 -0.0416  0.0764
  159loPI    C2 2530   7.974  12.601  11.112  0.2150  0.0890  0.1892
  159loPI    C3 2531   8.077  12.232  11.226 -0.0478 -0.0408  0.0170
  159loPI   PO4 2532   8.163  12.441  10.621  0.3930  0.0945 -0.2580
  159loPI   GL1 2533   8.210  12.698  10.299 -0.3551 -0.3246  0.0758
  159loPI   GL2 2534   8.454  12.880  10.192 -0.1743 -0.0244  0.2747
  159loPI   C1A 2535   8.080  12.604   9.861 -0.0536  0.1442  0.0018
  159loPI   C2A 2536   8.098  12.656   9.429  0.0995  0.0962 -0.1593
  159loPI   C3A 2537   8.081  12.556   9.062 -0.2493  0.1044 -0.1057
  159loPI   C4A 2538   8.117  12.588   8.601  0.1388  0.0293  0.0949
  159loPI   C5A 2539   8.264  12.562   8.202 -0.0640  0.2663 -0.0994
  159loPI   C6A 2540   8.269  12.585   7.741  0.0857 -0.0606  0.2623
  159loPI   C1B 2541   8.488  12.996   9.724 -0.2667 -0.2033  0.0885
  159loPI   C2B 2542   8.525  13.012   9.353 -0.0517  0.0106 -0.0687
  159loPI   C3B 2543   8.512  12.988   8.913 -0.1451  0.2761 -0.0421
  159loPI   C4B 2544   8.548  12.904   8.359 -0.2238 -0.2210  0.2254
  160loPI    C1 2545  14.490   0.953  10.808 -0.2741  0.0069  0.0178
  160loPI    C2 2546  14.574   0.694  11.101 -0.0707  0.1690  0.1057
  160loPI    C3 2547  14.357   1.021  11.179 -0.3337  0.0239 -0.0066
  160loPI   PO4 2548  14.494   0.777  10.613  0.0862  0.0120 -0.3674
  160loPI   GL1 2549  14.413   0.880  10.199  0.0831 -0.1329  0.2145
  160loPI   GL2 2550  14.145   0.866  10.089  0.0506 -0.0200  0.2195
  160loPI   C1A 2551  14.655   0.779   9.852 -0.1141  0.1177 -0.0882
  160loPI   C2A 2552  14.665   0.759   9.415  0.0694 -0.1666 -0.0593
  160loPI   C3A 2553  14.755   0.773   9.073 -0.0676  0.0700  0.2583
  160loPI   C4A 2554  14.780   0.689   8.650 -0.1106 -0.4014  0.2926
  160loPI   C5A 2555  14.871   0.922   8.285  0.1259  0.0857 -0.2841
  160loPI   C6A 2556  14.607   0.824   8.026  0.2080  0.1707  0.0041
  160loPI   C1B 2557  14.254   0.937   9.643 -0.1525  0.0372 -0.1177
  160loPI   C2B 2558  14.283   0.944   9.150  0.2715  0.1009  0.2539
  160loPI   C3B 2559  14.307   0.802   8.763 -0.0547  0.3497 -0.2761
  160loPI   C4B 2560  14.223   0.859   8.416 -0.1640 -0.0039  0.0654
  161loPI    C1 2561   0.096   0.421  10.689  0.2531  0.2932  0.1773
  161loPI    C2 2562  -0.192   0.305  10.941  0.1823  0.2759  0.0887
  161loPI    C3 2563   0.185   0.185  11.000  0.0996 -0.0598 -0.0410
  161loPI   PO4 2564  -0.096   0.449  10.447 -0.3366  0.0566 -0.0484
  161loPI   GL1 2565   0.141   0.409  10.134 -0.1446 -0.0259 -0.1661
  161loPI   GL2 2566   0.079   0.093  10.214  0.0777 -0.2975  0.0961
  161loPI   C1A 2567   0.480   0.347   9.794  0.1959  0.2005  0.0850
  161loPI   C2A 2568   0.577   0.315   9.362  0.0221 -0.1607 -0.1822
  161loPI   C3A 2569   0.607   0.412   8.886  0.0979  0.0606  0.1021
  161loPI   C4A 2570   0.445   0.319   8.445  0.2234 -0.1672 -0.2369
  161loPI   C5A 2571   0.457   0.248   8.031  0.0701 -0.1742  0.1733
  161loPI   C6A 2572   0.066   0.165   7.809 -0.2544  0.1649  0.0910
  161loPI   C1B 2573   0.104   0.030   9.796  0.1604 -0.0268 -0.2559
  161loPI   C2B 2574   0.174   0.004   9.287  0.3070 -0.0295 -0.2194
  161loPI   C3B 2575   0.073   0.068   8.798 -0.1034 -0.0480  0.3848
  161loPI   C4B 2576   0.158  -0.087   8.373 -0.2729  0.0766 -0.0220
  162loPI    C1 2577   0.996  13.459  11.307  0.0283 -0.0034  0.1039
  162loPI    C2 2578   1.123  13.098  11.426  0.3641 -0.0873 -0.4709
  162loPI    C3 2579   1.287  13.429  11.580  0.0896 -0.1706  0.0216
  162loPI   PO4 2580   0.980  13.461  11.015 -0.0119 -0.2355 -0.2935
  162loPI   GL1 2581   1.070  13.310  10.749  0.2975 -0.0807  0.3866
  162loPI   GL2 2582   1.344  13.091  10.675 -0.1384 -0.1073  0.0062
  162loPI   C1A 2583   1.128  13.498  10.379 -0.0427 -0.0791 -0.2325
  162loPI   C2A 2584   1.287  13.476   9.955  0.0710 -0.0120  0.0817
  162loPI   C3A 2585   1.172  13.399   9.499 -0.1422 -0.1768 -0.2612
  162loPI   C4A 2586   1.199  13.469   9.149  0.2481  0.1152 -0.1238
  162loPI   C5A 2587   1.441  13.443   8.733  0.1983  0.3360  0.0930
  162loPI   C6A 2588   1.654  13.116   8.554 -0.1582  0.1521 -0.0321
  162loPI   C1B 2589   1.267  13.009  10.234 -0.1203 -0.0062  0.2155
  162loPI   C2B 2590   1.337  13.015   9.758 -0.0337  0.1753 -0.1396
  162loPI   C3B 2591   1.259  12.962   9.282 -0.0383  0.1278  0.0277
  162loPI   C4B 2592   1.276  12.974   8.829  0.1730 -0.1046 -0.2573
  163loPI    C1 2593   3.687   1.460  11.579  0.0708 -0.0379  0.0306
  163loPI    C2 2594   3.370   1.288  11.751  0.1833 -0.0886  0.1897
  163loPI    C3 2595   3.739   1.162  11.841  0.2452 -0.1008 -0.0734
  163loPI   PO4 2596   3.624   1.509  11.330 -0.0563  0.4508  0.0549
  163loPI   GL1 2597   3.959   1.546  10.900 -0.0141 -0.2794 -0.3091
  163loPI   GL2 2598   4.239   1.434  10.829 -0.2317 -0.1854  0.0887
  163loPI   C1A 2599   3.907   1.657  10.449  0.2591 -0.3606 -0.1039
  163loPI   C2A 2600   3.991   1.553   9.986  0.4327 -0.0208  0.5253
  163loPI   C3A 2601   3.813   1.517   9.482 -0.2550  0.0876 -0.1979
  163loPI   C4A 2602   3.938   1.590   9.045  0.0202  0.0162 -0.1509
  163loPI   C5A 2603   3.949   1.624   8.608 -0.3147  0.2732 -0.3376
  163loPI   C6A 2604   3.498   1.584   8.324  0.0787 -0.2011  0.1106
  163loPI   C1B 2605   4.342   1.395  10.333  0.1403 -0.0560 -0.1965
  163loPI   C2B 2606   4.410   1.379   9.942  0.1654  0.0331  0.1009
  163loPI   C3B 2607   4.449   1.359   9.513  0.0370 -0.3432  0.0624
  163loPI   C4B 2608   4.454   1.409   9.011 -0.0507 -0.2706  0.0901
  164loPI    C1 2609   9.530   3.071  10.694  0.1384 -0.0670 -0.0772
  164loPI    C2 2610   9.205   3.040  10.924 -0.0902  0.1739 -0.3600
  164loPI    C3 2611   9.512   2.790  10.977 -0.2332  0.0777  0.0487
  164loPI   PO4 2612   9.453   3.047  10.474  0.1585 -0.0247 -0.0155
  164loPI   GL1 2613   9.342   2.910  10.121  0.1529  0.3815  0.1150
  164loPI   GL2 2614   9.522   2.653  10.055  0.1045 -0.3657  0.1601
  164loPI   C1A 2615   9.187   2.787   9.704  0.2809 -0.2769  0.1005
  164loPI   C2A 2616   9.283   2.697   9.271  0.2003  0.0889  0.2254
  164loPI   C3A 2617   9.413   2.708   8.821  0.0082  0.0888 -0.0455
  164loPI   C4A 2618   9.331   2.560   8.420  0.0753  0.0189 -0.1227
  164loPI   C5A 2619   9.313   2.724   8.069  0.2477 -0.5782  0.1166
  164loPI   C6A 2620   9.289   2.965   7.661  0.0524  0.0188 -0.0792
  164loPI   C1B 2621   9.719   2.624   9.635  0.0136  0.0849  0.0213
  164loPI   C2B 2622   9.805   2.533   9.247 -0.3055  0.1544 -0.1100
  164loPI   C3B 2623   9.885   2.517   8.792 -0.1627 -0.2161  0.1664
  164loPI   C4B 2624   9.929   2.490   8.397 -0.1134 -0.1947 -0.0475
  165loPI    C1 2625   6.296   8.348  10.875  0.0203  0.1519 -0.0484
  165loPI    C2 2626   6.225   8.066  11.150  0.0661  0.1648 -0.0232
  165loPI    C3 2627   6.436   8.392  11.247 -0.1605  0.3054  0.0028
  165loPI   PO4 2628   6.370   8.226  10.695  0.0222  0.2970  0.0925
  165loPI   GL1 2629   6.132   8.118  10.323 -0.2880 -0.2386  0.0339
  165loPI   GL2 2630   6.361   8.301  10.208 -0.1342 -0.0903  0.1944
  165loPI   C1A 2631   5.880   8.130   9.861 -0.1413 -0.3048  0.0043
  165loPI   C2A 2632   5.872   8.027   9.342 -0.1646 -0.2122 -0.2157
  165loPI   C3A 2633   5.975   8.127   9.010  0.2186  0.0533 -0.0685
  165loPI   C4A 2634   5.843   8.128   8.574  0.2483  0.1487  0.2408
  165loPI   C5A 2635   5.918   8.090   8.152 -0.2729  0.0101 -0.0689
  165loPI   C6A 2636   5.790   7.634   7.944 -0.0360 -0.2567 -0.2204
  165loPI   C1B 2637   6.214   8.441   9.882 -0.0569 -0.0703 -0.1438
  165loPI   C2B 2638   6.260   8.472   9.525  0.0604  0.0437  0.0374
  165loPI   C3B 2639   6.311   8.532   9.019  0.0540 -0.1942 -0.4830
  165loPI   C4B 2640   6.316   8.473   8.590 -0.1691  0.2885 -0.3760
  166loPI    C1 2641   3.314   7.992  11.095 -0.0390 -0.0109 -0.1521
  166loPI    C2 2642   2.982   7.769  11.113 -0.0599  0.0320  0.0169
  166loPI    C3 2643   3.310   7.656  11.311 -0.0077  0.0475 -0.0600
  166loPI   PO4 2644   3.330   7.991  10.802  0.3551 -0.1016 -0.1301
  166loPI   GL1 2645   3.181   8.143  10.379  0.0276  0.1897 -0.1854
  166loPI   GL2 2646   3.431   8.461  10.195  0.2613 -0.0333  0.2546
  166loPI   C1A 2647   3.237   8.016   9.935 -0.0861 -0.0765  0.0058
  166loPI   C2A 2648   3.165   8.127   9.492 -0.0958  0.0143  0.0755
  166loPI   C3A 2649   3.110   8.135   9.085 -0.2384  0.0501  0.2873
  166loPI   C4A 2650   3.094   8.066   8.655  0.0024  0.0898 -0.2104
  166loPI   C5A 2651   3.091   8.011   8.283 -0.0176 -0.0202  0.2692
  166loPI   C6A 2652   3.141   7.864   7.877 -0.2580  0.0527 -0.2285
  166loPI   C1B 2653   3.481   8.386   9.826  0.1735 -0.3010 -0.2241
  166loPI   C2B 2654   3.547   8.417   9.338  0.2118 -0.1389  0.0995
  166loPI   C3B 2655   3.599   8.439   8.899  0.1519 -0.0949 -0.4901
  166loPI   C4B 2656   3.492   8.401   8.450 -0.2765 -0.1274  0.0266
  167loPI    C1 2657   9.130  15.513  11.112  0.1945 -0.0951  0.0796
  167loPI    C2 2658   8.742  15.612  11.099  0.2146 -0.0243  0.0046
  167loPI    C3 2659   8.936  15.605  11.450  0.0373 -0.4848  0.1005
  167loPI   PO4 2660   9.151  15.522  10.874  0.0367  0.2877  0.1225
  167loPI   GL1 2661   9.041  15.568  10.452  0.2659 -0.2555 -0.0352
  167loPI   GL2 2662   8.716  15.556  10.540 -0.0338  0.1015 -0.3810
  167loPI   C1A 2663   8.795  15.695  10.053  0.0905 -0.0667 -0.0163
  167loPI   C2A 2664   8.827  15.690   9.615  0.0706 -0.2847  0.0759
  167loPI   C3A 2665   8.856  15.707   9.123  0.1500  0.1167  0.0595
  167loPI   C4A 2666   8.944  15.776   8.740  0.1154  0.1149 -0.3588
  167loPI   C5A 2667   8.966  15.868   8.402 -0.0058 -0.0118 -0.1621
  167loPI   C6A 2668   9.360  15.980   8.166 -0.1296 -0.3330 -0.0590
  167loPI   C1B 2669   8.826  15.197  10.233  0.3089  0.0989 -0.2132
  167loPI   C2B 2670   8.982  15.235   9.926  0.3539  0.1742  0.1251
  167loPI   C3B 2671   8.902  15.177   9.527  0.0376 -0.2417  0.3197
  167loPI   C4B 2672   8.936  15.191   9.096  0.2127  0.1499  0.1600
  168loPI    C1 2673  12.347   8.735  10.898 -0.2395 -0.0521  0.0695
  168loPI    C2 2674  12.341   9.129  10.967  0.0329 -0.0399  0.0324
  168loPI    C3 2675  12.169   8.878  11.227 -0.1177  0.1006  0.0700
  168loPI   PO4 2676  12.225   8.817  10.603  0.1449  0.0546 -0.3051
  168loPI   GL1 2677  12.074   9.027  10.219 -0.0968  0.0702  0.0098
  168loPI   GL2 2678  11.950   8.785  10.172 -0.0901  0.2423 -0.3824
  168loPI   C1A 2679  12.301   9.154   9.903 -0.4062  0.1806  0.0992
  168loPI   C2A 2680  12.322   9.166   9.535 -0.1803  0.0005  0.2415
  168loPI   C3A 2681  12.346   9.211   9.098 -0.0353  0.3593  0.3099
  168loPI   C4A 2682  12.394   9.185   8.552  0.0954  0.0430 -0.0783
  168loPI   C5A 2683  12.348   9.126   8.151 -0.1409 -0.1671  0.2781
  168loPI   C6A 2684  12.187   9.240   7.785 -0.2218  0.2065  0.0619
  168loPI   C1B 2685  11.904   8.821   9.746  0.0763  0.1723  0.3633
  168loPI   C2B 2686  11.909   8.885   9.347  0.2262  0.3979  0.1078
  168loPI   C3B 2687  12.019   8.903   8.880 -0.0413  0.2082  0.0291
  168loPI   C4B 2688  12.001   8.843   8.488  0.1717 -0.0309 -0.2612
  169loPI    C1 2689  15.842   9.467  10.914 -0.0647 -0.0888  0.0880
  169loPI    C2 2690  15.566   9.704  11.080  0.0359  0.1042 -0.0164
  169loPI    C3 2691  15.770   9.446  11.307 -0.3002 -0.1139  0.0454
  169loPI   PO4 2692  15.840   9.542  10.614  0.0386  0.0868 -0.1620
  169loPI   GL1 2693  15.793   9.721  10.248 -0.2196 -0.3055  0.1776
  169loPI   GL2 2694  15.505   9.591  10.106  0.2366  0.1761  0.2755
  169loPI   C1A 2695  15.911   9.850   9.813 -0.2058  0.0330 -0.0494
  169loPI   C2A 2696  15.925   9.806   9.324 -0.1935  0.3269 -0.1147
  169loPI   C3A 2697  15.895   9.872   8.924  0.1396 -0.3388 -0.1515
  169loPI   C4A 2698  15.828   9.853   8.504  0.1046 -0.1655  0.2383
  169loPI   C5A 2699  15.698  10.044   8.047  0.4184 -0.2066 -0.0207
  169loPI   C6A 2700  15.311   9.893   7.802  0.0755  0.0494  0.3592
  169loPI   C1B 2701  15.428   9.617   9.528 -0.1895  0.1288  0.1990
  169loPI   C2B 2702  15.518   9.546   9.094 -0.1272 -0.2274  0.0360
  169loPI   C3B 2703  15.516   9.474   8.655 -0.1220 -0.2048  0.1512
  169loPI   C4B 2704  15.385   9.642   8.269  0.4722  0.1270 -0.0970
  170loPI    C1 2705   5.719   8.748  11.038  0.1653  0.0872  0.0127
  170loPI    C2 2706   5.552   8.473  11.276  0.1245  0.2134  0.1312
  170loPI    C3 2707   5.946   8.467  11.208  0.1160  0.0950  0.0921
  170loPI   PO4 2708   5.696   8.760  10.764  0.3013 -0.2321 -0.0931
  170loPI   GL1 2709   5.648   9.082  10.476 -0.1747  0.2979 -0.1640
  170loPI   GL2 2710   5.487   9.383  10.512  0.1332 -0.0821 -0.4470
  170loPI   C1A 2711   5.703   9.042  10.130  0.0558 -0.0691 -0.0947
  170loPI   C2A 2712   5.662   9.125   9.687 -0.3035 -0.2105 -0.2043
  170loPI   C3A 2713   5.687   9.137   9.325  0.2282 -0.1722 -0.2210
  170loPI   C4A 2714   5.673   9.104   8.863 -0.0131  0.1631 -0.0981
  170loPI   C5A 2715   5.599   9.292   8.375  0.1627 -0.1470 -0.3130
  170loPI   C6A 2716   5.435   8.981   8.066 -0.2828  0.1622  0.0990
  170loPI   C1B 2717   5.524   9.565  10.069 -0.2161 -0.1315 -0.1771
  170loPI   C2B 2718   5.491   9.683   9.636  0.1002 -0.2000 -0.1087
  170loPI   C3B 2719   5.572   9.693   9.175  0.0605  0.2123 -0.2109
  170loPI   C4B 2720   5.570   9.612   8.772 -0.0180  0.0064  0.1223
  171loPI    C1 2721   7.762   9.975  10.643  0.2012  0.2243  0.0705
  171loPI    C2 2722   7.903   9.668  10.856 -0.0264  0.2158  0.2127
  171loPI    C3 2723   7.994  10.043  10.961  0.2656  0.1992  0.0289
  171loPI   PO4 2724   7.903   9.963  10.363  0.1090  0.0030 -0.3781
  171loPI   GL1 2725   8.134  10.068  10.124 -0.0693 -0.0305 -0.0751
  171loPI   GL2 2726   8.430   9.880  10.082 -0.1500 -0.0407  0.2182
  171loPI   C1A 2727   8.133  10.321   9.741  0.2262  0.3646  0.1261
  171loPI   C2A 2728   8.225  10.305   9.288 -0.2444 -0.2678  0.1911
  171loPI   C3A 2729   8.187  10.169   8.847 -0.0582 -0.1000  0.5116
  171loPI   C4A 2730   8.128  10.214   8.334 -0.0224 -0.4082  0.1440
  171loPI   C5A 2731   7.914  10.246   7.869  0.0179  0.3736 -0.1545
  171loPI   C6A 2732   7.798  10.352   7.435 -0.0872 -0.0524  0.0043
  171loPI   C1B 2733   8.535   9.944   9.630 -0.0534  0.0121  0.0686
  171loPI   C2B 2734   8.533   9.960   9.241 -0.0529 -0.0306  0.1289
  171loPI   C3B 2735   8.660  10.021   8.903  0.0266  0.1854  0.2899
  171loPI   C4B 2736   8.611  10.090   8.433 -0.0242 -0.2451 -0.1142
  172loPI    C1 2737  14.904   0.374  10.825  0.0910  0.1114 -0.0754
  172loPI    C2 2738  14.746   0.264  11.175 -0.0715  0.2148 -0.1151
  172loPI    C3 2739  15.096   0.458  11.166 -0.0352  0.1548 -0.0144
  172loPI   PO4 2740  14.951   0.102  10.604  0.1340  0.2242 -0.0506
  172loPI   GL1 2741  15.043   0.152  10.182  0.0420  0.1652  0.3314
  172loPI   GL2 2742  15.355  -0.009  10.057 -0.1158  0.1261  0.1830
  172loPI   C1A 2743  14.925   0.382   9.787 -0.0072  0.0385 -0.4594
  172loPI   C2A 2744  15.051   0.406   9.394 -0.1404 -0.1233  0.2489
  172loPI   C3A 2745  15.088   0.395   9.063 -0.0728  0.0382  0.2653
  172loPI   C4A 2746  15.281   0.567   8.819  0.0346 -0.0048 -0.1001
  172loPI   C5A 2747  15.266   0.597   8.324  0.1586  0.0736  0.0411
  172loPI   C6A 2748  15.230   0.258   7.940  0.0826 -0.0919  0.3448
  172loPI   C1B 2749  15.331  -0.019   9.588  0.0023  0.0471  0.0991
  172loPI   C2B 2750  15.345  -0.086   9.132 -0.2057 -0.1905  0.3842
  172loPI   C3B 2751  15.438   0.049   8.772 -0.1534 -0.0068 -0.0646
  172loPI   C4B 2752  15.314  -0.123   8.350 -0.0322 -0.1343 -0.0912
  173loPI    C1 2753   6.430  15.228  11.173 -0.1948  0.1746 -0.0110
  173loPI    C2 2754   6.082  15.031  11.195 -0.0644 -0.0333  0.2427
  173loPI    C3 2755   6.403  14.895  11.392  0.2141  0.0509 -0.1394
  173loPI   PO4 2756   6.445  15.369  10.894  0.0161  0.1988 -0.0152
  173loPI   GL1 2757   6.561  15.232  10.523  0.2761 -0.0703  0.1378
  173loPI   GL2 2758   6.239  15.008  10.457 -0.0155 -0.0023 -0.0792
  173loPI   C1A 2759   6.643  15.462  10.188  0.2669 -0.1070  0.1248
  173loPI   C2A 2760   6.594  15.480   9.713  0.0629  0.0423  0.2822
  173loPI   C3A 2761   6.587  15.521   9.262 -0.3934 -0.0259  0.3310
  173loPI   C4A 2762   6.738  15.518   8.810 -0.0930 -0.1789  0.2410
  173loPI   C5A 2763   6.688  15.418   8.350  0.2287 -0.1733  0.0649
  173loPI   C6A 2764   6.453  15.347   7.973  0.0750  0.2791 -0.1715
  173loPI   C1B 2765   6.218  15.117  10.038  0.1230 -0.0336  0.0874
  173loPI   C2B 2766   6.226  15.160   9.652  0.0310 -0.0962 -0.1214
  173loPI   C3B 2767   6.280  15.183   9.146  0.2608  0.2172  0.1193
  173loPI   C4B 2768   6.331  15.187   8.705 -0.1777  0.4272 -0.4025
  174loPI    C1 2769  10.035  14.971  10.840  0.1241 -0.1099  0.0334
  174loPI    C2 2770   9.904  14.599  10.908  0.0822 -0.0920  0.0504
  174loPI    C3 2771   9.751  14.906  11.113 -0.4035  0.0252 -0.4634
  174loPI   PO4 2772  10.207  14.945  10.665  0.4359 -0.3390  0.1013
  174loPI   GL1 2773  10.314  15.041  10.310  0.0356 -0.4132 -0.3064
  174loPI   GL2 2774   9.955  15.082  10.292  0.0164 -0.0255  0.2216
  174loPI   C1A 2775  10.301  15.154   9.823  0.1293  0.1448  0.1450
  174loPI   C2A 2776  10.361  15.233   9.346 -0.0320 -0.2202  0.1560
  174loPI   C3A 2777  10.392  15.129   8.949  0.0116  0.0692 -0.0292
  174loPI   C4A 2778  10.374  15.248   8.579  0.1376  0.0422 -0.3170
  174loPI   C5A 2779  10.443  15.168   8.059  0.2586 -0.2385  0.0839
  174loPI   C6A 2780  10.843  15.277   7.847 -0.1437 -0.0595 -0.0163
  174loPI   C1B 2781   9.862  14.864   9.940  0.0257  0.2206  0.1718
  174loPI   C2B 2782   9.915  14.982   9.523  0.1024 -0.1950  0.0636
  174loPI   C3B 2783  10.033  14.868   9.170  0.1874  0.2919  0.1210
  174loPI   C4B 2784   9.765  14.848   8.888 -0.0983 -0.2896 -0.3819
  175loPI    C1 2785   8.213   7.854  10.416 -0.1213 -0.2382 -0.1607
  175loPI    C2 2786   7.938   7.723  10.675 -0.1482  0.1388  0.0073
  175loPI    C3 2787   8.112   8.079  10.731  0.0034  0.1296 -0.3773
  175loPI   PO4 2788   8.088   7.818  10.187 -0.3003 -0.0099 -0.0535
  175loPI   GL1 2789   7.969   7.438   9.885 -0.1046  0.0504 -0.0420
  175loPI   GL2 2790   7.759   7.474   9.777 -0.1231 -0.1122 -0.0384
  175loPI   C1A 2791   7.995   7.033   9.684  0.2114 -0.1410  0.1551
  175loPI   C2A 2792   8.032   6.896   9.281 -0.1212 -0.0518 -0.1504
  175loPI   C3A 2793   8.052   6.900   8.879 -0.1695  0.1145 -0.2018
  175loPI   C4A 2794   8.120   6.905   8.419 -0.0092 -0.0386  0.2147
  175loPI   C5A 2795   8.116   6.876   7.956  0.1469 -0.1774 -0.2033
  175loPI   C6A 2796   8.058   6.576   7.560  0.0359 -0.0832 -0.1443
  175loPI   C1B 2797   7.851   7.516   9.347 -0.2574 -0.3015  0.1029
  175loPI   C2B 2798   7.910   7.446   9.004 -0.1221 -0.0312 -0.0337
  175loPI   C3B 2799   8.022   7.420   8.625 -0.3538 -0.0378  0.4590
  175loPI   C4B 2800   8.197   7.350   8.244  0.1597  0.2917  0.1381
  176loPI    C1 2801  16.978  15.508  11.291 -0.1143 -0.3742  0.0408
  176loPI    C2 2802  17.125  15.307  11.604  0.1122 -0.1067  0.1099
  176loPI    C3 2803  17.222  15.691  11.550  0.0180 -0.1306 -0.2510
  176loPI   PO4 2804  16.850  15.368  11.147 -0.1142  0.0377  0.4663
  176loPI   GL1 2805  16.862  15.065  10.862 -0.3305  0.1004  0.0440
  176loPI   GL2 2806  16.750  14.815  10.939 -0.0664 -0.5540 -0.2011
  176loPI   C1A 2807  17.118  15.084  10.394 -0.2231  0.3957 -0.3870
  176loPI   C2A 2808  17.287  15.153  10.002  0.0259  0.0577 -0.2296
  176loPI   C3A 2809  17.281  15.158   9.544 -0.0799 -0.0333 -0.0574
  176loPI   C4A 2810  17.220  15.222   9.157 -0.0899  0.0782  0.3492
  176loPI   C5A 2811  17.229  15.171   8.712 -0.0524  0.0831  0.2909
  176loPI   C6A 2812  17.014  15.029   8.335 -0.0899 -0.0723  0.1908
  176loPI   C1B 2813  16.708  14.780  10.474 -0.1368  0.0491  0.0385
  176loPI   C2B 2814  16.878  14.825  10.063  0.1953  0.3352  0.0054
  176loPI   C3B 2815  16.856  14.896   9.689 -0.1291 -0.0224 -0.0702
  176loPI   C4B 2816  16.863  14.780   9.237 -0.2128  0.1078  0.0488
  177loPI    C1 2817   9.886  17.960  10.926  0.1277 -0.0670 -0.0463
  177loPI    C2 2818   9.914  17.739  11.258 -0.2019 -0.0720 -0.0186
  177loPI    C3 2819   9.905  18.138  11.284  0.1411 -0.0589 -0.0508
  177loPI   PO4 2820  10.132  17.821  10.716 -0.0368  0.1619 -0.0487
  177loPI   GL1 2821  10.449  17.865  10.335 -0.0172  0.0114 -0.0095
  177loPI   GL2 2822  10.774  18.102  10.248 -0.1606 -0.1057  0.0720
  177loPI   C1A 2823  10.329  17.695   9.862  0.1161  0.1030 -0.0866
  177loPI   C2A 2824  10.295  17.751   9.429 -0.0085 -0.1353 -0.0827
  177loPI   C3A 2825  10.383  17.633   9.080 -0.3677  0.1195 -0.1195
  177loPI   C4A 2826  10.390  17.528   8.706  0.1134  0.1756 -0.3994
  177loPI   C5A 2827  10.308  17.507   8.295 -0.2370 -0.3626  0.2773
  177loPI   C6A 2828  10.391  17.691   7.961 -0.0153 -0.0863 -0.2706
  177loPI   C1B 2829  10.721  18.069   9.843 -0.1145 -0.1794  0.0038
  177loPI   C2B 2830  10.827  17.963   9.489 -0.1708  0.2204 -0.0509
  177loPI   C3B 2831  10.740  17.992   9.079  0.0014  0.0950 -0.3701
  177loPI   C4B 2832  10.760  17.829   8.763 -0.1986  0.1477 -0.1681
  178loPI    C1 2833  10.832  14.328  10.527 -0.1314  0.0260  0.2062
  178loPI    C2 2834  11.039  14.554  10.784 -0.1643  0.2122  0.0714
  178loPI    C3 2835  10.969  14.169  10.868 -0.0520  0.2339  0.2731
  178loPI   PO4 2836  10.959  14.451  10.255  0.0104 -0.0500 -0.1606
  178loPI   GL1 2837  10.839  14.615   9.869 -0.1211 -0.1645 -0.0938
  178loPI   GL2 2838  10.773  14.942  10.031 -0.1874 -0.0519  0.2149
  178loPI   C1A 2839  10.878  14.542   9.396  0.0947 -0.1662  0.0749
  178loPI   C2A 2840  10.933  14.531   8.901  0.0568  0.1430 -0.2998
  178loPI   C3A 2841  10.948  14.596   8.455  0.0097 -0.0046 -0.1654
  178loPI   C4A 2842  10.714  14.629   8.085 -0.2644  0.2553  0.1619
  178loPI   C5A 2843  10.577  14.342   7.826  0.0046 -0.1784  0.1848
  178loPI   C6A 2844  10.343  14.319   7.508  0.1451  0.0946 -0.1226
  178loPI   C1B 2845  10.758  15.010   9.544  0.3179  0.1192 -0.1222
  178loPI   C2B 2846  10.857  15.019   9.077 -0.0757 -0.1105 -0.4337
  178loPI   C3B 2847  10.831  15.037   8.657  0.3309  0.2752 -0.2784
  178loPI   C4B 2848  10.944  15.069   8.286 -0.2974 -0.0042 -0.0607
  179loPI    C1 2849   7.679  12.754  10.746 -0.1666  0.1290 -0.1670
  179loPI    C2 2850   7.733  13.052  11.008 -0.2584 -0.1046  0.1230
  179loPI    C3 2851   7.456  12.772  11.078 -0.0402 -0.3678 -0.0478
  179loPI   PO4 2852   7.730  12.861  10.512 -0.0752  0.1674 -0.2551
  179loPI   GL1 2853   7.647  12.734  10.108  0.0750 -0.3841  0.0344
  179loPI   GL2 2854   7.789  12.404  10.273  0.2129  0.0581  0.2056
  179loPI   C1A 2855   7.542  12.704   9.622 -0.3390  0.0187 -0.0756
  179loPI   C2A 2856   7.596  12.723   9.099 -0.3202 -0.1339  0.1331
  179loPI   C3A 2857   7.616  12.703   8.695 -0.0079 -0.2002 -0.1127
  179loPI   C4A 2858   7.801  12.720   8.290  0.0974 -0.0947  0.1013
  179loPI   C5A 2859   7.863  12.384   8.031  0.2662  0.0199 -0.0710
  179loPI   C6A 2860   7.826  12.183   7.662  0.0235  0.1587  0.3187
  179loPI   C1B 2861   7.724  12.276   9.829 -0.1630 -0.0314 -0.1396
  179loPI   C2B 2862   7.727  12.252   9.353  0.1417  0.0530  0.0701
  179loPI   C3B 2863   7.747  12.247   8.930 -0.1183  0.1885  0.1720
  179loPI   C4B 2864   7.680  12.194   8.517 -0.0526  0.2546  0.0112
  180loPI    C1 2865  15.206  12.154  11.010 -0.0439  0.0161  0.0325
  180loPI    C2 2866  15.309  12.481  11.217 -0.1097 -0.0287  0.1369
  180loPI    C3 2867  15.125  12.177  11.401  0.0577 -0.1748  0.0658
  180loPI   PO4 2868  15.301  12.253  10.754  0.0836 -0.0233  0.2625
  180loPI   GL1 2869  15.149  12.101  10.373  0.1419 -0.1970 -0.0635
  180loPI   GL2 2870  15.240  11.720  10.353 -0.1497 -0.4184  0.0075
  180loPI   C1A 2871  15.046  12.255  10.075 -0.1054 -0.0852  0.2661
  180loPI   C2A 2872  15.102  12.250   9.626 -0.1898  0.0990  0.1003
  180loPI   C3A 2873  15.061  12.087   9.249 -0.1866 -0.1034  0.1205
  180loPI   C4A 2874  15.108  12.056   8.817 -0.2547 -0.1525 -0.4115
  180loPI   C5A 2875  14.774  11.760   8.479  0.0751  0.2031 -0.1293
  180loPI   C6A 2876  14.399  11.814   8.355  0.0499 -0.0222 -0.0362
  180loPI   C1B 2877  15.247  11.645   9.889 -0.1890 -0.2189 -0.0757
  180loPI   C2B 2878  15.117  11.483   9.499 -0.1503  0.1176 -0.0252
  180loPI   C3B 2879  15.158  11.618   9.128  0.0065  0.1250 -0.1742
  180loPI   C4B 2880  15.111  11.542   8.729  0.1367 -0.3625 -0.1760
  181loPI    C1 2881   6.892   7.073  10.685  0.0598 -0.1730  0.0160
  181loPI    C2 2882   6.584   7.107  10.938  0.1551  0.0038  0.1102
  181loPI    C3 2883   6.946   7.008  11.076  0.1385 -0.2207 -0.0025
  181loPI   PO4 2884   6.705   7.020  10.479 -0.2706  0.1265  0.0201
  181loPI   GL1 2885   6.757   7.082  10.170 -0.1891  0.2686 -0.0572
  181loPI   GL2 2886   6.663   7.370  10.068  0.1664 -0.0580 -0.1692
  181loPI   C1A 2887   6.518   6.911   9.860  0.1920  0.3037  0.1472
  181loPI   C2A 2888   6.483   7.001   9.479 -0.0204  0.0593 -0.1381
  181loPI   C3A 2889   6.608   6.857   9.039  0.1461  0.0166 -0.1538
  181loPI   C4A 2890   6.686   6.928   8.663  0.1083 -0.2811  0.0922
  181loPI   C5A 2891   6.891   6.880   8.318 -0.1660  0.0583  0.0529
  181loPI   C6A 2892   7.252   6.804   8.104 -0.3053 -0.2854 -0.2407
  181loPI   C1B 2893   6.512   7.447   9.631 -0.1729  0.4634 -0.2626
  181loPI   C2B 2894   6.632   7.360   9.190  0.1095  0.2258 -0.1604
  181loPI   C3B 2895   6.634   7.392   8.730  0.2766 -0.4234 -0.1281
  181loPI   C4B 2896   6.639   7.393   8.305  0.3181  0.0974  0.1500
  182loPI    C1 2897   7.937   3.430  10.737 -0.0602  0.1005 -0.0861
  182loPI    C2 2898   8.305   3.439  10.893 -0.1802 -0.1638  0.2233
  182loPI    C3 2899   8.064   3.756  10.930  0.0018 -0.0017  0.0470
  182loPI   PO4 2900   7.929   3.358  10.495  0.2372 -0.0044  0.3403
  182loPI   GL1 2901   7.647   3.562  10.242 -0.0238 -0.0543 -0.0030
  182loPI   GL2 2902   7.901   3.811  10.222 -0.4643 -0.3100 -0.2323
  182loPI   C1A 2903   7.682   3.679   9.722 -0.2486  0.2125  0.1359
  182loPI   C2A 2904   7.699   3.631   9.274 -0.0655  0.0018  0.0401
  182loPI   C3A 2905   7.858   3.733   8.824  0.0315  0.0184 -0.1653
  182loPI   C4A 2906   7.821   3.588   8.355  0.1312 -0.0034  0.0830
  182loPI   C5A 2907   8.008   3.499   8.001  0.2774 -0.0546 -0.1224
  182loPI   C6A 2908   8.336   3.210   7.735  0.1740 -0.0298 -0.1531
  182loPI   C1B 2909   8.039   3.962   9.826 -0.0534 -0.1688  0.1324
  182loPI   C2B 2910   8.095   4.036   9.319  0.0278  0.4806  0.0983
  182loPI   C3B 2911   8.241   4.025   8.934  0.0250 -0.1142 -0.0472
  182loPI   C4B 2912   8.238   3.953   8.486 -0.1468  0.1283  0.1313
  183loPI    C1 2913  15.330   0.501  10.668 -0.1497  0.2023  0.0595
  183loPI    C2 2914  15.462   0.219  10.919 -0.1795  0.0888 -0.0513
  183loPI    C3 2915  15.551   0.604  10.986  0.2819  0.0094 -0.1698
  183loPI   PO4 2916  15.428   0.383  10.401  0.4176  0.1038 -0.0705
  183loPI   GL1 2917  15.474   0.647  10.086  0.0370 -0.1549 -0.1659
  183loPI   GL2 2918  15.705   0.829   9.948 -0.1106 -0.0909 -0.0583
  183loPI   C1A 2919  15.455   0.430   9.760 -0.0600  0.2269 -0.1537
  183loPI   C2A 2920  15.539   0.383   9.349  0.0873  0.0057  0.0720
  183loPI   C3A 2921  15.715   0.417   8.893 -0.2321  0.0841  0.0042
  183loPI   C4A 2922  15.709   0.305   8.422  0.0060  0.3940  0.0525
  183loPI   C5A 2923  15.672   0.025   8.032 -0.4029  0.3879 -0.0593
  183loPI   C6A 2924  15.948  -0.312   7.922 -0.3594 -0.0654  0.2539
  183loPI   C1B 2925  15.653   0.901   9.538  0.2089 -0.0524  0.1337
  183loPI   C2B 2926  15.682   0.884   9.082  0.3314 -0.0856  0.0152
  183loPI   C3B 2927  15.692   0.813   8.600 -0.3670 -0.0818  0.1898
  183loPI   C4B 2928  15.748   0.819   8.202  0.5050  0.2333 -0.1908
  184loPI    C1 2929  13.373   9.929  11.137 -0.1065  0.0788  0.0246
  184loPI    C2 2930  13.261   9.554  11.216  0.0867  0.0015 -0.0619
  184loPI    C3 2931  12.985   9.841  11.180 -0.0545 -0.1086  0.1204
  184loPI   PO4 2932  13.526   9.849  10.885 -0.2265 -0.1030 -0.0885
  184loPI   GL1 2933  13.690   9.877  10.458 -0.2678  0.1569 -0.1871
  184loPI   GL2 2934  13.465   9.702  10.325 -0.1252 -0.0301  0.0518
  184loPI   C1A 2935  13.488  10.061  10.018  0.0409  0.0553  0.1766
  184loPI   C2A 2936  13.508  10.205   9.641 -0.2525 -0.2097  0.0600
  184loPI   C3A 2937  13.585  10.210   9.225 -0.3112  0.0633 -0.1907
  184loPI   C4A 2938  13.587  10.223   8.835 -0.0605 -0.2383  0.2057
  184loPI   C5A 2939  13.452  10.285   8.440 -0.3655 -0.1306 -0.0714
  184loPI   C6A 2940  13.536  10.524   8.102 -0.0468  0.4618  0.0614
  184loPI   C1B 2941  13.631   9.611   9.844  0.3167  0.0323 -0.0061
  184loPI   C2B 2942  13.641   9.668   9.396 -0.1972  0.0866  0.0775
  184loPI   C3B 2943  13.704   9.749   9.004  0.0346  0.1772 -0.3181
  184loPI   C4B 2944  13.701   9.727   8.509  0.1694 -0.1030  0.1105
  185loPI    C1 2945  17.124   5.769  10.863 -0.0475 -0.2027  0.0475
  185loPI    C2 2946  17.320   5.421  10.846  0.0511 -0.1488  0.0735
  185loPI    C3 2947  17.322   5.635  11.184 -0.0619 -0.1532  0.0772
  185loPI   PO4 2948  16.860   5.742  10.714 -0.1406 -0.1910  0.1089
  185loPI   GL1 2949  16.956   6.000  10.424  0.0337 -0.0527  0.0833
  185loPI   GL2 2950  16.726   5.799  10.209 -0.0957  0.0523 -0.1331
  185loPI   C1A 2951  17.091   6.163  10.087 -0.0856  0.0036 -0.2279
  185loPI   C2A 2952  17.094   6.177   9.629  0.2034 -0.0540  0.3260
  185loPI   C3A 2953  17.057   6.184   9.348  0.0658  0.0060  0.0345
  185loPI   C4A 2954  17.052   6.217   8.917  0.0076 -0.3083  0.0007
  185loPI   C5A 2955  17.096   6.121   8.527  0.0065 -0.3377  0.3138
  185loPI   C6A 2956  17.012   6.432   8.118  0.1594  0.0882 -0.1140
  185loPI   C1B 2957  16.706   5.871   9.866 -0.1069 -0.1466 -0.2820
  185loPI   C2B 2958  16.629   5.900   9.450 -0.0219  0.3812  0.0033
  185loPI   C3B 2959  16.632   5.867   9.094  0.1423  0.1779  0.1045
  185loPI   C4B 2960  16.627   5.748   8.698  0.0765  0.0658  0.0659
  186loPI    C1 2961  13.641   8.012  10.865 -0.1711  0.0167 -0.0321
  186loPI    C2 2962  13.435   7.713  11.035 -0.2125  0.1401  0.1374
  186loPI    C3 2963  13.528   8.039  11.248  0.0386  0.1464  0.0220
  186loPI   PO4 2964  13.492   8.072  10.661  0.1207  0.2320 -0.1128
  186loPI   GL1 2965  13.388   8.146  10.214 -0.6864 -0.0757 -0.0806
  186loPI   GL2 2966  13.378   8.363   9.955 -0.0491  0.0510 -0.3745
  186loPI   C1A 2967  13.489   7.847   9.920  0.0166 -0.3506 -0.1003
  186loPI   C2A 2968  13.491   7.834   9.507  0.0894  0.0031  0.0132
  186loPI   C3A 2969  13.500   7.859   8.988  0.1106 -0.0675  0.0394
  186loPI   C4A 2970  13.583   7.920   8.523  0.0693  0.0338 -0.1175
  186loPI   C5A 2971  13.493   7.789   8.029 -0.0822  0.1363  0.0420
  186loPI   C6A 2972  13.099   7.641   7.912 -0.0094  0.0953  0.1183
  186loPI   C1B 2973  13.355   8.396   9.517  0.1362  0.1594  0.0038
  186loPI   C2B 2974  13.407   8.379   9.080  0.2954  0.1764  0.1173
  186loPI   C3B 2975  13.422   8.313   8.693 -0.2460  0.0498  0.0583
  186loPI   C4B 2976  13.422   8.405   8.299 -0.1413 -0.0342 -0.2733
  187loPI    C1 2977  12.106   1.410  10.626 -0.0359  0.3373  0.2331
  187loPI    C2 2978  11.839   1.354  10.918  0.1045  0.1563  0.3289
  187loPI    C3 2979  12.220   1.243  10.971  0.0346 -0.3158 -0.0912
  187loPI   PO4 2980  11.972   1.362  10.400  0.1169 -0.2706  0.1514
  187loPI   GL1 2981  11.974   1.146  10.083  0.1253  0.2396 -0.0290
  187loPI   GL2 2982  12.240   1.095  10.038  0.1087 -0.3081 -0.0750
  187loPI   C1A 2983  11.966   1.313   9.660  0.1926 -0.0979 -0.2765
  187loPI   C2A 2984  11.786   1.260   9.192  0.2297  0.1621  0.0677
  187loPI   C3A 2985  11.877   1.251   8.767 -0.0388  0.3615 -0.0124
  187loPI   C4A 2986  12.095   1.194   8.384  0.0963 -0.0114 -0.2449
  187loPI   C5A 2987  12.433   1.264   8.176 -0.3432 -0.2572 -0.1144
  187loPI   C6A 2988  12.726   1.169   7.780 -0.1522  0.3118  0.1546
  187loPI   C1B 2989  12.491   1.220   9.725  0.0393  0.2741 -0.0002
  187loPI   C2B 2990  12.374   1.207   9.380 -0.0189  0.2550  0.1301
  187loPI   C3B 2991  12.448   1.124   8.969  0.0148  0.3832 -0.0508
  187loPI   C4B 2992  12.476   1.012   8.668 -0.0515 -0.0324 -0.0417
  188loPI    C1 2993   7.208   2.954  10.782 -0.1779 -0.1920 -0.0853
  188loPI    C2 2994   7.056   2.781  11.108 -0.1437 -0.1041 -0.0223
  188loPI    C3 2995   7.388   3.002  11.136  0.0414 -0.3583 -0.1719
  188loPI   PO4 2996   7.183   2.830  10.539  0.0409  0.0313 -0.3421
  188loPI   GL1 2997   6.939   2.838  10.187  0.0558 -0.0406 -0.0382
  188loPI   GL2 2998   6.669   3.074  10.203  0.0571 -0.1131 -0.2008
  188loPI   C1A 2999   6.946   2.864   9.816  0.1367  0.0381 -0.1385
  188loPI   C2A 3000   6.956   2.943   9.394  0.0491 -0.0128 -0.0067
  188loPI   C3A 3001   6.855   2.982   8.941 -0.0185 -0.2076 -0.1325
  188loPI   C4A 3002   7.026   3.041   8.588 -0.2259  0.1273  0.0819
  188loPI   C5A 3003   7.153   2.819   8.226 -0.2865 -0.0562  0.0298
  188loPI   C6A 3004   7.430   2.957   7.842  0.2763  0.0867 -0.3115
  188loPI   C1B 3005   6.759   3.392   9.850 -0.0327 -0.3925 -0.0116
  188loPI   C2B 3006   6.826   3.448   9.404 -0.2029  0.1794  0.1720
  188loPI   C3B 3007   6.903   3.487   8.987 -0.1901 -0.2973 -0.1399
  188loPI   C4B 3008   6.731   3.526   8.559 -0.1078  0.1611  0.0720
  189loPI    C1 3009   8.402   5.577  10.531 -0.1277 -0.1219 -0.1716
  189loPI    C2 3010   8.618   5.827  10.756 -0.3852  0.0413 -0.1021
  189loPI    C3 3011   8.601   5.439  10.849  0.2372 -0.0611 -0.3677
  189loPI   PO4 3012   8.179   5.674  10.438 -0.2899  0.1493 -0.0321
  189loPI   GL1 3013   7.835   5.642  10.109 -0.0679 -0.0556  0.0929
  189loPI   GL2 3014   8.040   5.874   9.954  0.1441  0.0424  0.0190
  189loPI   C1A 3015   7.686   5.499   9.715 -0.2230  0.1052 -0.0002
  189loPI   C2A 3016   7.786   5.598   9.362  0.1902  0.1015 -0.0084
  189loPI   C3A 3017   7.858   5.662   8.869 -0.2657 -0.0202  0.0298
  189loPI   C4A 3018   7.959   5.588   8.397 -0.0957 -0.1571 -0.0344
  189loPI   C5A 3019   7.758   5.410   7.963  0.0216 -0.0498  0.3781
  189loPI   C6A 3020   7.750   5.057   7.620 -0.1847 -0.0742  0.3653
  189loPI   C1B 3021   8.089   5.952   9.548 -0.0187  0.0439  0.0698
  189loPI   C2B 3022   8.240   5.974   9.156  0.1608 -0.1989 -0.1440
  189loPI   C3B 3023   8.276   5.903   8.722 -0.0865  0.1534 -0.1673
  189loPI   C4B 3024   8.360   5.930   8.324  0.1215 -0.0103  0.0447
  190loPI    C1 3025  17.923  15.792  10.939  0.1543 -0.3194 -0.0557
  190loPI    C2 3026  17.803  15.767  11.320  0.0254  0.0282 -0.0706
  190loPI    C3 3027  18.193  15.787  11.234  0.0467  0.2058  0.0611
  190loPI   PO4 3028  17.730  15.658  10.848  0.1240  0.1009 -0.1152
  190loPI   GL1 3029  17.616  15.573  10.514 -0.0848  0.0482 -0.0649
  190loPI   GL2 3030  17.662  15.157  10.357 -0.1962 -0.1006  0.0245
  190loPI   C1A 3031  17.586  15.541  10.078  0.1849 -0.1910 -0.0912
  190loPI   C2A 3032  17.566  15.575   9.619  0.2827 -0.1080 -0.1958
  190loPI   C3A 3033  17.614  15.581   9.183  0.3350  0.0599 -0.0258
  190loPI   C4A 3034  17.606  15.541   8.726  0.1409 -0.0499  0.0224
  190loPI   C5A 3035  17.795  15.494   8.318 -0.3858 -0.0285  0.1438
  190loPI   C6A 3036  18.135  15.688   8.165 -0.2452 -0.0615 -0.1473
  190loPI   C1B 3037  17.721  15.031   9.887 -0.2370  0.0236  0.1460
  190loPI   C2B 3038  17.736  14.990   9.457 -0.0300  0.2306 -0.1196
  190loPI   C3B 3039  17.690  15.044   9.016  0.2222 -0.1981  0.0593
  190loPI   C4B 3040  17.807  15.031   8.520 -0.1485  0.0688  0.0468
  191loPI    C1 3041  16.252   2.350  10.688 -0.0567 -0.0511  0.0397
  191loPI    C2 3042  16.359   2.614  10.969 -0.1096  0.1579 -0.1341
  191loPI    C3 3043  16.218   2.255  11.075 -0.0365  0.1982  0.1043
  191loPI   PO4 3044  16.081   2.513  10.439 -0.1499 -0.1437 -0.0697
  191loPI   GL1 3045  16.019   2.941  10.213 -0.1947  0.0328 -0.2849
  191loPI   GL2 3046  16.338   3.066  10.184 -0.0437 -0.1015 -0.0292
  191loPI   C1A 3047  15.783   2.711   9.870 -0.0114 -0.1023  0.1006
  191loPI   C2A 3048  15.790   2.671   9.433  0.1504  0.2513 -0.3133
  191loPI   C3A 3049  15.793   2.720   8.912  0.3847  0.1060  0.1221
  191loPI   C4A 3050  15.823   2.637   8.460 -0.3111 -0.0814  0.0837
  191loPI   C5A 3051  15.979   2.671   8.052 -0.0092 -0.1482  0.0490
  191loPI   C6A 3052  16.085   2.578   7.568  0.0736 -0.0478  0.0152
  191loPI   C1B 3053  16.209   3.075   9.751  0.4399  0.0454 -0.2607
  191loPI   C2B 3054  16.217   3.085   9.247  0.2359  0.1566  0.1178
  191loPI   C3B 3055  16.181   3.048   8.743 -0.0319  0.3128 -0.1714
  191loPI   C4B 3056  16.315   2.923   8.375  0.0753 -0.1180 -0.0415
  192loPI    C1 3057  17.399   3.934  10.728  0.0293 -0.1166 -0.2914
  192loPI    C2 3058  17.763   3.955  10.893 -0.1342  0.0752  0.0538
  192loPI    C3 3059  17.501   3.679  11.019 -0.2368  0.1799  0.0718
  192loPI   PO4 3060  17.389   3.841  10.438  0.1188 -0.0152 -0.0991
  192loPI   GL1 3061  17.365   4.033  10.072  0.0792  0.1558  0.0438
  192loPI   GL2 3062  17.152   3.784   9.991  0.2748 -0.0151  0.1062
  192loPI   C1A 3063  17.496   4.185   9.709 -0.2851  0.2829 -0.1427
  192loPI   C2A 3064  17.478   4.053   9.284 -0.1113  0.1188  0.1519
  192loPI   C3A 3065  17.478   4.012   8.881 -0.1610 -0.1995  0.0110
  192loPI   C4A 3066  17.518   4.107   8.478 -0.1494 -0.0809  0.3319
  192loPI   C5A 3067  17.575   4.092   8.007 -0.2293 -0.3034 -0.2356
  192loPI   C6A 3068  17.582   4.348   7.700  0.1097  0.3734  0.0945
  192loPI   C1B 3069  17.110   3.835   9.565 -0.0334  0.3341  0.0634
  192loPI   C2B 3070  17.028   3.786   9.127  0.1015  0.0309 -0.0283
  192loPI   C3B 3071  17.068   3.683   8.820  0.2683 -0.0538  0.4496
  192loPI   C4B 3072  17.122   3.780   8.351 -0.1606 -0.0023 -0.1795
  193loPI    C1 3073  13.689  11.727  11.153  0.2181  0.1295 -0.2752
  193loPI    C2 3074  13.933  11.489  11.363 -0.0085  0.1884  0.0631
  193loPI    C3 3075  13.857  11.860  11.491 -0.0716  0.2614 -0.1798
  193loPI   PO4 3076  13.794  11.741  10.910  0.1309  0.0673 -0.0971
  193loPI   GL1 3077  13.834  11.845  10.483  0.0266  0.0693 -0.2528
  193loPI   GL2 3078  13.704  12.070  10.243 -0.0104  0.3787  0.3578
  193loPI   C1A 3079  13.779  11.622  10.068 -0.0540 -0.0340 -0.1216
  193loPI   C2A 3080  13.635  11.528   9.660  0.0196  0.1487 -0.0094
  193loPI   C3A 3081  13.707  11.537   9.276  0.0156  0.0805 -0.0025
  193loPI   C4A 3082  13.805  11.546   8.840 -0.1840 -0.0333  0.1171
  193loPI   C5A 3083  13.924  11.712   8.439 -0.2784  0.2682  0.1642
  193loPI   C6A 3084  13.898  11.531   8.144 -0.1703  0.2873  0.0163
  193loPI   C1B 3085  13.520  12.169   9.896 -0.0406 -0.0481  0.1111
  193loPI   C2B 3086  13.578  12.060   9.544  0.2726 -0.1533 -0.1602
  193loPI   C3B 3087  13.690  12.016   9.104 -0.2570 -0.0597 -0.0815
  193loPI   C4B 3088  13.716  12.134   8.672 -0.1964 -0.0003 -0.1169
  194loPI    C1 3089   4.548  15.922  11.048 -0.0642 -0.2269  0.0262
  194loPI    C2 3090   4.546  16.288  11.210  0.1098 -0.2202  0.0148
  194loPI    C3 3091   4.369  15.983  11.400  0.0057 -0.1404  0.0469
  194loPI   PO4 3092   4.674  15.971  10.889 -0.2020  0.1260  0.2608
  194loPI   GL1 3093   4.686  15.972  10.435  0.0348  0.0008  0.1177
  194loPI   GL2 3094   5.052  15.838  10.314  0.1567 -0.3747  0.0392
  194loPI   C1A 3095   4.660  16.014   9.955 -0.0563 -0.0106 -0.2273
  194loPI   C2A 3096   4.656  16.257   9.675  0.3843 -0.0417 -0.1573
  194loPI   C3A 3097   4.621  16.285   9.241 -0.0535 -0.0158 -0.0174
  194loPI   C4A 3098   4.735  16.141   8.906  0.1970  0.0651 -0.0997
  194loPI   C5A 3099   4.728  15.980   8.420 -0.2277 -0.0161  0.2577
  194loPI   C6A 3100   4.781  15.923   7.913 -0.1448 -0.0906 -0.0243
  194loPI   C1B 3101   5.112  15.911   9.882 -0.0414  0.2606  0.1527
  194loPI   C2B 3102   5.115  15.974   9.411  0.1596 -0.3486 -0.0795
  194loPI   C3B 3103   5.245  15.951   8.920 -0.1050  0.0374  0.0338
  194loPI   C4B 3104   5.100  16.294   8.556  0.1249 -0.3179 -0.1105
  195loPI    C1 3105   9.068   4.579  10.604  0.0546  0.0612  0.0011
  195loPI    C2 3106   9.433   4.448  10.703  0.0461  0.0438  0.0094
  195loPI    C3 3107   9.275   4.762  10.894  0.0389  0.0242  0.0358
  195loPI   PO4 3108   9.105   4.445  10.315 -0.0254 -0.0038  0.3114
  195loPI   GL1 3109   8.889   4.384   9.938  0.1024 -0.1217 -0.0878
  195loPI   GL2 3110   9.006   4.163   9.708 -0.4376  0.0971  0.0543
  195loPI   C1A 3111   8.831   4.713   9.670  0.0272  0.1741 -0.0624
  195loPI   C2A 3112   8.907   4.737   9.086 -0.0207  0.0565 -0.0289
  195loPI   C3A 3113   9.062   4.747   8.709 -0.1430  0.1294  0.1702
  195loPI   C4A 3114   8.970   4.667   8.274  0.1092 -0.3442  0.1592
  195loPI   C5A 3115   8.908   4.599   7.873  0.0462  0.1249  0.0480
  195loPI   C6A 3116   8.681   4.356   7.643  0.3455 -0.2501 -0.1360
  195loPI   C1B 3117   8.947   4.206   9.375  0.1125 -0.0483 -0.3991
  195loPI   C2B 3118   9.153   4.171   9.024  0.1131  0.1008  0.3338
  195loPI   C3B 3119   9.177   4.122   8.556 -0.0207 -0.0519  0.0993
  195loPI   C4B 3120   9.047   4.155   8.095  0.1775 -0.0071  0.0222
  196loPI    C1 3121   4.499  13.037  11.459 -0.1737 -0.0731  0.0742
  196loPI    C2 3122   4.557  12.683  11.636  0.0046 -0.1405 -0.1157
  196loPI    C3 3123   4.217  12.754  11.437 -0.0866 -0.1569  0.0331
  196loPI   PO4 3124   4.697  13.023  11.322  0.2766 -0.2044 -0.0989
  196loPI   GL1 3125   4.597  12.953  10.817 -0.2840 -0.6017  0.4459
  196loPI   GL2 3126   4.567  12.714  10.633 -0.0639  0.1288  0.0940
  196loPI   C1A 3127   4.807  13.101  10.373  0.0655 -0.1480 -0.2576
  196loPI   C2A 3128   4.738  13.154   9.937 -0.1485  0.0004  0.1160
  196loPI   C3A 3129   4.805  13.183   9.478  0.2148 -0.0020  0.0263
  196loPI   C4A 3130   4.716  13.177   8.976 -0.0539 -0.3466  0.1254
  196loPI   C5A 3131   4.774  13.043   8.521  0.0194 -0.1467 -0.1409
  196loPI   C6A 3132   4.433  12.880   8.318 -0.0067 -0.0614 -0.3887
  196loPI   C1B 3133   4.350  12.819  10.160 -0.1278 -0.1665 -0.1162
  196loPI   C2B 3134   4.441  12.796   9.708 -0.1991 -0.0180  0.1857
  196loPI   C3B 3135   4.361  12.856   9.267  0.1514  0.0394  0.0897
  196loPI   C4B 3136   4.322  12.827   8.857 -0.3270 -0.2862  0.2370
  197loPI    C1 3137  12.885   7.965  10.711  0.0503 -0.0229 -0.0064
  197loPI    C2 3138  13.080   8.124  11.021  0.0951 -0.1136  0.0122
  197loPI    C3 3139  12.709   7.982  11.070  0.0813 -0.0781  0.0113
  197loPI   PO4 3140  13.034   8.159  10.503  0.0895 -0.0127  0.1171
  197loPI   GL1 3141  12.937   8.108  10.118 -0.1567  0.0690 -0.0035
  197loPI   GL2 3142  12.991   7.889  10.058 -0.2344 -0.1029 -0.1672
  197loPI   C1A 3143  12.860   8.446   9.850 -0.1536  0.2981 -0.0943
  197loPI   C2A 3144  12.870   8.546   9.480 -0.2221  0.1033  0.0857
  197loPI   C3A 3145  12.902   8.518   9.081  0.1870 -0.1685  0.0112
  197loPI   C4A 3146  12.907   8.472   8.631  0.1415 -0.2973 -0.1997
  197loPI   C5A 3147  12.938   8.619   8.246 -0.4098  0.1700  0.0803
  197loPI   C6A 3148  12.886   8.851   7.825 -0.1703  0.0082 -0.0457
  197loPI   C1B 3149  12.937   8.033   9.604  0.0784 -0.1069  0.0071
  197loPI   C2B 3150  13.066   8.044   9.224 -0.0007 -0.0173 -0.3253
  197loPI   C3B 3151  13.063   7.993   8.751 -0.1439 -0.1982 -0.0398
  197loPI   C4B 3152  13.024   8.043   8.301 -0.1178  0.1705  0.1715
  198loPI    C1 3153   8.616   6.607  10.490  0.2581 -0.0000 -0.1668
  198loPI    C2 3154   8.467   6.957  10.613  0.3032 -0.1213  0.2481
  198loPI    C3 3155   8.854   6.874  10.670  0.3311 -0.1720 -0.0046
  198loPI   PO4 3156   8.479   6.574  10.247 -0.1090  0.1835 -0.0735
  198loPI   GL1 3157   8.631   6.770   9.969 -0.0827 -0.1914  0.4612
  198loPI   GL2 3158   8.650   6.967   9.763 -0.0867  0.1748  0.2133
  198loPI   C1A 3159   8.924   6.615   9.580  0.1416 -0.0363  0.3948
  198loPI   C2A 3160   9.039   6.567   9.127  0.1334  0.3891 -0.3495
  198loPI   C3A 3161   9.129   6.565   8.623 -0.3247 -0.2130 -0.0614
  198loPI   C4A 3162   9.187   6.537   8.277  0.0224  0.0643  0.2263
  198loPI   C5A 3163   9.150   6.614   7.953  0.0337  0.0103 -0.0115
  198loPI   C6A 3164   8.912   6.783   7.600  0.2168  0.1054  0.1995
  198loPI   C1B 3165   8.473   6.852   9.467 -0.2371 -0.0049 -0.0153
  198loPI   C2B 3166   8.527   6.692   9.087 -0.1442 -0.3175  0.2067
  198loPI   C3B 3167   8.576   6.751   8.683  0.0618 -0.1059  0.2286
  198loPI   C4B 3168   8.681   6.764   8.283 -0.0372  0.1087  0.1791
  199loPI    C1 3169  13.050  15.649  10.418  0.2782 -0.2979 -0.0206
  199loPI    C2 3170  13.029  15.872  10.750  0.0440 -0.1161 -0.1545
  199loPI    C3 3171  13.026  15.473  10.777  0.1339 -0.1032  0.0673
  199loPI   PO4 3172  12.861  15.715  10.287 -0.3808  0.4023  0.2825
  199loPI   GL1 3173  12.939  15.829   9.888 -0.1597 -0.0789 -0.0754
  199loPI   GL2 3174  12.822  16.201   9.964 -0.3663  0.0006  0.2056
  199loPI   C1A 3175  12.897  15.779   9.406  0.2340  0.0271  0.0076
  199loPI   C2A 3176  12.988  15.672   8.985 -0.0777  0.0220 -0.3386
  199loPI   C3A 3177  12.973  15.662   8.598  0.0963 -0.2349  0.0794
  199loPI   C4A 3178  12.951  15.669   8.117 -0.0216  0.0085 -0.1420
  199loPI   C5A 3179  12.918  15.888   7.679 -0.0392 -0.1693 -0.0825
  199loPI   C6A 3180  13.040  16.350   7.644  0.0015  0.1921  0.2319
  199loPI   C1B 3181  12.785  16.241   9.491 -0.0570 -0.0123  0.1986
  199loPI   C2B 3182  12.901  16.154   9.057 -0.0823  0.0913  0.2027
  199loPI   C3B 3183  12.909  16.145   8.605 -0.2599  0.1667 -0.0927
  199loPI   C4B 3184  12.971  16.200   8.130 -0.0706 -0.2039 -0.1272
  200loPI    C1 3185  18.092  14.783  11.067 -0.0715 -0.0396  0.0901
  200loPI    C2 3186  17.705  14.769  11.168 -0.0603  0.4428  0.2230
  200loPI    C3 3187  17.817  14.942  10.825  0.0296  0.1808  0.1177
  200loPI   PO4 3188  18.187  14.569  11.053  0.1963  0.4408  0.1324
  200loPI   GL1 3189  18.242  14.267  10.653  0.2406 -0.0286  0.1927
  200loPI   GL2 3190  17.995  14.027  10.533  0.0241 -0.0478  0.1907
  200loPI   C1A 3191  18.254  14.410  10.328 -0.0963  0.1605  0.4222
  200loPI   C2A 3192  18.330  14.274   9.869  0.4062  0.1364 -0.0914
  200loPI   C3A 3193  18.299  14.400   9.527  0.1208 -0.0585 -0.0376
  200loPI   C4A 3194  18.205  14.403   9.179 -0.0197 -0.0112  0.3485
  200loPI   C5A 3195  18.171  14.384   8.738 -0.2431  0.0054 -0.2948
  200loPI   C6A 3196  18.246  14.669   8.388  0.1097 -0.2699 -0.5210
  200loPI   C1B 3197  17.938  14.042  10.164 -0.0864 -0.0984  0.0494
  200loPI   C2B 3198  17.916  13.906   9.816  0.1329  0.0141 -0.1230
  200loPI   C3B 3199  17.960  13.954   9.372  0.1465 -0.1297 -0.0001
  200loPI   C4B 3200  17.888  14.050   8.945  0.1554  0.0561  0.0002
  201loPI    C1 3201   4.252   2.198  11.566  0.0749  0.3167  0.0998
  201loPI    C2 3202   4.460   1.859  11.607 -0.0073  0.2462 -0.0589
  201loPI    C3 3203   4.147   1.931  11.844 -0.0122  0.1941 -0.0496
  201loPI   PO4 3204   4.074   2.168  11.279 -0.2626  0.0666  0.0438
  201loPI   GL1 3205   4.124   2.018  10.840  0.1394 -0.0874 -0.1007
  201loPI   GL2 3206   3.879   2.199  10.648 -0.2252  0.0599 -0.1646
  201loPI   C1A 3207   4.351   1.921  10.467 -0.1178  0.1447 -0.0527
  201loPI   C2A 3208   4.350   1.893  10.084  0.0261  0.0382 -0.0531
  201loPI   C3A 3209   4.250   1.857   9.701  0.0803  0.1621 -0.0190
  201loPI   C4A 3210   4.318   1.805   9.349 -0.0514 -0.1764  0.0184
  201loPI   C5A 3211   4.438   1.928   8.847 -0.1412 -0.2240  0.1054
  201loPI   C6A 3212   4.406   1.842   8.438 -0.0799  0.0548 -0.1294
  201loPI   C1B 3213   3.899   2.136  10.175 -0.1919  0.0339  0.1848
  201loPI   C2B 3214   3.773   1.994   9.800 -0.1208  0.0388  0.3879
  201loPI   C3B 3215   3.884   2.024   9.388  0.4494 -0.0157 -0.4549
  201loPI   C4B 3216   3.857   2.076   8.905 -0.0724  0.1544  0.0149
  202loPI    C1 3217  13.949  10.395  10.782 -0.0879 -0.3856 -0.0951
  202loPI    C2 3218  13.808  10.241  11.123 -0.0389  0.0159  0.1125
  202loPI    C3 3219  13.556  10.395  10.853 -0.0644 -0.1413  0.0458
  202loPI   PO4 3220  14.051  10.144  10.680 -0.4120 -0.2378 -0.1034
  202loPI   GL1 3221  14.301   9.992  10.300 -0.2821  0.0012  0.3058
  202loPI   GL2 3222  14.649   9.787  10.239 -0.1650 -0.1227  0.0044
  202loPI   C1A 3223  13.987   9.988   9.946 -0.1270  0.2585  0.1745
  202loPI   C2A 3224  14.033  10.032   9.541 -0.4074 -0.0694  0.1848
  202loPI   C3A 3225  14.059  10.166   9.018 -0.0644  0.0342  0.1861
  202loPI   C4A 3226  14.051  10.034   8.651 -0.1888 -0.1817 -0.2853
  202loPI   C5A 3227  14.006   9.986   8.170 -0.3229 -0.2629  0.0152
  202loPI   C6A 3228  13.655  10.045   8.051 -0.1094 -0.0448  0.0659
  202loPI   C1B 3229  14.548   9.825   9.832  0.2090 -0.1096  0.0973
  202loPI   C2B 3230  14.456   9.918   9.338 -0.2277  0.3045  0.1955
  202loPI   C3B 3231  14.556   9.885   8.875  0.0765  0.1781 -0.0634
  202loPI   C4B 3232  14.490   9.888   8.438 -0.0905  0.1451  0.0205
  203loPI    C1 3233   1.101   6.434  11.061  0.0538  0.1263  0.2409
  203loPI    C2 3234   1.288   6.132  11.246  0.0629  0.2057  0.3625
  203loPI    C3 3235   1.499   6.439  11.100  0.0662  0.0925  0.1234
  203loPI   PO4 3236   0.953   6.421  10.835 -0.1763 -0.0931 -0.1902
  203loPI   GL1 3237   1.020   6.455  10.295 -0.1887 -0.4108  0.0490
  203loPI   GL2 3238   0.974   6.715  10.454  0.0265  0.0047  0.1306
  203loPI   C1A 3239   1.149   6.359   9.904 -0.0912 -0.1966 -0.1503
  203loPI   C2A 3240   1.169   6.436   9.466 -0.2117  0.1568  0.0693
  203loPI   C3A 3241   1.160   6.362   9.098 -0.0666  0.0266  0.0387
  203loPI   C4A 3242   1.213   6.386   8.697  0.1600 -0.1005 -0.0936
  203loPI   C5A 3243   1.259   6.288   8.286 -0.3074 -0.1618 -0.2549
  203loPI   C6A 3244   1.423   5.869   7.906  0.0947 -0.1330  0.0429
  203loPI   C1B 3245   1.069   6.826   9.994  0.1818 -0.1327  0.2323
  203loPI   C2B 3246   1.149   6.900   9.601 -0.0076 -0.0276  0.0537
  203loPI   C3B 3247   1.074   6.864   9.213 -0.3032 -0.0408  0.3305
  203loPI   C4B 3248   1.149   6.947   8.712  0.0525  0.0588 -0.0513
  204loPI    C1 3249   7.994  13.456  10.926  0.4114 -0.1829  0.0889
  204loPI    C2 3250   7.871  13.809  11.070 -0.0952 -0.1609 -0.3693
  204loPI    C3 3251   7.879  13.488  11.308  0.0099  0.0757 -0.0471
  204loPI   PO4 3252   7.896  13.347  10.659  0.1708  0.1441  0.2751
  204loPI   GL1 3253   7.605  13.473  10.358 -0.0389  0.0775  0.2150
  204loPI   GL2 3254   7.534  13.289  10.117  0.0424  0.0919  0.0338
  204loPI   C1A 3255   7.378  13.761  10.060  0.2138  0.0058  0.2561
  204loPI   C2A 3256   7.319  13.861   9.532  0.0167 -0.2202 -0.0710
  204loPI   C3A 3257   7.399  13.841   9.088  0.0141 -0.1365 -0.2322
  204loPI   C4A 3258   7.380  13.854   8.627  0.0342 -0.1334 -0.0201
  204loPI   C5A 3259   7.526  13.708   8.276 -0.2417 -0.1351 -0.0387
  204loPI   C6A 3260   7.928  13.772   8.176  0.1838 -0.0537  0.1054
  204loPI   C1B 3261   7.466  13.367   9.668  0.3883  0.1380 -0.2122
  204loPI   C2B 3262   7.453  13.379   9.248 -0.0519  0.1561 -0.2316
  204loPI   C3B 3263   7.496  13.370   8.855  0.2177 -0.3877 -0.1804
  204loPI   C4B 3264   7.666  13.235   8.456 -0.1057  0.0025  0.4216
  205loPI    C1 3265   9.282   8.054  10.238  0.2669  0.0473  0.1901
  205loPI    C2 3266   9.037   8.087  10.552 -0.1468 -0.4219 -0.0692
  205loPI    C3 3267   9.411   7.955  10.603 -0.0420 -0.0127  0.2852
  205loPI   PO4 3268   9.096   8.062  10.042  0.0976 -0.0377  0.4030
  205loPI   GL1 3269   8.970   8.026   9.621  0.2066  0.2175 -0.3427
  205loPI   GL2 3270   8.754   7.925   9.460  0.2769 -0.1878  0.1320
  205loPI   C1A 3271   9.238   7.855   9.324 -0.0977 -0.0006 -0.0083
  205loPI   C2A 3272   9.284   7.810   8.886  0.0273  0.2490 -0.1002
  205loPI   C3A 3273   9.437   7.931   8.500 -0.1220 -0.0406 -0.1831
  205loPI   C4A 3274   9.318   8.003   8.059 -0.1308  0.0475 -0.2267
  205loPI   C5A 3275   9.242   8.331   7.819 -0.0105 -0.1415  0.1556
  205loPI   C6A 3276   9.159   8.589   7.463 -0.1081  0.1062  0.0858
  205loPI   C1B 3277   8.854   8.037   9.134  0.2229 -0.0100  0.1407
  205loPI   C2B 3278   8.834   8.156   8.741 -0.2231  0.0013 -0.0803
  205loPI   C3B 3279   8.872   8.200   8.273 -0.0676  0.1466 -0.0764
  205loPI   C4B 3280   8.718   8.366   7.838 -0.0091  0.2972 -0.3425
  206loPI    C1 3281   4.264   3.935  10.978 -0.2537  0.2898  0.0185
  206loPI    C2 3282   4.342   4.038  11.357 -0.0308  0.1981 -0.0012
  206loPI    C3 3283   4.139   3.702  11.278  0.3003 -0.0136  0.0267
  206loPI   PO4 3284   4.515   3.951  10.868  0.1437 -0.1894 -0.0017
  206loPI   GL1 3285   4.600   3.947  10.469  0.0147 -0.0012 -0.1239
  206loPI   GL2 3286   4.831   3.791  10.348  0.1742 -0.2526 -0.1791
  206loPI   C1A 3287   4.401   3.841  10.081  0.0366  0.0277  0.0336
  206loPI   C2A 3288   4.479   3.836   9.625 -0.3257 -0.2887  0.0308
  206loPI   C3A 3289   4.505   3.806   9.084 -0.2864  0.2671  0.0852
  206loPI   C4A 3290   4.429   3.716   8.666 -0.1253 -0.0026 -0.2857
  206loPI   C5A 3291   4.159   3.464   8.489  0.0814 -0.1315  0.3089
  206loPI   C6A 3292   3.840   3.172   8.458 -0.2634  0.3485  0.0780
  206loPI   C1B 3293   4.856   3.644   9.991 -0.1090 -0.2927  0.1377
  206loPI   C2B 3294   4.884   3.601   9.496  0.1763 -0.0231 -0.0700
  206loPI   C3B 3295   4.987   3.649   9.018 -0.3789 -0.0190  0.3989
  206loPI   C4B 3296   4.994   3.705   8.489 -0.0761  0.0919 -0.4239
  207loPI    C1 3297   1.160  12.313  11.352 -0.1312 -0.0484  0.1351
  207loPI    C2 3298   1.314  12.614  11.566  0.0929 -0.0659  0.0001
  207loPI    C3 3299   1.124  12.315  11.751 -0.0798  0.1280  0.1396
  207loPI   PO4 3300   1.032  12.315  11.163  0.1407 -0.3332 -0.0006
  207loPI   GL1 3301   1.007  12.460  10.739  0.3439 -0.1041 -0.0843
  207loPI   GL2 3302   1.084  12.132  10.542 -0.1869  0.0819  0.2931
  207loPI   C1A 3303   0.874  12.575  10.345  0.1651  0.2612 -0.1132
  207loPI   C2A 3304   0.849  12.647   9.910  0.1502 -0.1167 -0.0016
  207loPI   C3A 3305   0.901  12.649   9.552  0.1190  0.0341  0.0220
  207loPI   C4A 3306   0.872  12.653   9.136  0.0013  0.0072  0.3526
  207loPI   C5A 3307   0.896  12.752   8.663  0.3280  0.1545  0.1254
  207loPI   C6A 3308   0.623  13.041   8.377  0.1833  0.1070 -0.1457
  207loPI   C1B 3309   1.011  12.127  10.109 -0.1128  0.2790  0.1910
  207loPI   C2B 3310   0.988  12.196   9.695  0.2119 -0.0980 -0.1421
  207loPI   C3B 3311   0.982  12.145   9.233 -0.0536  0.1095 -0.0766
  207loPI   C4B 3312   0.914  12.027   8.763 -0.0312 -0.0185  0.1903
  208loPI    C1 3313   5.423  17.236  11.290 -0.0232 -0.1418 -0.0820
  208loPI    C2 3314   5.274  16.913  11.471 -0.1426  0.0325  0.1355
  208loPI    C3 3315   5.269  17.267  11.658  0.3576  0.0833  0.0646
  208loPI   PO4 3316   5.581  17.038  11.102  0.0034 -0.0358 -0.0268
  208loPI   GL1 3317   5.516  16.855  10.691  0.1270 -0.0359 -0.1816
  208loPI   GL2 3318   5.389  16.627  10.502  0.1946 -0.2875  0.1446
  208loPI   C1A 3319   5.359  17.118  10.390 -0.2132 -0.0422 -0.0673
  208loPI   C2A 3320   5.300  17.322  10.021  0.0856  0.0976 -0.1519
  208loPI   C3A 3321   5.352  17.323   9.589 -0.2303  0.1058  0.0881
  208loPI   C4A 3322   5.344  17.445   9.179 -0.3128  0.1802 -0.0227
  208loPI   C5A 3323   5.580  17.618   8.663 -0.1811 -0.0322 -0.1263
  208loPI   C6A 3324   5.795  17.948   8.659 -0.0686  0.0752  0.0499
  208loPI   C1B 3325   5.401  16.738  10.054  0.2330  0.0205 -0.0210
  208loPI   C2B 3326   5.365  16.797   9.769 -0.1455 -0.3427  0.2310
  208loPI   C3B 3327   5.410  16.857   9.322  0.0795  0.3256  0.1163
  208loPI   C4B 3328   5.520  16.992   8.983 -0.2981  0.2519  0.0646
  209loPI    C1 3329   1.050   7.082  10.747  0.1173 -0.3754 -0.0174
  209loPI    C2 3330   0.689   6.916  10.796 -0.0530  0.0151  0.0959
  209loPI    C3 3331   0.940   6.946  11.107 -0.0253 -0.0221  0.0771
  209loPI   PO4 3332   0.978   7.301  10.614  0.1005 -0.1689 -0.2236
  209loPI   GL1 3333   0.801   7.222  10.138 -0.2440  0.0842 -0.0084
  209loPI   GL2 3334   0.563   7.415  10.102 -0.0113 -0.3850  0.0998
  209loPI   C1A 3335   0.969   7.279   9.885  0.1027 -0.0277 -0.2191
  209loPI   C2A 3336   0.968   7.359   9.477  0.2194 -0.1096 -0.0932
  209loPI   C3A 3337   0.960   7.376   9.043 -0.0044  0.2510  0.3154
  209loPI   C4A 3338   0.980   7.454   8.598  0.3758 -0.3531 -0.2662
  209loPI   C5A 3339   0.781   7.221   8.382  0.2268  0.3772  0.3425
  209loPI   C6A 3340   0.434   6.841   8.267 -0.0565  0.1509  0.2447
  209loPI   C1B 3341   0.489   7.474   9.777 -0.0433  0.2756  0.0412
  209loPI   C2B 3342   0.482   7.525   9.359 -0.3342  0.2126 -0.1733
  209loPI   C3B 3343   0.472   7.590   8.936  0.1134 -0.3307 -0.0247
  209loPI   C4B 3344   0.399   7.515   8.482 -0.2960 -0.0920 -0.3771
  210loPI    C1 3345   0.590  17.333  10.933 -0.1809  0.1784 -0.0477
  210loPI    C2 3346   0.411  17.147  11.238 -0.2638  0.0735 -0.1594
  210loPI    C3 3347   0.602  17.493  11.300 -0.1986  0.0051  0.0292
  210loPI   PO4 3348   0.435  17.418  10.799 -0.0188  0.0472 -0.1040
  210loPI   GL1 3349   0.420  17.361  10.416  0.2606  0.1007  0.1252
  210loPI   GL2 3350   0.641  17.567  10.376 -0.1910  0.3970  0.1493
  210loPI   C1A 3351   0.317  17.174  10.086 -0.0050  0.1188  0.0516
  210loPI   C2A 3352   0.430  17.065   9.708 -0.0717  0.1708 -0.0115
  210loPI   C3A 3353   0.431  17.130   9.280  0.4101 -0.0926  0.1402
  210loPI   C4A 3354   0.424  17.159   8.884 -0.1529 -0.3229 -0.2395
  210loPI   C5A 3355   0.304  17.081   8.491 -0.2950 -0.0344 -0.1097
  210loPI   C6A 3356   0.275  17.448   8.285 -0.0837 -0.4829  0.1613
  210loPI   C1B 3357   0.744  17.547   9.988  0.1040  0.0499 -0.1309
  210loPI   C2B 3358   0.802  17.350   9.564  0.0333 -0.0847 -0.0624
  210loPI   C3B 3359   0.701  17.549   9.118 -0.0368 -0.2339  0.3025
  210loPI   C4B 3360   0.723  17.458   8.639  0.1362 -0.1211  0.0680
  211loPI    C1 3361   3.726   8.891  10.658 -0.1632 -0.2199  0.1104
  211loPI    C2 3362   3.661   9.286  10.665 -0.0420 -0.2010  0.2097
  211loPI    C3 3363   3.410   9.039  10.854 -0.3282 -0.2039 -0.1629
  211loPI   PO4 3364   3.835   8.776  10.485  0.0505 -0.0523  0.0564
  211loPI   GL1 3365   3.781   8.869  10.158 -0.0755 -0.0783 -0.2407
  211loPI   GL2 3366   3.784   9.199  10.190  0.2263  0.1361 -0.2012
  211loPI   C1A 3367   3.845   8.794   9.711 -0.0406 -0.0756 -0.1789
  211loPI   C2A 3368   3.868   8.806   9.211 -0.1490  0.2711  0.2906
  211loPI   C3A 3369   3.927   8.784   8.795  0.2152  0.2236 -0.2126
  211loPI   C4A 3370   3.896   8.647   8.392  0.1206 -0.1730  0.1681
  211loPI   C5A 3371   4.021   8.428   7.945 -0.2458 -0.0611  0.0961
  211loPI   C6A 3372   4.044   7.975   7.889 -0.1233 -0.3178 -0.0965
  211loPI   C1B 3373   3.772   9.258   9.792 -0.0387 -0.2597  0.1505
  211loPI   C2B 3374   3.795   9.325   9.380  0.1024 -0.3708 -0.1102
  211loPI   C3B 3375   3.704   9.240   8.961  0.1236  0.1587 -0.3762
  211loPI   C4B 3376   3.411   9.416   8.599 -0.1414 -0.1523  0.1955
  212loPI    C1 3377  16.514   5.451  10.946 -0.2036 -0.1827  0.0343
  212loPI    C2 3378  16.880   5.332  11.057 -0.0079  0.1854 -0.1955
  212loPI    C3 3379  16.733   5.679  11.192 -0.1486  0.1848 -0.3444
  212loPI   PO4 3380  16.455   5.391  10.665  0.2050 -0.1751  0.2146
  212loPI   GL1 3381  16.522   5.271  10.251  0.0287  0.0432  0.5174
  212loPI   GL2 3382  16.334   5.455  10.095  0.0540  0.2882  0.2550
  212loPI   C1A 3383  16.472   5.008   9.812 -0.1160  0.0877  0.0150
  212loPI   C2A 3384  16.388   5.056   9.446  0.0438  0.0898 -0.1009
  212loPI   C3A 3385  16.349   5.059   8.988 -0.2382  0.1064 -0.1973
  212loPI   C4A 3386  16.374   4.879   8.679 -0.1565 -0.1817  0.0935
  212loPI   C5A 3387  16.368   4.934   8.235 -0.0631  0.2609  0.1405
  212loPI   C6A 3388  16.550   4.696   7.890 -0.0747  0.0657  0.0523
  212loPI   C1B 3389  16.359   5.480   9.670  0.4006  0.0162 -0.6346
  212loPI   C2B 3390  16.245   5.530   9.316  0.1346 -0.0196  0.1223
  212loPI   C3B 3391  16.199   5.571   8.895 -0.0265 -0.2278  0.1915
  212loPI   C4B 3392  16.223   5.370   8.569 -0.1109 -0.0477  0.0670
  213loPI    C1 3393   1.632  15.182  11.314  0.0881 -0.2961 -0.0884
  213loPI    C2 3394   1.380  15.155  11.624 -0.0583 -0.1559 -0.1936
  213loPI    C3 3395   1.775  15.136  11.685 -0.0760  0.1307  0.0338
  213loPI   PO4 3396   1.510  15.279  11.068  0.2120  0.1937  0.0469
  213loPI   GL1 3397   1.628  15.209  10.607 -0.2045 -0.2095  0.2489
  213loPI   GL2 3398   1.315  15.014  10.653  0.0864 -0.0253 -0.0787
  213loPI   C1A 3399   1.645  15.283  10.110  0.0164 -0.3364  0.2656
  213loPI   C2A 3400   1.725  15.282   9.659  0.4402 -0.3678  0.0076
  213loPI   C3A 3401   1.630  15.283   9.284 -0.1448  0.0480 -0.0612
  213loPI   C4A 3402   1.663  15.150   8.809  0.3750 -0.1197 -0.1178
  213loPI   C5A 3403   1.856  15.370   8.422  0.3405 -0.1587  0.3471
  213loPI   C6A 3404   2.115  15.134   8.162 -0.0840  0.0417 -0.1369
  213loPI   C1B 3405   1.280  14.948  10.237 -0.2658 -0.1024  0.0875
  213loPI   C2B 3406   1.377  14.953   9.840 -0.2576  0.3098 -0.0567
  213loPI   C3B 3407   1.392  14.828   9.442 -0.1229  0.1100  0.1904
  213loPI   C4B 3408   1.284  14.891   9.066  0.4039 -0.1379  0.0317
  214loPI    C1 3409  12.657  13.861  10.755  0.0137  0.0588 -0.2236
  214loPI    C2 3410  12.288  13.881  10.908  0.0190 -0.0867 -0.1902
  214loPI    C3 3411  12.556  13.630  11.065  0.1015 -0.0553 -0.2793
  214loPI   PO4 3412  12.628  13.853  10.554  0.1848  0.3897 -0.1903
  214loPI   GL1 3413  12.516  13.571  10.174  0.1287 -0.1955  0.2885
  214loPI   GL2 3414  12.307  13.311  10.117 -0.1935  0.1116 -0.3863
  214loPI   C1A 3415  12.437  13.489   9.697  0.0704  0.3353  0.2704
  214loPI   C2A 3416  12.540  13.510   9.264 -0.0674 -0.3602 -0.0087
  214loPI   C3A 3417  12.401  13.454   8.822 -0.1968  0.1249 -0.0532
  214loPI   C4A 3418  12.347  13.471   8.498 -0.3557  0.1647 -0.1401
  214loPI   C5A 3419  12.570  13.439   8.095  0.1970  0.0995 -0.1056
  214loPI   C6A 3420  12.862  13.241   7.822  0.1068 -0.1937  0.0517
  214loPI   C1B 3421  12.042  13.207   9.699  0.0539  0.0062  0.1720
  214loPI   C2B 3422  12.098  13.205   9.210  0.0090 -0.0596  0.0029
  214loPI   C3B 3423  12.075  13.097   8.758 -0.2349 -0.0509 -0.1025
  214loPI   C4B 3424  12.024  13.127   8.323 -0.1891 -0.0536 -0.0222
  215loPI    C1 3425  10.932   4.025  10.331  0.0767  0.1620 -0.0019
  215loPI    C2 3426  11.288   4.049  10.511 -0.0472 -0.0139  0.2719
  215loPI    C3 3427  10.956   3.996  10.729 -0.2176 -0.0715  0.0026
  215loPI   PO4 3428  10.994   3.903  10.060 -0.0261 -0.0477 -0.1565
  215loPI   GL1 3429  11.119   4.044   9.668 -0.1600 -0.0309 -0.2455
  215loPI   GL2 3430  10.808   3.977   9.582  0.1200 -0.2209  0.0207
  215loPI   C1A 3431  11.393   3.865   9.410  0.0900  0.2470  0.0264
  215loPI   C2A 3432  11.414   3.883   9.018  0.0539  0.1662 -0.1781
  215loPI   C3A 3433  11.445   3.858   8.525 -0.1788  0.3257 -0.5642
  215loPI   C4A 3434  11.544   3.788   8.213  0.4073 -0.1519 -0.0960
  215loPI   C5A 3435  11.554   3.896   7.759 -0.1695  0.0266 -0.0650
  215loPI   C6A 3436  11.186   4.049   7.655  0.0891  0.2032  0.3225
  215loPI   C1B 3437  10.960   4.070   9.199 -0.1885 -0.2952  0.0623
  215loPI   C2B 3438  10.977   3.983   8.700 -0.0590 -0.1195 -0.3999
  215loPI   C3B 3439  11.002   3.970   8.238 -0.2155 -0.2944  0.0517
  215loPI   C4B 3440  10.767   3.915   7.871 -0.0149  0.2664  0.0750
  216loPI    C1 3441   2.365   4.003  10.434 -0.1533 -0.2409 -0.0177
  216loPI    C2 3442   2.374   4.177  10.794 -0.0666 -0.1250 -0.0755
  216loPI    C3 3443   2.375   3.778  10.765 -0.1353 -0.1352  0.0539
  216loPI   PO4 3444   2.158   4.162  10.268 -0.0038 -0.0781  0.2915
  216loPI   GL1 3445   2.108   4.240   9.844 -0.1486 -0.0183  0.1295
  216loPI   GL2 3446   1.896   4.105   9.724 -0.3251  0.0350 -0.1648
  216loPI   C1A 3447   2.211   4.269   9.412 -0.0758  0.2166  0.5588
  216loPI   C2A 3448   2.036   4.165   9.013  0.3374 -0.0422  0.3004
  216loPI   C3A 3449   2.051   4.188   8.497 -0.4548  0.0315  0.0635
  216loPI   C4A 3450   2.220   4.292   8.154 -0.2030 -0.1258 -0.0956
  216loPI   C5A 3451   2.210   4.598   7.923 -0.1847  0.1944 -0.4756
  216loPI   C6A 3452   2.125   4.972   7.872 -0.0665 -0.2935  0.1799
  216loPI   C1B 3453   1.708   4.289   9.425  0.0812 -0.1547 -0.0043
  216loPI   C2B 3454   1.530   4.337   8.941  0.0035 -0.2247  0.0976
  216loPI   C3B 3455   1.613   4.506   8.468 -0.2783  0.0805 -0.0406
  216loPI   C4B 3456   1.785   4.410   8.082 -0.0932 -0.2996  0.3085
  217loPI    C1 3457  15.555  13.109  11.080 -0.0571 -0.2527  0.1811
  217loPI    C2 3458  15.297  13.371  11.239  0.1428  0.0320  0.0455
  217loPI    C3 3459  15.340  13.008  11.402 -0.3294 -0.0155  0.0786
  217loPI   PO4 3460  15.473  13.126  10.802  0.0823 -0.0912  0.0518
  217loPI   GL1 3461  15.631  12.964  10.497 -0.2577  0.1247 -0.1298
  217loPI   GL2 3462  15.942  13.116  10.451 -0.1568 -0.0429  0.2272
  217loPI   C1A 3463  15.283  13.111  10.109  0.0233 -0.2442  0.2754
  217loPI   C2A 3464  15.350  13.051   9.679  0.0897  0.1057 -0.1404
  217loPI   C3A 3465  15.273  12.949   9.231 -0.2454  0.0771 -0.0630
  217loPI   C4A 3466  15.378  12.938   8.801 -0.0482 -0.2490 -0.1064
  217loPI   C5A 3467  15.338  12.983   8.352  0.0858  0.1588 -0.0228
  217loPI   C6A 3468  15.455  12.777   7.974 -0.0021  0.1478 -0.1578
  217loPI   C1B 3469  15.868  12.929   9.968  0.2293 -0.3133 -0.0920
  217loPI   C2B 3470  15.853  12.893   9.523  0.1020  0.1848  0.4775
  217loPI   C3B 3471  15.801  12.845   9.129  0.2423 -0.0449  0.2314
  217loPI   C4B 3472  15.951  12.801   8.684 -0.1677  0.0779  0.0681
  218loPI    C1 3473  13.968   5.347  10.756  0.2999 -0.1590  0.0022
  218loPI    C2 3474  13.750   5.044  10.897  0.2399 -0.0371  0.1748
  218loPI    C3 3475  13.980   5.257  11.145  0.3209  0.0268  0.0458
  218loPI   PO4 3476  13.933   5.329  10.479 -0.2773  0.4907  0.0030
  218loPI   GL1 3477  13.978   5.130  10.074 -0.3017  0.1588  0.0230
  218loPI   GL2 3478  14.040   4.865   9.983  0.0383 -0.3088  0.0430
  218loPI   C1A 3479  14.072   5.285   9.749  0.0437  0.2886 -0.1147
  218loPI   C2A 3480  14.026   5.313   9.367 -0.1702 -0.2524  0.0645
  218loPI   C3A 3481  13.972   5.386   8.999 -0.0319  0.2610  0.3842
  218loPI   C4A 3482  13.910   5.299   8.601 -0.1025 -0.0734 -0.1148
  218loPI   C5A 3483  14.001   5.307   8.314 -0.0377 -0.2133  0.3775
  218loPI   C6A 3484  13.951   5.662   8.012 -0.3499  0.0224 -0.2001
  218loPI   C1B 3485  14.150   4.721   9.564  0.2241 -0.1430  0.0618
  218loPI   C2B 3486  14.168   4.787   9.232  0.1528 -0.0831  0.2401
  218loPI   C3B 3487  14.022   4.869   8.849  0.1001  0.3550  0.2543
  218loPI   C4B 3488  14.143   4.831   8.451 -0.1440 -0.2949 -0.0901
  219loPI    C1 3489   6.056   4.213  10.946 -0.1082 -0.1243  0.0763
  219loPI    C2 3490   5.837   4.511  11.101  0.0454  0.0135  0.0313
  219loPI    C3 3491   6.103   4.318  11.329 -0.1134 -0.1463  0.0829
  219loPI   PO4 3492   5.864   4.205  10.650 -0.2396  0.2537 -0.1897
  219loPI   GL1 3493   5.770   4.480  10.303 -0.1825  0.2727  0.2250
  219loPI   GL2 3494   6.071   4.428  10.203 -0.0601 -0.1892  0.0381
  219loPI   C1A 3495   5.670   4.326   9.869 -0.1354  0.0110  0.2843
  219loPI   C2A 3496   5.705   4.403   9.346  0.1376 -0.1660 -0.0312
  219loPI   C3A 3497   5.826   4.320   8.949  0.0288  0.3181 -0.3695
  219loPI   C4A 3498   5.756   4.338   8.500 -0.1675 -0.0506  0.1403
  219loPI   C5A 3499   5.794   4.100   8.183 -0.0382 -0.1336  0.2044
  219loPI   C6A 3500   5.715   3.725   8.107  0.1251 -0.1103  0.0963
  219loPI   C1B 3501   6.106   4.639   9.784 -0.0303 -0.0958  0.0694
  219loPI   C2B 3502   6.225   4.655   9.338  0.1889  0.3094  0.2469
  219loPI   C3B 3503   6.161   4.710   9.006  0.1387  0.0362 -0.0540
  219loPI   C4B 3504   6.152   4.669   8.519 -0.1408 -0.0043  0.0502
  220loPI    C1 3505  16.487   8.786  10.985 -0.0682  0.0470 -0.0551
  220loPI    C2 3506  16.261   8.466  11.064  0.0822 -0.0217  0.1020
  220loPI    C3 3507  16.608   8.518  11.256  0.1569  0.1297 -0.0717
  220loPI   PO4 3508  16.521   8.754  10.720  0.1091  0.0972  0.1026
  220loPI   GL1 3509  16.370   8.583  10.370 -0.0750  0.0872  0.3066
  220loPI   GL2 3510  16.194   8.660  10.205  0.0830 -0.0458  0.0191
  220loPI   C1A 3511  16.561   8.570   9.905  0.0126 -0.1262  0.0801
  220loPI   C2A 3512  16.693   8.710   9.533 -0.2215 -0.2252  0.1719
  220loPI   C3A 3513  16.600   8.694   9.077  0.0009  0.0723 -0.1496
  220loPI   C4A 3514  16.634   8.808   8.686  0.0306 -0.1791 -0.1663
  220loPI   C5A 3515  16.647   8.844   8.275 -0.1095 -0.0887  0.0430
  220loPI   C6A 3516  16.805   8.857   7.818  0.0930 -0.0793  0.2713
  220loPI   C1B 3517  16.119   8.801   9.765 -0.2012 -0.1765  0.0119
  220loPI   C2B 3518  16.191   8.896   9.395  0.0136  0.0640  0.2912
  220loPI   C3B 3519  16.072   8.876   9.020  0.2140  0.0737  0.3101
  220loPI   C4B 3520  16.172   8.986   8.553 -0.1343  0.3259  0.0617
  221loPI    C1 3521   1.116  11.170  11.118  0.1350 -0.1460  0.1713
  221loPI    C2 3522   1.361  11.080  11.422  0.2972  0.0636  0.1057
  221loPI    C3 3523   1.087  11.368  11.465  0.1715 -0.0576  0.1243
  221loPI   PO4 3524   1.131  10.967  10.919 -0.0174  0.4331 -0.2756
  221loPI   GL1 3525   1.072  10.888  10.534 -0.0009  0.0518  0.3657
  221loPI   GL2 3526   0.879  10.663  10.371 -0.0642 -0.1372  0.2154
  221loPI   C1A 3527   1.239  11.083  10.207  0.0072 -0.2032  0.1466
  221loPI   C2A 3528   1.141  11.098   9.802 -0.2565 -0.0258 -0.1498
  221loPI   C3A 3529   1.119  11.119   9.298 -0.0184 -0.1834  0.0022
  221loPI   C4A 3530   1.164  11.039   8.826  0.0251 -0.0642  0.1229
  221loPI   C5A 3531   1.310  10.860   8.409  0.1808 -0.3436  0.0280
  221loPI   C6A 3532   1.569  10.907   8.095 -0.0874  0.0795 -0.1900
  221loPI   C1B 3533   0.750  10.792   9.974 -0.2145  0.2749 -0.5323
  221loPI   C2B 3534   0.765  10.825   9.463 -0.1792  0.0645 -0.2276
  221loPI   C3B 3535   0.753  10.763   8.995 -0.0918 -0.1632 -0.2157
  221loPI   C4B 3536   0.820  10.725   8.532  0.1665 -0.1551  0.0962
  222loPI    C1 3537  17.829  16.652  11.027 -0.1305  0.1678 -0.0190
  222loPI    C2 3538  17.656  16.990  11.155  0.0833  0.2499  0.0577
  222loPI    C3 3539  17.805  16.728  11.419 -0.1368  0.0638  0.0011
  222loPI   PO4 3540  17.920  16.733  10.715 -0.3430  0.0268  0.3178
  222loPI   GL1 3541  18.025  16.425  10.428 -0.2970  0.1677 -0.1450
  222loPI   GL2 3542  17.866  16.053  10.494 -0.0314 -0.2219 -0.0497
  222loPI   C1A 3543  18.359  16.447  10.077  0.2236  0.1434  0.1185
  222loPI   C2A 3544  18.360  16.189   9.709  0.0123 -0.1018  0.1703
  222loPI   C3A 3545  18.288  16.165   9.241 -0.1757 -0.0160  0.0908
  222loPI   C4A 3546  18.341  16.181   8.744  0.0819 -0.1198  0.0652
  222loPI   C5A 3547  18.232  16.341   8.325  0.2467  0.1551 -0.2084
  222loPI   C6A 3548  18.324  16.779   8.060 -0.2124  0.0461  0.3393
  222loPI   C1B 3549  17.935  15.932  10.039 -0.1172 -0.1109  0.0391
  222loPI   C2B 3550  17.958  15.854   9.486  0.0222  0.0601  0.2147
  222loPI   C3B 3551  17.966  15.923   8.962 -0.3285  0.0147 -0.0005
  222loPI   C4B 3552  17.998  15.908   8.585  0.1903 -0.2247  0.2799
  223loPI    C1 3553  17.861   8.460  11.130 -0.2346 -0.0930 -0.0031
  223loPI    C2 3554  17.802   8.852  11.182  0.0794 -0.0588  0.1182
  223loPI    C3 3555  17.652   8.590  11.445  0.2461  0.0098  0.2834
  223loPI   PO4 3556  18.047   8.497  10.883 -0.2860  0.0291 -0.1204
  223loPI   GL1 3557  18.000   8.530  10.414 -0.2375  0.2811  0.1362
  223loPI   GL2 3558  18.322   8.387  10.443 -0.0217  0.2771 -0.1639
  223loPI   C1A 3559  17.951   8.715   9.984  0.3908  0.0546  0.2798
  223loPI   C2A 3560  17.958   8.825   9.555 -0.0519  0.2079 -0.4153
  223loPI   C3A 3561  17.985   8.727   9.163 -0.1236 -0.2184 -0.2154
  223loPI   C4A 3562  17.956   8.759   8.701 -0.4281  0.5062 -0.2233
  223loPI   C5A 3563  17.923   8.856   8.281 -0.1813  0.0075 -0.1834
  223loPI   C6A 3564  18.115   9.255   8.067  0.0952 -0.1163 -0.1408
  223loPI   C1B 3565  18.393   8.404   9.962 -0.3325  0.1622 -0.3143
  223loPI   C2B 3566  18.370   8.551   9.516  0.2262  0.1782 -0.1975
  223loPI   C3B 3567  18.502   8.594   9.161  0.0364  0.1396  0.2396
  223loPI   C4B 3568  18.453   8.581   8.679  0.0616 -0.0487  0.0119
  224loPI    C1 3569   9.320   5.889  10.645 -0.0647  0.3051  0.1743
  224loPI    C2 3570   9.066   5.651  10.842  0.0744  0.1966  0.2240
  224loPI    C3 3571   9.387   5.800  11.029  0.1027  0.2502  0.1333
  224loPI   PO4 3572   9.402   5.767  10.373  0.1615  0.0351 -0.0617
  224loPI   GL1 3573   9.300   5.874  10.001  0.1001  0.1812 -0.2021
  224loPI   GL2 3574   9.118   5.682   9.840  0.0336  0.1802 -0.0231
  224loPI   C1A 3575   9.504   5.955   9.595 -0.3186  0.1310  0.2363
  224loPI   C2A 3576   9.602   5.954   9.139  0.1082 -0.1749 -0.1941
  224loPI   C3A 3577   9.711   5.878   8.773 -0.0771  0.1284 -0.1099
  224loPI   C4A 3578   9.741   5.870   8.368 -0.1067  0.1877  0.3643
  224loPI   C5A 3579   9.798   5.952   7.880  0.3164  0.2495 -0.0528
  224loPI   C6A 3580   9.707   5.693   7.523 -0.3177  0.1339 -0.1049
  224loPI   C1B 3581   9.170   5.559   9.366 -0.0783 -0.0505 -0.2311
  224loPI   C2B 3582   9.244   5.551   8.843  0.0815  0.1570  0.1438
  224loPI   C3B 3583   9.335   5.530   8.493  0.2488  0.0454 -0.1505
  224loPI   C4B 3584   9.383   5.629   8.066 -0.0871 -0.2895  0.4103
  225loPI    C1 3585  15.514  17.680  10.750  0.0588 -0.0109  0.0121
  225loPI    C2 3586  15.606  17.695  11.139 -0.0574 -0.1080  0.0438
  225loPI    C3 3587  15.782  17.946  10.882  0.0147 -0.0391  0.1597
  225loPI   PO4 3588  15.534  17.379  10.638 -0.1643 -0.2424  0.4295
  225loPI   GL1 3589  15.546  17.219  10.211 -0.2793 -0.2554 -0.3108
  225loPI   GL2 3590  15.893  17.272  10.235  0.0359  0.2048 -0.2790
  225loPI   C1A 3591  15.548  17.307   9.869 -0.1409 -0.2394 -0.0160
  225loPI   C2A 3592  15.441  17.208   9.450  0.1025  0.1408 -0.2083
  225loPI   C3A 3593  15.365  17.174   8.973 -0.1057  0.0417 -0.2423
  225loPI   C4A 3594  15.468  16.959   8.553 -0.1272  0.4435  0.2782
  225loPI   C5A 3595  15.589  17.025   8.045 -0.2324  0.1214 -0.0683
  225loPI   C6A 3596  15.729  16.742   7.844 -0.1863  0.1760  0.0682
  225loPI   C1B 3597  16.032  17.220   9.909 -0.1146 -0.2651  0.1800
  225loPI   C2B 3598  15.960  17.246   9.509  0.0266  0.1065  0.0162
  225loPI   C3B 3599  16.020  17.157   9.123  0.0329  0.0934 -0.2482
  225loPI   C4B 3600  15.829  16.881   8.922  0.1598 -0.1916  0.0556
  226loPI    C1 3601  15.513   6.763  10.937 -0.0148  0.0118  0.0385
  226loPI    C2 3602  15.777   6.682  11.227  0.0494  0.3421  0.0767
  226loPI    C3 3603  15.423   6.845  11.319  0.0011  0.2904 -0.0155
  226loPI   PO4 3604  15.834   6.795  10.699  0.0679 -0.3368 -0.1928
  226loPI   GL1 3605  15.770   6.776  10.232  0.0129  0.3615 -0.0449
  226loPI   GL2 3606  15.916   6.980  10.137 -0.0984 -0.0912 -0.2048
  226loPI   C1A 3607  15.634   6.615   9.827  0.0343  0.1029  0.2587
  226loPI   C2A 3608  15.516   6.708   9.507  0.4458  0.0355  0.0617
  226loPI   C3A 3609  15.598   6.694   9.160 -0.1331  0.0487 -0.0022
  226loPI   C4A 3610  15.656   6.708   8.782  0.1492 -0.0043 -0.0572
  226loPI   C5A 3611  15.571   6.686   8.306 -0.1110 -0.0703 -0.0402
  226loPI   C6A 3612  15.763   7.018   8.059  0.0601  0.0713 -0.0300
  226loPI   C1B 3613  15.937   7.008   9.679 -0.1046 -0.1938 -0.3192
  226loPI   C2B 3614  15.926   7.106   9.224 -0.0711  0.0373 -0.0106
  226loPI   C3B 3615  15.911   7.126   8.809 -0.1334  0.4371  0.1160
  226loPI   C4B 3616  16.067   7.027   8.392 -0.0203  0.1223 -0.2004
  227loPI    C1 3617   2.966   4.962  10.863 -0.1890  0.0379  0.2888
  227loPI    C2 3618   3.347   4.974  10.982 -0.1065  0.1035  0.0254
  227loPI    C3 3619   3.071   5.192  11.173  0.0499  0.3278 -0.0000
  227loPI   PO4 3620   2.972   4.911  10.588 -0.1275  0.1520  0.1817
  227loPI   GL1 3621   2.916   5.099  10.276 -0.0898  0.1909  0.0038
  227loPI   GL2 3622   3.205   5.244  10.221 -0.0105 -0.0020  0.0296
  227loPI   C1A 3623   2.871   4.858   9.891  0.4020 -0.1704  0.1350
  227loPI   C2A 3624   2.907   4.802   9.483  0.3375 -0.0846  0.1047
  227loPI   C3A 3625   2.881   4.892   8.964 -0.0253  0.3127 -0.4513
  227loPI   C4A 3626   2.993   4.923   8.574  0.0148 -0.1282  0.1006
  227loPI   C5A 3627   3.041   4.827   8.167 -0.1607 -0.3119  0.2183
  227loPI   C6A 3628   3.295   4.797   7.908 -0.1001 -0.0833  0.3361
  227loPI   C1B 3629   3.242   5.201   9.780 -0.4242  0.1329  0.0320
  227loPI   C2B 3630   3.270   5.227   9.320 -0.2067  0.3288 -0.2088
  227loPI   C3B 3631   3.320   5.183   8.843  0.1008  0.2163  0.0876
  227loPI   C4B 3632   3.351   5.293   8.510 -0.0159 -0.0519  0.1242
  228loPI    C1 3633  14.038  14.157  10.923  0.2156 -0.2451  0.4519
  228loPI    C2 3634  14.124  14.547  10.948  0.0583 -0.1662 -0.1076
  228loPI    C3 3635  13.930  14.366  11.247 -0.1703  0.2644  0.0129
  228loPI   PO4 3636  13.940  14.130  10.620  0.1081 -0.0329 -0.0074
  228loPI   GL1 3637  13.945  13.848  10.307  0.0738 -0.1459  0.0378
  228loPI   GL2 3638  14.237  13.566  10.430 -0.0018 -0.0499  0.1120
  228loPI   C1A 3639  14.106  13.895   9.983  0.2650  0.0383  0.2299
  228loPI   C2A 3640  14.177  13.814   9.602  0.4578  0.1339 -0.1859
  228loPI   C3A 3641  14.286  13.764   9.197 -0.1629  0.2057  0.1647
  228loPI   C4A 3642  14.287  13.806   8.764 -0.0501 -0.1471 -0.1900
  228loPI   C5A 3643  14.275  13.848   8.265  0.3161 -0.1713  0.0328
  228loPI   C6A 3644  14.021  13.826   7.817 -0.3730 -0.0693  0.0886
  228loPI   C1B 3645  14.346  13.437   9.961  0.2651  0.0783  0.1564
  228loPI   C2B 3646  14.445  13.370   9.600  0.2052  0.2714 -0.0272
  228loPI   C3B 3647  14.347  13.274   9.282 -0.0213 -0.1054  0.1417
  228loPI   C4B 3648  14.371  13.280   8.911  0.2543  0.0241 -0.0759
  229loPI    C1 3649   8.286   5.052  10.671 -0.0747  0.0311  0.1993
  229loPI    C2 3650   8.109   5.346  10.875 -0.2017 -0.0116  0.1520
  229loPI    C3 3651   7.973   4.971  10.906 -0.0532 -0.0627  0.1964
  229loPI   PO4 3652   8.323   5.056  10.400  0.3321 -0.2266  0.2511
  229loPI   GL1 3653   8.254   5.307  10.044 -0.1164  0.0910  0.0205
  229loPI   GL2 3654   8.487   5.595  10.059  0.3717 -0.0424 -0.3554
  229loPI   C1A 3655   8.172   5.437   9.682  0.2181 -0.1583  0.1808
  229loPI   C2A 3656   8.277   5.467   9.328 -0.2811 -0.2701  0.0079
  229loPI   C3A 3657   8.290   5.428   8.901  0.3003  0.0937  0.3261
  229loPI   C4A 3658   8.480   5.399   8.549 -0.1134  0.1899  0.0724
  229loPI   C5A 3659   8.426   5.387   8.138 -0.1194  0.1828 -0.2087
  229loPI   C6A 3660   8.139   5.136   7.921  0.0128 -0.2078 -0.0604
  229loPI   C1B 3661   8.579   5.753   9.604 -0.3719  0.0267 -0.2570
  229loPI   C2B 3662   8.754   5.724   9.123 -0.1956 -0.0705  0.0749
  229loPI   C3B 3663   8.772   5.724   8.685  0.0597  0.2517  0.3281
  229loPI   C4B 3664   8.875   5.741   8.240  0.3590 -0.1300 -0.2168
  230loPI    C1 3665  14.069   4.102  10.651  0.2471 -0.0833 -0.0111
  230loPI    C2 3666  14.249   3.952  10.975  0.3056  0.0347  0.0113
  230loPI    C3 3667  13.864   3.869  10.904  0.3236 -0.0837  0.0507
  230loPI   PO4 3668  14.313   4.093  10.441 -0.2103 -0.3121 -0.1016
  230loPI   GL1 3669  14.467   4.201  10.089 -0.0155 -0.0121 -0.1892
  230loPI   GL2 3670  14.735   4.109   9.918  0.0739  0.2319 -0.0657
  230loPI   C1A 3671  14.322   4.293   9.649  0.0452  0.0112 -0.3767
  230loPI   C2A 3672  14.307   4.285   9.176 -0.4635  0.0822  0.0977
  230loPI   C3A 3673  14.223   4.332   8.747  0.2647 -0.1663 -0.0559
  230loPI   C4A 3674  14.196   4.344   8.389 -0.0146 -0.1842 -0.2543
  230loPI   C5A 3675  14.007   4.604   8.069  0.0022  0.1435  0.1197
  230loPI   C6A 3676  13.722   4.884   8.052  0.0739  0.1860 -0.1300
  230loPI   C1B 3677  14.762   4.103   9.481  0.1248  0.4269  0.0785
  230loPI   C2B 3678  14.723   4.050   8.952  0.0489 -0.0920 -0.0381
  230loPI   C3B 3679  14.655   4.117   8.571  0.0438  0.4388  0.1519
  230loPI   C4B 3680  14.739   4.035   8.107 -0.2861  0.0701 -0.1416
  231loPI    C1 3681  10.642  11.365  10.692 -0.0334  0.2853  0.2719
  231loPI    C2 3682  10.782  11.497  10.342 -0.2023 -0.1798  0.0193
  231loPI    C3 3683  10.954  11.615  10.683 -0.0347  0.2792 -0.2144
  231loPI   PO4 3684  10.346  11.356  10.582 -0.0405  0.1287 -0.2985
  231loPI   GL1 3685  10.194  11.535  10.261 -0.2094  0.1918 -0.1450
  231loPI   GL2 3686  10.047  11.426   9.980 -0.2946  0.2463  0.3053
  231loPI   C1A 3687  10.501  11.719   9.975 -0.4268  0.0840 -0.0931
  231loPI   C2A 3688  10.537  11.825   9.608 -0.2367  0.0842  0.0444
  231loPI   C3A 3689  10.583  11.878   9.212 -0.1127  0.1406  0.2684
  231loPI   C4A 3690  10.596  11.906   8.770 -0.1353  0.2072  0.1448
  231loPI   C5A 3691  10.677  11.868   8.350  0.1919  0.1624 -0.3965
  231loPI   C6A 3692  10.991  12.091   8.113 -0.1231 -0.0956 -0.2437
  231loPI   C1B 3693  10.132  11.545   9.564  0.1605  0.1230 -0.0796
  231loPI   C2B 3694  10.284  11.481   9.219  0.1202  0.0317 -0.2631
  231loPI   C3B 3695  10.221  11.487   8.717  0.2770  0.1821 -0.1516
  231loPI   C4B 3696  10.257  11.541   8.257  0.2675  0.3662  0.0512
  232loPI    C1 3697  13.808   9.476  10.730 -0.0041 -0.0677 -0.0219
  232loPI    C2 3698  14.145   9.660  10.616  0.0131 -0.1046 -0.0310
  232loPI    C3 3699  14.039   9.657  11.002 -0.1711  0.2318 -0.0742
  232loPI   PO4 3700  13.764   9.302  10.490 -0.0706  0.1498  0.1397
  232loPI   GL1 3701  13.589   9.190  10.117 -0.1180  0.2029 -0.0297
  232loPI   GL2 3702  13.262   9.036  10.380  0.2521  0.1666 -0.2589
  232loPI   C1A 3703  13.720   9.187   9.640  0.3442 -0.2283  0.0596
  232loPI   C2A 3704  13.712   9.223   9.216 -0.1911  0.1256  0.0278
  232loPI   C3A 3705  13.757   9.275   8.818 -0.2914  0.1361 -0.1447
  232loPI   C4A 3706  13.690   9.260   8.388  0.1040  0.4158 -0.0853
  232loPI   C5A 3707  13.940   9.490   8.103 -0.4111 -0.2123 -0.0267
  232loPI   C6A 3708  13.984   9.552   7.684 -0.0010  0.1187  0.2117
  232loPI   C1B 3709  13.262   8.855   9.885  0.0280 -0.2832  0.2556
  232loPI   C2B 3710  13.363   8.924   9.461 -0.0162  0.0512  0.1908
  232loPI   C3B 3711  13.301   8.949   9.042 -0.1189 -0.1305 -0.1784
  232loPI   C4B 3712  13.273   8.833   8.619 -0.2244 -0.2013 -0.0834
  233loPI    C1 3713   8.901  16.984  11.076 -0.2170 -0.1649  0.1756
  233loPI    C2 3714   9.194  16.715  11.036  0.0370  0.1359 -0.0349
  233loPI    C3 3715   9.067  16.820  11.401  0.0118 -0.1831  0.0512
  233loPI   PO4 3716   8.698  16.989  10.973 -0.0117 -0.2434 -0.1487
  233loPI   GL1 3717   8.666  17.111  10.442  0.1556  0.1602 -0.1220
  233loPI   GL2 3718   8.374  17.253  10.539 -0.1593 -0.0950  0.0850
  233loPI   C1A 3719   8.606  17.206  10.040  0.0330 -0.1967 -0.0884
  233loPI   C2A 3720   8.615  17.344   9.656  0.0244  0.1931  0.1147
  233loPI   C3A 3721   8.608  17.266   9.205  0.1537  0.1813 -0.0912
  233loPI   C4A 3722   8.614  17.307   8.756  0.2354  0.1002 -0.1962
  233loPI   C5A 3723   8.666  17.109   8.385 -0.2856  0.1769 -0.0831
  233loPI   C6A 3724   8.569  17.184   7.949 -0.1421 -0.1694 -0.2090
  233loPI   C1B 3725   8.203  17.497  10.100  0.0618 -0.3559  0.3002
  233loPI   C2B 3726   8.100  17.490   9.635 -0.0156 -0.0740 -0.2264
  233loPI   C3B 3727   8.086  17.384   9.302  0.1244  0.1215  0.2723
  233loPI   C4B 3728   8.103  17.406   8.791 -0.1849 -0.0703 -0.0636
  234loPI    C1 3729   1.903   9.284  11.652 -0.2215 -0.0308  0.2666
  234loPI    C2 3730   2.195   9.012  11.668  0.0007  0.1891  0.0514
  234loPI    C3 3731   1.813   8.895  11.645  0.0750 -0.1010  0.2368
  234loPI   PO4 3732   1.931   9.390  11.341  0.2021  0.4249  0.0604
  234loPI   GL1 3733   2.076   9.319  10.933  0.1546 -0.2078  0.0589
  234loPI   GL2 3734   1.732   9.192  10.769  0.0612  0.1922  0.1893
  234loPI   C1A 3735   2.285   9.280  10.554  0.1889 -0.0414  0.1657
  234loPI   C2A 3736   2.434   9.166  10.057  0.0780 -0.0129 -0.5326
  234loPI   C3A 3737   2.362   9.233   9.561  0.0596  0.3467  0.2711
  234loPI   C4A 3738   2.394   9.258   9.149  0.1279  0.2664  0.2798
  234loPI   C5A 3739   2.402   9.373   8.724 -0.4149 -0.0458 -0.0037
  234loPI   C6A 3740   2.282   9.712   8.536  0.0206  0.2427  0.1408
  234loPI   C1B 3741   1.550   8.999  10.344  0.0753 -0.0935 -0.1000
  234loPI   C2B 3742   1.537   9.041   9.885  0.0435 -0.2797 -0.3773
  234loPI   C3B 3743   1.542   9.073   9.427 -0.0731 -0.2501 -0.2397
  234loPI   C4B 3744   1.545   9.036   8.967  0.0987 -0.0322  0.2212
  235loPI    C1 3745  10.235   0.791  10.918  0.2098  0.1724  0.0719
  235loPI    C2 3746  10.462   1.031  10.693  0.0179  0.2053 -0.0895
  235loPI    C3 3747  10.377   1.132  11.070  0.2769  0.1877 -0.0244
  235loPI   PO4 3748  10.014   0.786  10.808  0.2666 -0.0513 -0.1956
  235loPI   GL1 3749  10.006   0.931  10.424 -0.0529  0.1133 -0.0545
  235loPI   GL2 3750   9.799   1.252  10.339  0.4661  0.1123 -0.2778
  235loPI   C1A 3751  10.185   0.709  10.094  0.0476  0.0226 -0.3944
  235loPI   C2A 3752  10.240   0.591   9.625 -0.3929  0.1833  0.2184
  235loPI   C3A 3753  10.216   0.465   9.126  0.0501  0.1489 -0.1757
  235loPI   C4A 3754  10.169   0.396   8.750 -0.0314 -0.2124 -0.0259
  235loPI   C5A 3755  10.400   0.452   8.431  0.1259 -0.1536  0.3416
  235loPI   C6A 3756  10.465   0.383   8.047  0.1270 -0.3021 -0.2196
  235loPI   C1B 3757   9.568   1.246   9.954  0.0887 -0.0908 -0.0570
  235loPI   C2B 3758   9.588   1.167   9.417 -0.3796  0.2946 -0.2539
  235loPI   C3B 3759   9.633   1.201   9.016  0.2709  0.3795  0.0849
  235loPI   C4B 3760   9.684   1.130   8.639  0.1376 -0.1702  0.1578
  236loPI    C1 3761   7.399  10.128  11.034 -0.0602  0.1084  0.0248
  236loPI    C2 3762   7.040   9.989  11.142 -0.0976  0.0569 -0.1619
  236loPI    C3 3763   7.250  10.218  11.394 -0.1107 -0.1929  0.0822
  236loPI   PO4 3764   7.384  10.214  10.791 -0.3142  0.2360 -0.1106
  236loPI   GL1 3765   7.156  10.046  10.427 -0.2246  0.0490 -0.1316
  236loPI   GL2 3766   7.415   9.840  10.259  0.1945  0.0784  0.1398
  236loPI   C1A 3767   7.110  10.321  10.145  0.2874  0.0755 -0.0555
  236loPI   C2A 3768   7.111  10.424   9.719  0.1044 -0.2410 -0.0362
  236loPI   C3A 3769   7.258  10.578   9.379  0.4367  0.0269  0.0378
  236loPI   C4A 3770   7.150  10.554   8.980 -0.0885  0.0197  0.1130
  236loPI   C5A 3771   7.267  10.489   8.546 -0.0946 -0.0455 -0.1973
  236loPI   C6A 3772   7.579  10.483   8.263 -0.1222  0.0050  0.0055
  236loPI   C1B 3773   7.397   9.957   9.814  0.2995 -0.1617  0.1194
  236loPI   C2B 3774   7.251  10.029   9.404 -0.2424 -0.0676  0.2566
  236loPI   C3B 3775   7.302  10.022   9.007 -0.0763  0.0289  0.2638
  236loPI   C4B 3776   7.341  10.017   8.605  0.1429  0.0905  0.1002
  237loPI    C1 3777  11.310  10.675  10.742 -0.0230 -0.0013 -0.1838
  237loPI    C2 3778  11.185  10.427  11.030  0.0577 -0.2276 -0.3406
  237loPI    C3 3779  11.081  10.813  11.039  0.2106 -0.1911  0.0907
  237loPI   PO4 3780  11.200  10.562  10.529 -0.0636 -0.1667 -0.3256
  237loPI   GL1 3781  11.171  10.613  10.140 -0.0823 -0.0214 -0.2537
  237loPI   GL2 3782  10.999  10.952  10.152  0.0715  0.1584  0.0482
  237loPI   C1A 3783  11.235  10.558   9.753  0.3853 -0.2976  0.1349
  237loPI   C2A 3784  11.236  10.608   9.413 -0.3684  0.0174  0.0138
  237loPI   C3A 3785  11.248  10.708   8.976 -0.1414 -0.0337  0.0378
  237loPI   C4A 3786  11.293  10.725   8.456 -0.0965 -0.1957  0.0504
  237loPI   C5A 3787  11.327  10.863   8.238  0.1669 -0.0073  0.1778
  237loPI   C6A 3788  11.355  11.178   7.886  0.3111  0.0401 -0.1460
  237loPI   C1B 3789  11.123  11.120   9.717 -0.0352  0.3534  0.1614
  237loPI   C2B 3790  11.225  11.141   9.299 -0.1008  0.0758  0.1116
  237loPI   C3B 3791  11.210  11.316   8.859  0.0460  0.1532 -0.1314
  237loPI   C4B 3792  11.114  11.151   8.536 -0.1110 -0.0846 -0.0074
  238loPI    C1 3793   3.191  17.187  11.101  0.2033  0.0761  0.3072
  238loPI    C2 3794   3.165  17.252  11.495 -0.2474  0.3009  0.2462
  238loPI    C3 3795   2.834  17.249  11.270  0.0021  0.1388 -0.1282
  238loPI   PO4 3796   3.292  17.253  11.007 -0.1514 -0.0149 -0.1929
  238loPI   GL1 3797   3.420  17.247  10.585 -0.0049 -0.0041 -0.2250
  238loPI   GL2 3798   3.189  17.200  10.517 -0.1855 -0.1203 -0.1394
  238loPI   C1A 3799   3.491  17.512  10.215  0.0790 -0.0797  0.0668
  238loPI   C2A 3800   3.526  17.582   9.784 -0.1001  0.2226  0.1441
  238loPI   C3A 3801   3.508  17.545   9.359  0.0107 -0.3122  0.0347
  238loPI   C4A 3802   3.548  17.484   8.833 -0.0300 -0.0171  0.0053
  238loPI   C5A 3803   3.639  17.539   8.388 -0.3985  0.4382  0.2947
  238loPI   C6A 3804   3.251  17.639   8.127 -0.0999  0.3373 -0.2453
  238loPI   C1B 3805   3.063  17.128  10.059 -0.3117 -0.4572 -0.0318
  238loPI   C2B 3806   3.118  17.173   9.610  0.1125 -0.3208 -0.2417
  238loPI   C3B 3807   3.074  17.180   9.183  0.2331  0.0566 -0.1618
  238loPI   C4B 3808   3.130  17.198   8.725  0.0083  0.4557  0.0697
  239loPI    C1 3809   9.335  14.497  10.737  0.0585  0.1203  0.0545
  239loPI    C2 3810   9.146  14.233  10.970  0.1439  0.0577  0.0537
  239loPI    C3 3811   9.397  14.498  11.132  0.3116 -0.0778  0.0184
  239loPI   PO4 3812   9.356  14.385  10.505 -0.0443 -0.1432  0.0017
  239loPI   GL1 3813   9.450  14.414  10.133  0.3841 -0.1731  0.0018
  239loPI   GL2 3814   9.111  14.237  10.078  0.0851  0.0559 -0.0208
  239loPI   C1A 3815   9.518  14.553   9.685 -0.2054 -0.2655 -0.2750
  239loPI   C2A 3816   9.564  14.500   9.290 -0.2848 -0.0284 -0.2154
  239loPI   C3A 3817   9.517  14.476   8.851 -0.0087 -0.1236  0.1503
  239loPI   C4A 3818   9.544  14.753   8.345  0.1259  0.1435  0.2152
  239loPI   C5A 3819   9.149  15.011   8.249  0.0466  0.0940 -0.0379
  239loPI   C6A 3820   8.895  15.128   8.570 -0.1452  0.1738 -0.3374
  239loPI   C1B 3821   9.099  14.272   9.637 -0.0016 -0.2960  0.0363
  239loPI   C2B 3822   9.181  14.138   9.270  0.1961  0.3492  0.4228
  239loPI   C3B 3823   9.092  14.165   8.905  0.0429  0.3067  0.2374
  239loPI   C4B 3824   9.088  14.155   8.493  0.0865  0.0570 -0.1422
  240loPI    C1 3825   7.893   2.406  10.636 -0.1489 -0.0119  0.0051
  240loPI    C2 3826   7.839   2.137  10.927 -0.2979  0.1075  0.0891
  240loPI    C3 3827   7.918   2.517  11.019  0.1992  0.0392 -0.0294
  240loPI   PO4 3828   8.012   2.278  10.522 -0.2357 -0.2324  0.0880
  240loPI   GL1 3829   8.017   2.226  10.095  0.1797 -0.0525 -0.0486
  240loPI   GL2 3830   7.736   2.048  10.139  0.4841 -0.1471  0.0460
  240loPI   C1A 3831   7.911   2.117   9.637  0.0524  0.1672  0.0554
  240loPI   C2A 3832   7.958   2.209   9.217  0.4042 -0.1768  0.0117
  240loPI   C3A 3833   8.082   2.284   8.841 -0.2582  0.2390  0.0012
  240loPI   C4A 3834   7.986   2.231   8.350  0.0125  0.0319 -0.0661
  240loPI   C5A 3835   8.242   2.154   8.016 -0.2544 -0.1616 -0.2226
  240loPI   C6A 3836   8.209   1.773   7.771 -0.2737 -0.2572  0.2082
  240loPI   C1B 3837   7.487   2.257   9.822  0.0108  0.0185  0.0033
  240loPI   C2B 3838   7.521   2.246   9.410  0.0300 -0.0042  0.0543
  240loPI   C3B 3839   7.572   2.372   8.986  0.0024  0.1121 -0.0165
  240loPI   C4B 3840   7.558   2.382   8.611  0.1392 -0.0277  0.0415
  241loPI    C1 3841  13.345   5.255  10.640 -0.2108 -0.0837 -0.0912
  241loPI    C2 3842  13.295   5.239  11.037  0.2013  0.5593  0.0008
  241loPI    C3 3843  12.979   5.206  10.795 -0.0297 -0.0589  0.3620
  241loPI   PO4 3844  13.413   5.521  10.569  0.1588 -0.3347  0.4641
  241loPI   GL1 3845  13.247   5.622  10.168 -0.1569  0.1491  0.2178
  241loPI   GL2 3846  13.528   5.783  10.063 -0.2184  0.1339 -0.3489
  241loPI   C1A 3847  13.033   5.692   9.709  0.0525  0.0874 -0.4132
  241loPI   C2A 3848  12.986   5.707   9.323 -0.2213  0.3499 -0.0566
  241loPI   C3A 3849  12.890   5.632   8.874 -0.0969  0.0642 -0.0477
  241loPI   C4A 3850  12.987   5.629   8.429 -0.3544  0.1089 -0.2783
  241loPI   C5A 3851  13.277   5.404   8.217 -0.3896 -0.3151  0.0150
  241loPI   C6A 3852  13.611   5.352   7.901  0.0189 -0.1547  0.2405
  241loPI   C1B 3853  13.409   6.009   9.732  0.0719 -0.1011 -0.1785
  241loPI   C2B 3854  13.376   6.005   9.368  0.0646  0.1582  0.0616
  241loPI   C3B 3855  13.220   6.003   8.956  0.4202 -0.3341 -0.0185
  241loPI   C4B 3856  13.314   5.966   8.493  0.0291 -0.1552  0.2640
  242loPI    C1 3857   6.954   1.958  10.898  0.1855 -0.0278 -0.0230
  242loPI    C2 3858   6.818   2.223  11.165  0.1154  0.0029 -0.0889
  242loPI    C3 3859   6.927   1.857  11.284  0.4096  0.1281  0.0360
  242loPI   PO4 3860   6.919   2.008  10.687 -0.0773 -0.0443 -0.0936
  242loPI   GL1 3861   7.072   1.785  10.332 -0.0292 -0.0164  0.1487
  242loPI   GL2 3862   7.078   1.423  10.314 -0.0921 -0.0114  0.2028
  242loPI   C1A 3863   7.009   1.923   9.835  0.0605 -0.1694  0.1042
  242loPI   C2A 3864   7.095   1.947   9.393 -0.2200 -0.4870 -0.2049
  242loPI   C3A 3865   7.188   2.033   9.031  0.1528 -0.2674 -0.2506
  242loPI   C4A 3866   7.149   2.064   8.538 -0.1528 -0.0777  0.4058
  242loPI   C5A 3867   7.286   2.337   8.204 -0.2224  0.0964  0.0030
  242loPI   C6A 3868   7.665   2.564   8.047 -0.0738 -0.1449 -0.1904
  242loPI   C1B 3869   7.137   1.401   9.912  0.2095 -0.0926 -0.0094
  242loPI   C2B 3870   7.188   1.411   9.477 -0.1010  0.0370 -0.0603
  242loPI   C3B 3871   7.177   1.480   9.061 -0.3500  0.0374 -0.0966
  242loPI   C4B 3872   7.277   1.617   8.741 -0.0238  0.0607 -0.0051
  243loPI    C1 3873   8.391  10.344  10.822  0.0411 -0.2054  0.0020
  243loPI    C2 3874   8.168  10.505  11.113  0.0292 -0.1597 -0.0321
  243loPI    C3 3875   8.567  10.526  11.132  0.0264 -0.0652 -0.0709
  243loPI   PO4 3876   8.254  10.374  10.645 -0.0517 -0.1746 -0.0296
  243loPI   GL1 3877   7.911  10.484  10.303 -0.1234  0.3182  0.0241
  243loPI   GL2 3878   7.601  10.405  10.353  0.2598 -0.1832 -0.0539
  243loPI   C1A 3879   7.980  10.773   9.900 -0.1076  0.1639 -0.2576
  243loPI   C2A 3880   7.980  10.787   9.441  0.2525 -0.0308 -0.1234
  243loPI   C3A 3881   8.018  10.720   9.052 -0.0592 -0.0078 -0.1439
  243loPI   C4A 3882   8.094  10.753   8.557 -0.1064 -0.1267 -0.1221
  243loPI   C5A 3883   8.088  10.696   8.153  0.5868 -0.2184  0.1802
  243loPI   C6A 3884   8.258  10.556   7.653 -0.1651 -0.1477 -0.2226
  243loPI   C1B 3885   7.611  10.392   9.946 -0.0247  0.1746 -0.0495
  243loPI   C2B 3886   7.651  10.309   9.559 -0.1908 -0.0874 -0.2216
  243loPI   C3B 3887   7.639  10.417   9.136 -0.5048 -0.1284  0.2151
  243loPI   C4B 3888   7.726  10.366   8.724  0.1007  0.2309 -0.2944
  244loPI    C1 3889  17.837   3.182  10.353  0.0930 -0.0479  0.1642
  244loPI    C2 3890  17.776   3.479  10.613  0.1152  0.0039  0.1104
  244loPI    C3 3891  17.661   3.108  10.704 -0.0908  0.0635  0.0966
  244loPI   PO4 3892  17.774   3.245  10.076  0.2289 -0.3073 -0.0936
  244loPI   GL1 3893  17.718   3.361   9.756 -0.1103  0.0228 -0.5204
  244loPI   GL2 3894  17.565   3.656   9.741  0.2514  0.2436 -0.3029
  244loPI   C1A 3895  17.576   3.090   9.411  0.2132  0.2384 -0.0464
  244loPI   C2A 3896  17.610   2.955   8.980 -0.0791  0.2762 -0.1275
  244loPI   C3A 3897  17.708   3.142   8.581  0.1257 -0.1480  0.0984
  244loPI   C4A 3898  17.727   3.134   8.185  0.0510  0.0587  0.0432
  244loPI   C5A 3899  17.769   3.173   7.748  0.1416  0.0519 -0.0172
  244loPI   C6A 3900  17.560   3.332   7.325 -0.1887 -0.4415 -0.2241
  244loPI   C1B 3901  17.453   3.581   9.287  0.0118 -0.0613 -0.2349
  244loPI   C2B 3902  17.504   3.485   8.877  0.0222  0.0485  0.1603
  244loPI   C3B 3903  17.612   3.633   8.549  0.3354 -0.0436  0.2108
  244loPI   C4B 3904  17.652   3.581   8.145  0.0347  0.1634  0.0947
  245loPI    C1 3905  10.712   2.140  10.912  0.2807 -0.3336  0.0677
  245loPI    C2 3906  10.370   2.129  11.119  0.0773 -0.1260 -0.2485
  245loPI    C3 3907  10.720   2.103  11.310 -0.0986  0.2395  0.1398
  245loPI   PO4 3908  10.674   2.298  10.715 -0.0424 -0.1054 -0.1837
  245loPI   GL1 3909  10.607   2.253  10.324  0.1953 -0.0706 -0.0983
  245loPI   GL2 3910  10.588   1.873  10.409 -0.0300  0.1052 -0.0187
  245loPI   C1A 3911  10.799   2.110   9.939  0.1019  0.0845 -0.0519
  245loPI   C2A 3912  10.818   2.242   9.588 -0.2034  0.0832 -0.2018
  245loPI   C3A 3913  10.797   2.217   9.138  0.0092 -0.0533 -0.0694
  245loPI   C4A 3914  10.824   2.096   8.697 -0.1416 -0.1894  0.0939
  245loPI   C5A 3915  10.804   2.135   8.258 -0.3497  0.2423 -0.0115
  245loPI   C6A 3916  11.031   1.970   7.850  0.3825  0.0187 -0.0499
  245loPI   C1B 3917  10.308   1.949  10.057 -0.2595  0.1419  0.1907
  245loPI   C2B 3918  10.320   1.954   9.601  0.1522 -0.1745  0.0386
  245loPI   C3B 3919  10.408   1.896   9.142  0.1724 -0.0252 -0.0099
  245loPI   C4B 3920  10.460   1.760   8.672 -0.2063  0.0818 -0.0263
  246loPI    C1 3921  17.378   9.022  10.919  0.0611 -0.3490 -0.0040
  246loPI    C2 3922  17.526   9.328  11.129 -0.3256  0.0557 -0.3012
  246loPI    C3 3923  17.296   9.055  11.309 -0.0265 -0.0355 -0.0466
  246loPI   PO4 3924  17.361   9.192  10.662  0.4173 -0.1450 -0.0622
  246loPI   GL1 3925  17.119   9.220  10.238  0.3255 -0.0843  0.0611
  246loPI   GL2 3926  16.923   9.464  10.109  0.0630  0.0735 -0.2049
  246loPI   C1A 3927  17.398   9.356   9.948 -0.1736 -0.3990  0.1843
  246loPI   C2A 3928  17.406   9.395   9.550 -0.2465  0.4781 -0.1934
  246loPI   C3A 3929  17.388   9.363   9.073  0.1200  0.1039 -0.0830
  246loPI   C4A 3930  17.333   9.409   8.658 -0.0045  0.2656 -0.0184
  246loPI   C5A 3931  17.466   9.480   8.258 -0.2800 -0.0067  0.2426
  246loPI   C6A 3932  17.658   9.207   7.974  0.1563 -0.1362 -0.0540
  246loPI   C1B 3933  16.893   9.620   9.716  0.0794  0.0301  0.0168
  246loPI   C2B 3934  16.982   9.567   9.220  0.2855 -0.0929  0.0990
  246loPI   C3B 3935  16.809   9.568   8.779 -0.1386  0.2167 -0.1455
  246loPI   C4B 3936  16.923   9.573   8.296  0.2250 -0.1465  0.2368
  247loPI    C1 3937   4.042   0.016  10.768  0.0223  0.1711  0.0553
  247loPI    C2 3938   4.159  -0.214  11.074 -0.2567  0.0286  0.0582
  247loPI    C3 3939   4.187  -0.351  10.699  0.0121  0.1732  0.0226
  247loPI   PO4 3940   3.942   0.231  10.899  0.0238  0.1679 -0.1882
  247loPI   GL1 3941   3.889   0.522  10.522  0.1255 -0.4451 -0.2418
  247loPI   GL2 3942   4.114   0.381  10.459 -0.0609  0.1705  0.1026
  247loPI   C1A 3943   3.790   0.214  10.123  0.0270  0.1954 -0.1658
  247loPI   C2A 3944   3.717   0.237   9.741 -0.0593 -0.0905  0.0960
  247loPI   C3A 3945   3.845   0.210   9.276  0.1562 -0.2408  0.2680
  247loPI   C4A 3946   3.833   0.141   8.764 -0.0546  0.0030 -0.0809
  247loPI   C5A 3947   3.860  -0.082   8.307  0.2055 -0.2229 -0.2747
  247loPI   C6A 3948   3.629  -0.295   7.993 -0.2600  0.0344 -0.0206
  247loPI   C1B 3949   4.139   0.487  10.056 -0.0430 -0.2032  0.0050
  247loPI   C2B 3950   4.223   0.536   9.549  0.3357  0.2887  0.2268
  247loPI   C3B 3951   4.162   0.598   9.072 -0.1156 -0.1295 -0.2215
  247loPI   C4B 3952   4.246   0.586   8.712 -0.0728  0.3782 -0.0495
  248loPI    C1 3953   6.011  12.622  11.107 -0.3539 -0.0128 -0.1572
  248loPI    C2 3954   5.942  12.229  11.080 -0.2657 -0.0388 -0.0144
  248loPI    C3 3955   6.037  12.392  11.433 -0.1068  0.0788 -0.1100
  248loPI   PO4 3956   6.239  12.637  10.940  0.1855  0.0441  0.1169
  248loPI   GL1 3957   6.286  12.657  10.533  0.2167  0.3652  0.0674
  248loPI   GL2 3958   6.087  13.005  10.509 -0.0992  0.3221 -0.2293
  248loPI   C1A 3959   6.306  12.655  10.127 -0.0585 -0.0886 -0.2424
  248loPI   C2A 3960   6.243  12.713   9.620  0.4577  0.1459 -0.1682
  248loPI   C3A 3961   6.243  12.727   9.121 -0.0732 -0.0842  0.0866
  248loPI   C4A 3962   6.311  12.825   8.671  0.0079  0.1684  0.2364
  248loPI   C5A 3963   6.214  12.988   8.243 -0.0717 -0.0230 -0.1643
  248loPI   C6A 3964   5.944  12.697   8.088  0.4026 -0.0428 -0.0917
  248loPI   C1B 3965   6.119  13.141  10.155  0.2027 -0.1315  0.2736
  248loPI   C2B 3966   6.113  13.211   9.717 -0.2993  0.1008 -0.0192
  248loPI   C3B 3967   6.146  13.211   9.273 -0.0855 -0.0873  0.0840
  248loPI   C4B 3968   6.078  13.260   8.800  0.2708 -0.1134 -0.1136
  249loPI    C1 3969   5.178  16.286  10.802  0.1795 -0.1827 -0.0999
  249loPI    C2 3970   5.017  16.224  11.162 -0.0952 -0.1058 -0.2073
  249loPI    C3 3971   5.259  16.536  11.103 -0.1675 -0.0337 -0.1259
  249loPI   PO4 3972   5.023  16.256  10.673 -0.0590 -0.2418  0.3960
  249loPI   GL1 3973   4.922  16.439  10.403 -0.2587  0.3035  0.1149
  249loPI   GL2 3974   4.681  16.594  10.280 -0.3232  0.1158 -0.1719
  249loPI   C1A 3975   5.055  16.414   9.954 -0.0303  0.2343 -0.0125
  249loPI   C2A 3976   5.019  16.527   9.516  0.0549 -0.1134 -0.0427
  249loPI   C3A 3977   5.171  16.502   9.035  0.1183 -0.0528  0.0523
  249loPI   C4A 3978   5.421  16.625   8.647  0.0913 -0.0663 -0.0565
  249loPI   C5A 3979   5.755  16.952   8.438  0.1151  0.0451  0.1628
  249loPI   C6A 3980   5.864  17.205   8.684  0.0854 -0.0503  0.1251
  249loPI   C1B 3981   4.649  16.707   9.897  0.0423 -0.0743 -0.0893
  249loPI   C2B 3982   4.582  16.788   9.519  0.0263  0.2369 -0.0541
  249loPI   C3B 3983   4.599  16.752   9.018  0.1089  0.3772 -0.1232
  249loPI   C4B 3984   4.699  16.566   8.621 -0.0919  0.0343 -0.2499
  250loPI    C1 3985  16.050   5.168  10.492 -0.2617  0.5216  0.0686
  250loPI    C2 3986  15.794   5.120  10.796 -0.0028  0.0623  0.2246
  250loPI    C3 3987  16.171   4.989  10.828 -0.0500 -0.2668 -0.3999
  250loPI   PO4 3988  15.861   5.432  10.415 -0.0303 -0.1632  0.0790
  250loPI   GL1 3989  15.645   5.574  10.035 -0.1111  0.1138  0.2281
  250loPI   GL2 3990  15.871   5.674   9.971 -0.1578 -0.0857  0.0880
  250loPI   C1A 3991  15.516   5.303   9.694 -0.2110  0.0327 -0.2208
  250loPI   C2A 3992  15.345   5.362   9.171 -0.2822  0.0611  0.2521
  250loPI   C3A 3993  15.413   5.254   8.786  0.1568 -0.0860  0.0901
  250loPI   C4A 3994  15.347   5.245   8.396 -0.3636  0.2402  0.2867
  250loPI   C5A 3995  15.410   5.214   7.945 -0.0390 -0.1122  0.2281
  250loPI   C6A 3996  15.479   5.591   7.786 -0.2814  0.2501 -0.1164
  250loPI   C1B 3997  15.787   5.721   9.477 -0.0648  0.1476  0.0379
  250loPI   C2B 3998  15.714   5.680   9.035  0.0655  0.1418 -0.0240
  250loPI   C3B 3999  15.776   5.619   8.508 -0.2386  0.0214  0.0002
  250loPI   C4B 4000  15.855   5.531   8.081  0.1697  0.3259  0.0140
  251loPI    C1 4001  11.949  14.521  10.750  0.1993  0.0439  0.1209
  251loPI    C2 4002  12.050  14.668  11.108  0.3671  0.3678 -0.0548
  251loPI    C3 4003  12.285  14.398  10.929  0.1960  0.0769  0.1497
  251loPI   PO4 4004  11.907  14.572  10.611 -0.0321  0.0176 -0.0154
  251loPI   GL1 4005  12.023  14.646  10.213 -0.2791 -0.2444 -0.0370
  251loPI   GL2 4006  11.798  14.762  10.085  0.1836 -0.3546  0.2360
  251loPI   C1A 4007  12.154  14.534   9.789  0.1007  0.0976 -0.3503
  251loPI   C2A 4008  12.305  14.561   9.404 -0.0317 -0.2064 -0.0932
  251loPI   C3A 4009  12.332  14.518   8.971 -0.2278  0.2763 -0.0481
  251loPI   C4A 4010  12.245  14.457   8.528 -0.1893  0.1363  0.1629
  251loPI   C5A 4011  12.136  14.404   8.020 -0.1224 -0.0926 -0.2972
  251loPI   C6A 4012  12.241  14.817   7.770  0.1197  0.0115  0.3286
  251loPI   C1B 4013  11.703  14.676   9.680 -0.0583 -0.2442 -0.0823
  251loPI   C2B 4014  11.809  14.674   9.273  0.1276  0.0971 -0.3387
  251loPI   C3B 4015  11.786  14.756   8.916  0.1648 -0.0490 -0.0732
  251loPI   C4B 4016  11.769  14.632   8.500 -0.0816 -0.0199 -0.4459
  252loPI    C1 4017   9.576   6.821  10.353  0.1648  0.1116  0.3542
  252loPI    C2 4018   9.267   7.070  10.404  0.0415 -0.0143  0.2280
  252loPI    C3 4019   9.306   6.749  10.639  0.0180 -0.0553  0.1763
  252loPI   PO4 4020   9.585   6.726  10.158 -0.0078  0.3943 -0.1304
  252loPI   GL1 4021   9.361   6.794   9.806  0.1783 -0.0142  0.1196
  252loPI   GL2 4022   9.361   6.373   9.827 -0.1535 -0.2996  0.0771
  252loPI   C1A 4023   9.447   6.958   9.402 -0.0084  0.2434  0.0276
  252loPI   C2A 4024   9.487   6.910   8.948 -0.1590  0.0937 -0.1860
  252loPI   C3A 4025   9.639   6.870   8.521  0.1768 -0.0082 -0.3927
  252loPI   C4A 4026   9.586   6.947   8.113 -0.0597  0.1501 -0.0886
  252loPI   C5A 4027   9.632   7.028   7.703 -0.3209 -0.1875  0.0426
  252loPI   C6A 4028   9.777   6.805   7.390 -0.0946 -0.0400 -0.1999
  252loPI   C1B 4029   9.505   6.425   9.368  0.2165 -0.1088  0.0697
  252loPI   C2B 4030   9.647   6.431   8.965 -0.2163  0.2817  0.0957
  252loPI   C3B 4031   9.661   6.347   8.486 -0.1323 -0.0553 -0.0264
  252loPI   C4B 4032   9.741   6.466   8.017  0.2899 -0.0419  0.0315
  253loPI    C1 4033  15.124  11.254  10.828 -0.1977 -0.0833 -0.0940
  253loPI    C2 4034  15.254  10.880  10.879 -0.2702 -0.0841  0.0910
  253loPI    C3 4035  15.259  11.137  11.186 -0.0739  0.1135 -0.0746
  253loPI   PO4 4036  15.224  11.343  10.613  0.2537  0.1188 -0.1214
  253loPI   GL1 4037  15.151  11.246  10.182 -0.0686 -0.0081  0.2540
  253loPI   GL2 4038  15.249  10.854  10.323  0.1523  0.0544  0.1033
  253loPI   C1A 4039  15.205  11.115   9.823  0.2061  0.1409 -0.0534
  253loPI   C2A 4040  15.261  11.024   9.333  0.0195 -0.1503 -0.0265
  253loPI   C3A 4041  15.261  11.096   8.874 -0.0802  0.0016  0.0130
  253loPI   C4A 4042  15.244  11.106   8.497 -0.3224  0.1534  0.2199
  253loPI   C5A 4043  15.130  11.487   8.103 -0.1572 -0.3097 -0.2317
  253loPI   C6A 4044  15.297  11.874   7.894 -0.0995 -0.1508 -0.1021
  253loPI   C1B 4045  15.232  10.580   9.983  0.0483 -0.2655 -0.1769
  253loPI   C2B 4046  15.363  10.607   9.690 -0.0531 -0.1650  0.1939
  253loPI   C3B 4047  15.272  10.496   9.283  0.1873 -0.2908  0.0153
  253loPI   C4B 4048  15.328  10.539   8.812 -0.0793 -0.0495  0.0092
  254loPI    C1 4049  13.058   1.635  10.807 -0.0477  0.1582 -0.1769
  254loPI    C2 4050  13.131   1.626  11.201 -0.1114  0.0963 -0.1664
  254loPI    C3 4051  12.885   1.902  11.050 -0.2177  0.0164 -0.1403
  254loPI   PO4 4052  13.227   1.686  10.600 -0.0754  0.1662  0.1314
  254loPI   GL1 4053  13.425   1.467  10.247  0.1104  0.1343 -0.0196
  254loPI   GL2 4054  13.417   1.137  10.323  0.3432 -0.0461 -0.2406
  254loPI   C1A 4055  13.252   1.333   9.843  0.1829  0.2628  0.0981
  254loPI   C2A 4056  13.336   1.266   9.422  0.0098 -0.0105  0.0281
  254loPI   C3A 4057  13.339   1.242   8.972 -0.0540 -0.1313 -0.2075
  254loPI   C4A 4058  13.371   1.191   8.519  0.7268  0.0833 -0.2138
  254loPI   C5A 4059  13.647   1.296   8.202 -0.0067 -0.0166  0.2786
  254loPI   C6A 4060  13.801   1.693   8.044  0.0675 -0.1796  0.1339
  254loPI   C1B 4061  13.704   1.091   9.960  0.1096 -0.0249 -0.1231
  254loPI   C2B 4062  13.760   1.127   9.528 -0.1537  0.1373  0.1932
  254loPI   C3B 4063  13.772   1.040   9.116 -0.2716 -0.0942 -0.1070
  254loPI   C4B 4064  13.814   1.016   8.635 -0.1438 -0.2104 -0.2998
  255loPI    C1 4065  13.891   2.252  10.840  0.0167  0.1888  0.0640
  255loPI    C2 4066  14.236   2.338  11.023  0.0168  0.0434  0.1336
  255loPI    C3 4067  13.998   2.051  11.169 -0.0128 -0.0321 -0.0592
  255loPI   PO4 4068  13.973   2.298  10.538 -0.0293 -0.0641 -0.0362
  255loPI   GL1 4069  13.936   2.455  10.117 -0.2683  0.2188  0.1212
  255loPI   GL2 4070  14.160   2.780  10.130 -0.1866  0.0318 -0.2050
  255loPI   C1A 4071  13.921   2.472   9.772 -0.1656  0.2567 -0.1224
  255loPI   C2A 4072  13.992   2.469   9.333 -0.1162  0.4192 -0.1575
  255loPI   C3A 4073  14.019   2.383   8.920 -0.0530 -0.0525  0.3075
  255loPI   C4A 4074  14.051   2.460   8.393  0.2235  0.1649 -0.2891
  255loPI   C5A 4075  14.070   2.484   8.039 -0.3038  0.1183 -0.1703
  255loPI   C6A 4076  14.362   2.381   7.749  0.1009 -0.0475  0.0863
  255loPI   C1B 4077  14.343   2.750   9.757 -0.2402  0.0268 -0.0291
  255loPI   C2B 4078  14.414   2.788   9.394  0.0227  0.2281  0.1542
  255loPI   C3B 4079  14.391   2.845   8.980 -0.0428 -0.0175 -0.1696
  255loPI   C4B 4080  14.523   2.792   8.620 -0.1373  0.0675 -0.2529
  256loPI    C1 4081   9.758  15.379  10.958  0.0900 -0.3173  0.1468
  256loPI    C2 4082   9.608  15.714  11.117  0.2039 -0.1856 -0.0191
  256loPI    C3 4083   9.560  15.364  11.305  0.1099 -0.0726  0.1706
  256loPI   PO4 4084   9.624  15.330  10.735 -0.2860 -0.3075 -0.0572
  256loPI   GL1 4085   9.523  15.502  10.288  0.2504  0.1233 -0.0095
  256loPI   GL2 4086   9.808  15.605  10.264  0.1005 -0.1674  0.0330
  256loPI   C1A 4087   9.311  15.561   9.899  0.1623 -0.1352  0.2223
  256loPI   C2A 4088   9.282  15.516   9.436 -0.1893 -0.0572 -0.1139
  256loPI   C3A 4089   9.365  15.507   9.036  0.5206 -0.2583  0.1477
  256loPI   C4A 4090   9.344  15.424   8.522 -0.0736  0.1367  0.0480
  256loPI   C5A 4091   9.342  15.516   8.095  0.0564  0.1571  0.1645
  256loPI   C6A 4092   9.375  15.559   7.612  0.1285  0.1136  0.0832
  256loPI   C1B 4093   9.845  15.362   9.897  0.1678 -0.1161 -0.1450
  256loPI   C2B 4094   9.791  15.496   9.505  0.0286 -0.2168  0.0321
  256loPI   C3B 4095   9.870  15.353   9.185 -0.1198 -0.0837  0.1886
  256loPI   C4B 4096   9.856  15.309   8.718  0.1103  0.1422  0.0733
  257loPI    C1 4097  10.942  16.458  10.706 -0.1177 -0.1745 -0.0859
  257loPI    C2 4098  10.724  16.228  10.950 -0.1557  0.0584  0.1034
  257loPI    C3 4099  10.908  16.553  11.093  0.0640  0.0349 -0.1191
  257loPI   PO4 4100  10.815  16.482  10.537 -0.3099  0.0447  0.0715
  257loPI   GL1 4101  10.772  16.784  10.205  0.0321 -0.3559 -0.0141
  257loPI   GL2 4102  10.503  16.614  10.029  0.2546  0.2384 -0.1780
  257loPI   C1A 4103  10.959  16.982   9.892 -0.0367  0.1812  0.1154
  257loPI   C2A 4104  10.938  16.871   9.474 -0.0816  0.1661 -0.0114
  257loPI   C3A 4105  10.960  16.919   9.038  0.0041  0.1630  0.2300
  257loPI   C4A 4106  10.950  16.851   8.513  0.2777  0.2436  0.1418
  257loPI   C5A 4107  10.942  16.991   8.104 -0.1560  0.0824 -0.2592
  257loPI   C6A 4108  10.702  17.287   7.785 -0.0500  0.0456  0.1188
  257loPI   C1B 4109  10.509  16.635   9.677 -0.1828  0.1076  0.1228
  257loPI   C2B 4110  10.559  16.616   9.232  0.2818  0.3768 -0.2433
  257loPI   C3B 4111  10.597  16.582   8.695  0.3388 -0.0635 -0.3042
  257loPI   C4B 4112  10.496  16.606   8.245  0.1829 -0.2455 -0.2193
  258loPI    C1 4113   2.337  17.056  10.995  0.2420 -0.3912  0.0521
  258loPI    C2 4114   2.063  16.965  11.271  0.1416  0.0314  0.0991
  258loPI    C3 4115   2.439  17.046  11.381  0.1444  0.0257  0.0936
  258loPI   PO4 4116   2.254  17.366  10.837  0.2386  0.4373  0.1231
  258loPI   GL1 4117   2.133  17.410  10.395 -0.2390 -0.0700  0.2688
  258loPI   GL2 4118   2.229  17.006  10.437 -0.2007  0.1243  0.0787
  258loPI   C1A 4119   2.148  17.476   9.971 -0.0657 -0.1226 -0.1528
  258loPI   C2A 4120   2.077  17.449   9.545 -0.0851  0.0769 -0.2492
  258loPI   C3A 4121   2.140  17.541   9.135 -0.0614  0.0345  0.0581
  258loPI   C4A 4122   2.121  17.630   8.709 -0.1080  0.1161  0.0383
  258loPI   C5A 4123   2.367  17.468   8.320 -0.5704  0.0549 -0.2443
  258loPI   C6A 4124   2.750  17.553   8.286 -0.1013  0.1763  0.0308
  258loPI   C1B 4125   2.223  16.927   9.935 -0.1148 -0.0930  0.2815
  258loPI   C2B 4126   2.256  16.976   9.512  0.3682  0.1471  0.2694
  258loPI   C3B 4127   2.131  17.004   9.043 -0.3478  0.1537  0.0170
  258loPI   C4B 4128   2.154  17.104   8.650 -0.1260 -0.0774  0.0350
  259loPI    C1 4129   6.103   6.674  11.030  0.0147  0.1306  0.0736
  259loPI    C2 4130   6.461   6.686  11.209  0.0210 -0.1906  0.0889
  259loPI    C3 4131   6.127   6.713  11.427  0.0314  0.4362  0.0446
  259loPI   PO4 4132   6.162   6.832  10.754 -0.4338 -0.2075  0.1385
  259loPI   GL1 4133   6.115   6.930  10.226  0.0476  0.1362 -0.1107
  259loPI   GL2 4134   5.796   6.992  10.191  0.1041 -0.0687  0.0661
  259loPI   C1A 4135   6.086   7.106   9.794 -0.6264  0.0256  0.2284
  259loPI   C2A 4136   5.991   7.066   9.359 -0.0587 -0.1604  0.0618
  259loPI   C3A 4137   6.078   7.066   8.958 -0.0212  0.1711 -0.1103
  259loPI   C4A 4138   6.135   6.985   8.475 -0.0400  0.1996 -0.1314
  259loPI   C5A 4139   6.412   6.937   8.103 -0.1775  0.2366 -0.2910
  259loPI   C6A 4140   6.756   6.862   7.733  0.0989  0.1714 -0.2832
  259loPI   C1B 4141   5.747   6.740   9.770 -0.1732 -0.2199 -0.2971
  259loPI   C2B 4142   5.695   6.673   9.366  0.0378  0.1237 -0.1712
  259loPI   C3B 4143   5.702   6.705   8.827 -0.1984  0.0924  0.1696
  259loPI   C4B 4144   5.748   6.620   8.416 -0.0363  0.3284  0.0961
  260loPI    C1 4145   2.184  14.848  11.403 -0.2467 -0.1467 -0.0401
  260loPI    C2 4146   2.016  14.702  11.735  0.1180 -0.0249  0.2045
  260loPI    C3 4147   2.329  14.515  11.570  0.0059 -0.0253 -0.0117
  260loPI   PO4 4148   2.006  14.866  11.243 -0.1325 -0.1693  0.1589
  260loPI   GL1 4149   2.131  14.891  10.765 -0.1205 -0.2131 -0.1643
  260loPI   GL2 4150   1.928  14.694  10.609 -0.1228  0.3403 -0.0809
  260loPI   C1A 4151   2.262  15.070  10.352 -0.0600  0.0943  0.2026
  260loPI   C2A 4152   2.206  15.199   9.914 -0.3497 -0.0273  0.2335
  260loPI   C3A 4153   2.235  15.094   9.483  0.1451 -0.0669  0.1699
  260loPI   C4A 4154   2.241  15.116   9.051  0.2656 -0.1294  0.0910
  260loPI   C5A 4155   2.198  14.992   8.627  0.1375 -0.1779 -0.1286
  260loPI   C6A 4156   1.827  14.873   8.434  0.4262 -0.0109  0.1958
  260loPI   C1B 4157   1.876  14.829  10.143 -0.0406 -0.1126 -0.3612
  260loPI   C2B 4158   1.804  14.652   9.700  0.2233 -0.0326 -0.4623
  260loPI   C3B 4159   1.847  14.821   9.280 -0.1350 -0.1553 -0.1822
  260loPI   C4B 4160   1.856  14.722   8.935 -0.2173 -0.3312  0.1995
  261loPI    C1 4161   7.954  15.009  11.009 -0.2414 -0.0244  0.0386
  261loPI    C2 4162   8.183  14.720  11.164  0.0671  0.1414 -0.1006
  261loPI    C3 4163   8.114  15.053  11.373 -0.1360  0.0480 -0.0162
  261loPI   PO4 4164   7.849  14.869  10.801 -0.2439 -0.4044 -0.0149
  261loPI   GL1 4165   7.912  14.860  10.428  0.0686  0.0446 -0.0644
  261loPI   GL2 4166   8.006  15.066  10.189  0.3453 -0.1713 -0.1320
  261loPI   C1A 4167   8.090  14.518  10.127 -0.1475 -0.0026  0.0472
  261loPI   C2A 4168   8.218  14.525   9.805  0.0689 -0.1074 -0.2069
  261loPI   C3A 4169   8.169  14.493   9.486 -0.0383 -0.4690 -0.2371
  261loPI   C4A 4170   8.253  14.536   9.140 -0.0967  0.3554  0.0954
  261loPI   C5A 4171   8.175  14.533   8.695  0.2941  0.2497 -0.1010
  261loPI   C6A 4172   8.086  14.647   8.323 -0.1666  0.0590 -0.0302
  261loPI   C1B 4173   8.023  15.006   9.712  0.2472 -0.0309 -0.0849
  261loPI   C2B 4174   8.099  15.046   9.259 -0.1792  0.2972  0.0752
  261loPI   C3B 4175   8.079  15.027   8.813  0.1422 -0.0544 -0.1165
  261loPI   C4B 4176   7.959  15.182   8.406 -0.0976  0.2089 -0.1101
  262loPI    C1 4177  13.354   6.520  10.759  0.3346 -0.0845 -0.2686
  262loPI    C2 4178  13.641   6.734  10.936  0.0640  0.2247 -0.1929
  262loPI    C3 4179  13.317   6.624  11.143 -0.0343  0.1786 -0.3695
  262loPI   PO4 4180  13.236   6.624  10.558  0.4116 -0.0676  0.2863
  262loPI   GL1 4181  13.352   6.805  10.198 -0.0387 -0.0782  0.1614
  262loPI   GL2 4182  13.627   6.808   9.981  0.1983 -0.0647 -0.4230
  262loPI   C1A 4183  13.186   6.990   9.749  0.3076 -0.2803  0.0858
  262loPI   C2A 4184  13.195   6.963   9.331  0.0772  0.1659  0.0703
  262loPI   C3A 4185  13.173   6.966   8.996  0.0435 -0.0557  0.1246
  262loPI   C4A 4186  13.139   6.942   8.540 -0.0589  0.0547 -0.0375
  262loPI   C5A 4187  13.114   6.752   8.089 -0.2409 -0.0123  0.0417
  262loPI   C6A 4188  12.825   6.393   7.984 -0.1888 -0.1436 -0.1059
  262loPI   C1B 4189  13.708   6.806   9.600 -0.1744  0.3349  0.1360
  262loPI   C2B 4190  13.747   6.832   9.166 -0.2763 -0.0023  0.4987
  262loPI   C3B 4191  13.637   6.813   8.685  0.1486 -0.3272  0.1779
  262loPI   C4B 4192  13.642   6.699   8.202 -0.4854  0.0696 -0.0172
  263loPI    C1 4193  12.554  17.023  10.849  0.0262  0.0663 -0.1475
  263loPI    C2 4194  12.185  16.942  10.981  0.0673 -0.0998 -0.1316
  263loPI    C3 4195  12.498  16.906  11.227  0.1261 -0.2479 -0.2267
  263loPI   PO4 4196  12.489  17.238  10.658 -0.1627 -0.0458 -0.1820
  263loPI   GL1 4197  12.473  17.163  10.249  0.1684 -0.0147 -0.1532
  263loPI   GL2 4198  12.580  17.409  10.083 -0.3884 -0.3191  0.0679
  263loPI   C1A 4199  12.380  16.946   9.831 -0.2460  0.1404 -0.0346
  263loPI   C2A 4200  12.289  16.903   9.360 -0.5585 -0.1612 -0.0812
  263loPI   C3A 4201  12.322  16.880   8.937 -0.0679  0.0911  0.2724
  263loPI   C4A 4202  12.358  16.784   8.466  0.0636  0.0741 -0.0130
  263loPI   C5A 4203  12.189  16.798   8.047 -0.1464  0.2159 -0.1403
  263loPI   C6A 4204  11.881  16.801   7.683  0.2077 -0.3542 -0.3027
  263loPI   C1B 4205  12.712  17.263   9.640 -0.0159  0.0614  0.2805
  263loPI   C2B 4206  12.688  17.332   9.273 -0.0628 -0.1065 -0.1553
  263loPI   C3B 4207  12.736  17.155   8.869 -0.2827  0.2514 -0.0520
  263loPI   C4B 4208  12.724  17.085   8.439 -0.0635  0.0077  0.1368
  264loPI    C1 4209  17.794   1.182  10.573  0.0904  0.1564 -0.0783
  264loPI    C2 4210  17.901   1.506  10.782  0.1056  0.0201  0.1284
  264loPI    C3 4211  17.679   1.222  10.954  0.2848 -0.1882  0.0206
  264loPI   PO4 4212  17.752   1.239  10.338 -0.1257 -0.4120 -0.0698
  264loPI   GL1 4213  17.966   1.316   9.972 -0.0367 -0.2118 -0.0078
  264loPI   GL2 4214  17.861   1.582   9.878 -0.1064  0.0248  0.0074
  264loPI   C1A 4215  18.042   1.013   9.635  0.0224  0.0623 -0.1233
  264loPI   C2A 4216  18.143   0.895   9.285  0.0055 -0.2012  0.0218
  264loPI   C3A 4217  18.046   1.043   8.867  0.3101 -0.0203  0.1200
  264loPI   C4A 4218  18.098   1.049   8.431  0.1169  0.0564 -0.2760
  264loPI   C5A 4219  18.007   1.228   7.939  0.4951  0.1345 -0.0736
  264loPI   C6A 4220  17.721   1.012   7.624 -0.0883 -0.1919 -0.2586
  264loPI   C1B 4221  17.942   1.542   9.449  0.1321  0.1458  0.0008
  264loPI   C2B 4222  17.879   1.507   8.953  0.0351  0.1712 -0.1345
  264loPI   C3B 4223  18.056   1.587   8.503  0.2365  0.1542 -0.3134
  264loPI   C4B 4224  18.106   1.711   8.022  0.1694  0.0125  0.2587
  265loPI    C1 4225  12.005  17.275  10.654 -0.1591  0.0334  0.1266
  265loPI    C2 4226  11.995  17.659  10.766  0.0534  0.1123 -0.1172
  265loPI    C3 4227  11.813  17.381  10.988 -0.1259  0.3570  0.0460
  265loPI   PO4 4228  12.053  17.354  10.378 -0.1552 -0.1700  0.2075
  265loPI   GL1 4229  12.128  17.642   9.986 -0.0941  0.1250  0.1198
  265loPI   GL2 4230  12.185  17.818   9.893  0.2707 -0.0284  0.3158
  265loPI   C1A 4231  12.221  17.450   9.595  0.2714  0.1758 -0.1398
  265loPI   C2A 4232  12.209  17.367   9.114 -0.1791  0.2607  0.4500
  265loPI   C3A 4233  12.298  17.308   8.670 -0.1478  0.1658 -0.1684
  265loPI   C4A 4234  12.216  17.364   8.252  0.0584  0.1902 -0.1131
  265loPI   C5A 4235  11.936  17.636   8.010  0.1157  0.1912  0.0556
  265loPI   C6A 4236  11.965  17.619   7.591 -0.0118  0.2835 -0.1433
  265loPI   C1B 4237  12.132  18.019   9.510 -0.4503 -0.0403 -0.1127
  265loPI   C2B 4238  12.137  17.960   9.036 -0.0354 -0.1771  0.2144
  265loPI   C3B 4239  12.190  17.808   8.595 -0.0838 -0.0650 -0.1161
  265loPI   C4B 4240  12.262  17.943   8.104 -0.2269  0.1663 -0.0129
  266loPI    C1 4241   8.767  13.300  10.817 -0.0064  0.1931  0.0461
  266loPI    C2 4242   8.422  13.259  11.014 -0.0282 -0.2138 -0.0669
  266loPI    C3 4243   8.764  13.298  11.217 -0.1178  0.0102  0.0454
  266loPI   PO4 4244   8.704  13.136  10.567 -0.1393 -0.0542 -0.1588
  266loPI   GL1 4245   8.633  13.351  10.120 -0.1687  0.0908 -0.2269
  266loPI   GL2 4246   8.977  13.363  10.077  0.2326  0.1333 -0.0054
  266loPI   C1A 4247   8.469  13.506   9.790  0.2667  0.1453 -0.0880
  266loPI   C2A 4248   8.444  13.500   9.273  0.0761  0.2615  0.2285
  266loPI   C3A 4249   8.343  13.420   8.885 -0.1626 -0.0924  0.0057
  266loPI   C4A 4250   8.172  13.316   8.462  0.0039 -0.1222  0.1220
  266loPI   C5A 4251   8.100  13.112   8.225 -0.1978  0.2369  0.0189
  266loPI   C6A 4252   8.257  13.089   7.844  0.3768  0.1709  0.0721
  266loPI   C1B 4253   8.883  13.311   9.566  0.1138  0.0599  0.2612
  266loPI   C2B 4254   8.824  13.288   9.103 -0.1038  0.0596 -0.2079
  266loPI   C3B 4255   8.845  13.316   8.665 -0.5280  0.0600  0.0945
  266loPI   C4B 4256   8.619  13.403   8.226  0.1661 -0.0881  0.1562
  267loPI    C1 4257   7.382   3.456  10.868  0.0898 -0.0093  0.0413
  267loPI    C2 4258   7.515   3.789  11.044  0.1055  0.0121 -0.0112
  267loPI    C3 4259   7.626   3.432  11.185  0.1836  0.0297 -0.0274
  267loPI   PO4 4260   7.480   3.376  10.664  0.2972 -0.0079 -0.1008
  267loPI   GL1 4261   7.323   3.200  10.165 -0.1326  0.0431  0.1584
  267loPI   GL2 4262   7.545   3.095  10.240  0.2771 -0.0695 -0.0837
  267loPI   C1A 4263   7.178   3.254   9.756 -0.0917 -0.0293 -0.3405
  267loPI   C2A 4264   7.316   3.323   9.367  0.2536 -0.0214 -0.0190
  267loPI   C3A 4265   7.410   3.373   8.918 -0.0994  0.0569  0.1363
  267loPI   C4A 4266   7.303   3.476   8.509 -0.3749 -0.2151 -0.0061
  267loPI   C5A 4267   7.052   3.297   8.183  0.1069 -0.0558  0.2735
  267loPI   C6A 4268   6.683   3.132   8.141  0.1169  0.1982  0.2677
  267loPI   C1B 4269   7.733   3.170   9.924 -0.0867  0.0377 -0.0982
  267loPI   C2B 4270   7.821   3.143   9.554  0.1794  0.1593  0.0848
  267loPI   C3B 4271   7.824   3.195   9.087  0.4751 -0.2192  0.2087
  267loPI   C4B 4272   7.957   3.214   8.686 -0.0930  0.4815 -0.2743
  268loPI    C1 4273  15.140   4.318  10.704  0.0258  0.3242 -0.1709
  268loPI    C2 4274  15.443   4.473  10.915 -0.0420  0.4569 -0.1695
  268loPI    C3 4275  15.092   4.398  11.093  0.1520 -0.2096 -0.0373
  268loPI   PO4 4276  15.061   4.469  10.534 -0.1432  0.1996  0.0655
  268loPI   GL1 4277  15.139   4.716  10.215 -0.0857  0.1970  0.2386
  268loPI   GL2 4278  14.980   4.531   9.994  0.0916 -0.1020  0.0733
  268loPI   C1A 4279  15.470   4.741   9.888 -0.0852  0.0941 -0.4833
  268loPI   C2A 4280  15.502   4.862   9.475  0.3021 -0.0940 -0.2820
  268loPI   C3A 4281  15.516   4.766   9.032 -0.1517 -0.0606 -0.1582
  268loPI   C4A 4282  15.523   4.717   8.664  0.1058  0.0026 -0.0987
  268loPI   C5A 4283  15.483   4.703   8.159  0.0504 -0.3957 -0.1509
  268loPI   C6A 4284  15.450   4.663   7.765 -0.0173  0.0866 -0.1992
  268loPI   C1B 4285  15.085   4.538   9.564 -0.3630 -0.2025  0.0804
  268loPI   C2B 4286  15.032   4.410   9.139 -0.1296 -0.2393 -0.0489
  268loPI   C3B 4287  15.092   4.407   8.737 -0.0854  0.0535  0.1732
  268loPI   C4B 4288  15.101   4.320   8.327 -0.2355 -0.0341 -0.0182
  269loPI    C1 4289  13.548   9.007  11.001 -0.0418  0.0755  0.1210
  269loPI    C2 4290  13.843   9.241  11.137 -0.2604  0.4124  0.0277
  269loPI    C3 4291  13.578   9.085  11.393  0.1041 -0.0526  0.1364
  269loPI   PO4 4292  13.630   8.927  10.760 -0.2329 -0.1553 -0.2174
  269loPI   GL1 4293  13.891   8.844  10.368 -0.1190  0.0595  0.1546
  269loPI   GL2 4294  13.607   8.643  10.301 -0.0054 -0.0612  0.0839
  269loPI   C1A 4295  14.149   9.022  10.006 -0.0182 -0.0739 -0.0337
  269loPI   C2A 4296  14.207   9.035   9.577  0.1760 -0.1557  0.0509
  269loPI   C3A 4297  14.238   9.033   9.157 -0.2395 -0.0062 -0.0108
  269loPI   C4A 4298  14.249   9.018   8.779 -0.2987  0.1308  0.0968
  269loPI   C5A 4299  14.176   9.076   8.332 -0.0422 -0.0588  0.1636
  269loPI   C6A 4300  14.321   8.886   8.051 -0.0571 -0.0731  0.0486
  269loPI   C1B 4301  13.770   8.709   9.843  0.1062 -0.1323  0.0533
  269loPI   C2B 4302  13.788   8.653   9.367 -0.2234  0.0026 -0.0472
  269loPI   C3B 4303  13.800   8.699   8.965  0.2109  0.0534  0.3121
  269loPI   C4B 4304  13.764   8.833   8.585  0.0560  0.2657 -0.0079
  270loPI    C1 4305   4.243  11.749  11.492 -0.1471  0.1360 -0.0243
  270loPI    C2 4306   3.997  11.439  11.433  0.0248  0.0044 -0.0549
  270loPI    C3 4307   3.949  11.673  11.753 -0.1731  0.0118 -0.0888
  270loPI   PO4 4308   4.216  11.784  11.140 -0.0441  0.2192  0.1271
  270loPI   GL1 4309   3.985  11.917  10.902  0.0380  0.0510  0.0047
  270loPI   GL2 4310   3.758  12.104  10.867 -0.0867  0.2839  0.0948
  270loPI   C1A 4311   4.136  11.854  10.496  0.0756 -0.2807 -0.0387
  270loPI   C2A 4312   4.234  11.981  10.118  0.0969 -0.0903 -0.1821
  270loPI   C3A 4313   4.189  12.007   9.654  0.4900  0.2963 -0.1172
  270loPI   C4A 4314   4.117  12.052   9.165  0.2001  0.1929  0.0218
  270loPI   C5A 4315   4.219  12.086   8.782  0.1090  0.1200 -0.1229
  270loPI   C6A 4316   4.112  12.532   8.555 -0.0000  0.1473  0.1913
  270loPI   C1B 4317   3.705  12.154  10.479 -0.0600  0.2681  0.0967
  270loPI   C2B 4318   3.731  12.116  10.067 -0.1589 -0.2135 -0.1472
  270loPI   C3B 4319   3.696  12.202   9.621  0.2414  0.1631  0.0129
  270loPI   C4B 4320   3.604  12.209   9.154 -0.3024 -0.0284  0.0895
  271loPI    C1 4321  13.348   6.000  10.745  0.1046  0.0324  0.1366
  271loPI    C2 4322  13.097   6.127  11.030 -0.2076 -0.2214 -0.0183
  271loPI    C3 4323  13.112   5.739  10.935  0.2171 -0.2039 -0.0430
  271loPI   PO4 4324  13.337   6.081  10.426 -0.0084  0.1488  0.2856
  271loPI   GL1 4325  13.303   6.257  10.133 -0.2595  0.1106  0.2637
  271loPI   GL2 4326  12.980   6.583  10.028  0.0487  0.0737  0.2045
  271loPI   C1A 4327  13.316   6.525   9.649 -0.1550 -0.0886 -0.3246
  271loPI   C2A 4328  13.304   6.528   9.276 -0.0191 -0.2770  0.0870
  271loPI   C3A 4329  13.181   6.483   8.846 -0.0692  0.0689  0.1531
  271loPI   C4A 4330  13.272   6.440   8.472  0.0150  0.0145  0.0364
  271loPI   C5A 4331  13.286   6.225   8.078 -0.0265 -0.1021  0.1716
  271loPI   C6A 4332  13.201   6.266   7.618 -0.2171  0.1662  0.0649
  271loPI   C1B 4333  12.867   6.682   9.618  0.0482  0.0889 -0.1208
  271loPI   C2B 4334  12.740   6.716   9.255 -0.1167  0.0329  0.1714
  271loPI   C3B 4335  12.704   6.727   8.935 -0.3907  0.1480 -0.3393
  271loPI   C4B 4336  12.745   6.645   8.456 -0.0262  0.0224 -0.0777
  272loPI    C1 4337   3.618   6.267  11.097 -0.1196 -0.0567  0.1667
  272loPI    C2 4338   3.625   6.617  11.290 -0.1608 -0.0725  0.1966
  272loPI    C3 4339   3.694   6.277  11.489 -0.0054 -0.0716  0.1451
  272loPI   PO4 4340   3.525   6.259  10.881  0.1477 -0.1692  0.2889
  272loPI   GL1 4341   3.590   6.206  10.502 -0.0422 -0.0842 -0.1186
  272loPI   GL2 4342   3.660   6.553  10.430  0.2013  0.1950 -0.0052
  272loPI   C1A 4343   3.618   6.059  10.141  0.1081  0.0399  0.1731
  272loPI   C2A 4344   3.541   6.079   9.798  0.2715 -0.1439  0.0929
  272loPI   C3A 4345   3.577   6.107   9.308 -0.2783  0.3213 -0.0665
  272loPI   C4A 4346   3.583   6.146   8.928  0.1744  0.2851 -0.0893
  272loPI   C5A 4347   3.642   6.083   8.504  0.1070 -0.0652  0.0553
  272loPI   C6A 4348   3.766   6.047   8.132 -0.2261 -0.0467 -0.0819
  272loPI   C1B 4349   3.468   6.593  10.007  0.3036  0.0016  0.0974
  272loPI   C2B 4350   3.388   6.520   9.535  0.0212 -0.1815  0.0012
  272loPI   C3B 4351   3.529   6.598   9.105  0.0691 -0.3246 -0.0492
  272loPI   C4B 4352   3.550   6.557   8.640 -0.2484 -0.0764  0.0928
  273loPI    C1 4353  11.642   2.680  10.798  0.0040  0.2035 -0.1075
  273loPI    C2 4354  11.535   2.503  11.140 -0.1247  0.3007 -0.0967
  273loPI    C3 4355  11.825   2.778  11.140  0.1995 -0.0332 -0.1419
  273loPI   PO4 4356  11.397   2.718  10.602  0.1407 -0.2847 -0.1395
  273loPI   GL1 4357  11.430   2.631  10.309  0.3869 -0.1917  0.1285
  273loPI   GL2 4358  11.181   2.727  10.120 -0.1183 -0.1173 -0.4019
  273loPI   C1A 4359  11.683   2.500   9.995  0.1502  0.0009 -0.2509
  273loPI   C2A 4360  11.673   2.295   9.630  0.0457 -0.2323 -0.0445
  273loPI   C3A 4361  11.707   2.373   9.192 -0.2677 -0.0843 -0.1467
  273loPI   C4A 4362  11.663   2.276   8.729  0.1740  0.0098  0.1991
  273loPI   C5A 4363  11.761   2.233   8.288 -0.0369 -0.0798  0.0356
  273loPI   C6A 4364  11.328   2.331   7.995 -0.2912 -0.2648 -0.3792
  273loPI   C1B 4365  11.211   2.469   9.823  0.0045  0.0671 -0.4740
  273loPI   C2B 4366  11.259   2.499   9.421 -0.1641 -0.0667 -0.1145
  273loPI   C3B 4367  11.215   2.418   8.935 -0.0860 -0.1459 -0.5091
  273loPI   C4B 4368  11.221   2.521   8.522 -0.0808  0.0332 -0.0215
  274loPI    C1 4369  15.948   7.567  10.856 -0.0512  0.1254 -0.0970
  274loPI    C2 4370  16.177   7.842  11.035  0.0844  0.0399 -0.1381
  274loPI    C3 4371  15.898   7.648  11.245  0.0880  0.1037 -0.0740
  274loPI   PO4 4372  15.985   7.715  10.582  0.4299  0.1253  0.0486
  274loPI   GL1 4373  16.040   7.601  10.264 -0.3448 -0.0380 -0.3514
  274loPI   GL2 4374  16.227   7.805  10.088  0.0199  0.0337 -0.0225
  274loPI   C1A 4375  15.810   7.441   9.894 -0.0796  0.1938 -0.1250
  274loPI   C2A 4376  15.794   7.512   9.472  0.4180 -0.1547  0.3047
  274loPI   C3A 4377  15.954   7.594   9.059  0.0869  0.1902 -0.2054
  274loPI   C4A 4378  15.919   7.594   8.609  0.1063  0.1852 -0.0006
  274loPI   C5A 4379  16.063   7.450   8.172  0.0261  0.0172 -0.2532
  274loPI   C6A 4380  15.900   7.374   7.674  0.1262 -0.0187 -0.0269
  274loPI   C1B 4381  16.405   7.927   9.680 -0.1653  0.2283  0.0384
  274loPI   C2B 4382  16.331   7.962   9.277 -0.1600 -0.0730  0.2772
  274loPI   C3B 4383  16.361   7.901   8.807 -0.0407  0.0907  0.0556
  274loPI   C4B 4384  16.270   7.898   8.349 -0.0092 -0.0294  0.1076
  275loPI    C1 4385   7.265   8.268  10.705  0.1257 -0.1734  0.1154
  275loPI    C2 4386   7.584   8.155  10.918  0.0358 -0.2260  0.2229
  275loPI    C3 4387   7.403   8.502  10.999  0.0469 -0.2107  0.1823
  275loPI   PO4 4388   7.277   8.266  10.555  0.0345  0.2856 -0.1681
  275loPI   GL1 4389   7.239   8.283  10.162  0.0900  0.2091 -0.3090
  275loPI   GL2 4390   7.489   8.137  10.078 -0.1987  0.1752  0.2656
  275loPI   C1A 4391   7.282   8.624   9.903  0.0776  0.0650  0.2811
  275loPI   C2A 4392   7.070   8.703   9.561 -0.0334  0.4822  0.1774
  275loPI   C3A 4393   7.152   8.701   9.080  0.1706  0.2784 -0.0636
  275loPI   C4A 4394   7.130   8.785   8.589  0.0677 -0.0489  0.0596
  275loPI   C5A 4395   7.049   8.626   8.162  0.1122 -0.0429  0.0554
  275loPI   C6A 4396   6.737   8.402   7.995 -0.2985  0.0374 -0.2844
  275loPI   C1B 4397   7.328   8.251   9.609 -0.1254 -0.3080  0.0010
  275loPI   C2B 4398   7.324   8.181   9.191  0.3447  0.2293 -0.2123
  275loPI   C3B 4399   7.321   8.218   8.778  0.1064 -0.1196 -0.0299
  275loPI   C4B 4400   7.267   8.145   8.344  0.0926 -0.0090  0.1357
  276loPI    C1 4401   7.489  16.712  10.990  0.0851  0.1023  0.0072
  276loPI    C2 4402   7.639  16.713  11.361  0.1696 -0.0552 -0.0258
  276loPI    C3 4403   7.374  16.434  11.254  0.0394  0.0740 -0.0425
  276loPI   PO4 4404   7.718  16.740  10.771  0.3698  0.2458 -0.2058
  276loPI   GL1 4405   7.579  16.717  10.381  0.0465 -0.1606  0.0219
  276loPI   GL2 4406   7.818  16.527  10.294 -0.0956 -0.0296 -0.0446
  276loPI   C1A 4407   7.361  16.782   9.984 -0.1081  0.1265  0.3468
  276loPI   C2A 4408   7.217  16.804   9.613  0.0532 -0.0475  0.2008
  276loPI   C3A 4409   7.286  16.746   9.119  0.0894  0.1035 -0.1693
  276loPI   C4A 4410   7.274  16.720   8.644  0.1265 -0.3043  0.4008
  276loPI   C5A 4411   7.323  16.997   8.297  0.1388  0.0928 -0.1584
  276loPI   C6A 4412   7.772  17.183   8.091 -0.1039  0.5609  0.0691
  276loPI   C1B 4413   7.766  16.515   9.873  0.0670 -0.3142 -0.0668
  276loPI   C2B 4414   7.781  16.519   9.345 -0.1134  0.0793 -0.1941
  276loPI   C3B 4415   7.762  16.619   8.922  0.0297  0.3100  0.0663
  276loPI   C4B 4416   7.756  16.658   8.504 -0.2756 -0.1437  0.0764
  277loPI    C1 4417  12.156  13.571  10.557 -0.0295 -0.1301 -0.1333
  277loPI    C2 4418  11.847  13.594  10.810 -0.0319 -0.0468 -0.1435
  277loPI    C3 4419  12.166  13.371  10.903  0.0247  0.0894 -0.0061
  277loPI   PO4 4420  12.152  13.749  10.466 -0.3676 -0.0542  0.1857
  277loPI   GL1 4421  12.171  13.912  10.102  0.2784  0.0037  0.1859
  277loPI   GL2 4422  11.938  13.664   9.841 -0.1841  0.2174 -0.0737
  277loPI   C1A 4423  12.349  14.036   9.712  0.1109 -0.0752 -0.3685
  277loPI   C2A 4424  12.395  14.020   9.219  0.0429  0.0625  0.0764
  277loPI   C3A 4425  12.389  13.990   8.796  0.0952 -0.1339 -0.2274
  277loPI   C4A 4426  12.341  14.012   8.391  0.1641 -0.2363  0.1252
  277loPI   C5A 4427  12.339  13.919   7.941 -0.1992 -0.1100  0.0174
  277loPI   C6A 4428  12.072  14.100   7.571  0.2754  0.1868  0.1633
  277loPI   C1B 4429  12.048  13.742   9.437 -0.2275  0.2648 -0.0249
  277loPI   C2B 4430  12.030  13.712   9.065 -0.0010  0.2813  0.3375
  277loPI   C3B 4431  11.910  13.638   8.635 -0.2783 -0.1876  0.1909
  277loPI   C4B 4432  11.947  13.633   8.172 -0.0798  0.0686  0.1620
  278loPI    C1 4433  11.114   4.846  10.106  0.1171  0.0637  0.0870
  278loPI    C2 4434  10.881   4.917   9.789  0.0888  0.2976  0.1581
  278loPI    C3 4435  10.734   4.960  10.158  0.1361  0.0741  0.2046
  278loPI   PO4 4436  11.333   4.973  10.011 -0.1245 -0.1967  0.2087
  278loPI   GL1 4437  11.355   5.106   9.688  0.2816 -0.0289 -0.2905
  278loPI   GL2 4438  11.596   5.231   9.607 -0.1253 -0.1800  0.2691
  278loPI   C1A 4439  11.153   4.972   9.363  0.1124 -0.0892 -0.0729
  278loPI   C2A 4440  11.337   4.827   8.913  0.0685 -0.0791  0.1381
  278loPI   C3A 4441  11.268   4.869   8.473 -0.0216  0.2246  0.1472
  278loPI   C4A 4442  11.379   4.796   8.090  0.0187  0.2739 -0.1365
  278loPI   C5A 4443  11.391   4.702   7.727 -0.0207 -0.2824 -0.1386
  278loPI   C6A 4444  11.304   4.509   7.307 -0.0162 -0.0119  0.0011
  278loPI   C1B 4445  11.572   5.210   9.158  0.1487 -0.2022  0.0853
  278loPI   C2B 4446  11.634   5.219   8.724 -0.1139  0.0468  0.1489
  278loPI   C3B 4447  11.636   5.177   8.275 -0.1637  0.2048  0.1807
  278loPI   C4B 4448  11.451   5.271   7.809 -0.3119  0.0457 -0.1004
  279loPI    C1 4449   7.216   7.747  10.673 -0.1806  0.0845 -0.1311
  279loPI    C2 4450   7.162   7.414  10.888  0.2260  0.0577 -0.0622
  279loPI    C3 4451   7.169   7.770  11.070  0.1494  0.0726 -0.0882
  279loPI   PO4 4452   7.069   7.762  10.431 -0.0626 -0.5580  0.4257
  279loPI   GL1 4453   7.102   7.810  10.001  0.0630 -0.1433  0.2119
  279loPI   GL2 4454   6.874   7.728   9.779 -0.0426 -0.1800  0.1556
  279loPI   C1A 4455   7.351   7.770   9.618  0.0603  0.1157 -0.0714
  279loPI   C2A 4456   7.471   7.683   9.157 -0.2811  0.0785 -0.1691
  279loPI   C3A 4457   7.467   7.619   8.735 -0.1241 -0.0627 -0.1844
  279loPI   C4A 4458   7.462   7.673   8.323 -0.3552  0.1354 -0.1149
  279loPI   C5A 4459   7.596   7.832   7.971  0.2913  0.1315 -0.1082
  279loPI   C6A 4460   7.901   7.844   7.605 -0.1528  0.1105 -0.0863
  279loPI   C1B 4461   6.831   7.831   9.409 -0.2752  0.0276  0.1024
  279loPI   C2B 4462   6.956   7.853   9.052  0.2028 -0.0037 -0.2545
  279loPI   C3B 4463   6.974   7.798   8.579  0.1775 -0.2299 -0.3448
  279loPI   C4B 4464   7.035   7.712   8.106  0.1767  0.2798 -0.0555
  280loPI    C1 4465  17.589  11.598  11.057 -0.1108  0.2131  0.2125
  280loPI    C2 4466  17.235  11.497  11.215 -0.1063  0.3733  0.3276
  280loPI    C3 4467  17.489  11.726  11.423  0.3714 -0.3223  0.5471
  280loPI   PO4 4468  17.592  11.752  10.879  0.1969 -0.0545 -0.1109
  280loPI   GL1 4469  17.641  11.737  10.505  0.1798 -0.0291  0.0437
  280loPI   GL2 4470  17.904  11.581  10.302 -0.2325  0.0610 -0.3936
  280loPI   C1A 4471  17.453  11.803  10.135  0.3658  0.1754  0.0070
  280loPI   C2A 4472  17.420  11.856   9.729 -0.0317  0.0141  0.0714
  280loPI   C3A 4473  17.428  11.842   9.231  0.4539  0.1454  0.3260
  280loPI   C4A 4474  17.384  11.704   8.812  0.0172 -0.0672  0.0812
  280loPI   C5A 4475  17.357  11.898   8.443  0.0112 -0.3086  0.1582
  280loPI   C6A 4476  17.077  11.697   8.157  0.2137  0.1765  0.2280
  280loPI   C1B 4477  17.924  11.666   9.887  0.3765 -0.0245 -0.0541
  280loPI   C2B 4478  17.838  11.702   9.412 -0.0683 -0.0776  0.1014
  280loPI   C3B 4479  17.851  11.683   8.925 -0.3170 -0.1280 -0.0540
  280loPI   C4B 4480  17.735  11.573   8.358  0.2777  0.1755 -0.1680
  281loPI    C1 4481   2.952  15.886  11.309  0.0925  0.1004  0.0568
  281loPI    C2 4482   2.990  16.266  11.429  0.1538  0.1100  0.0074
  281loPI    C3 4483   3.116  15.969  11.665  0.1321  0.1216  0.0337
  281loPI   PO4 4484   3.050  15.871  11.091  0.1956  0.1736 -0.0575
  281loPI   GL1 4485   2.872  15.884  10.741  0.3982  0.4829 -0.1908
  281loPI   GL2 4486   2.771  16.108  10.527  0.0863 -0.1042 -0.2317
  281loPI   C1A 4487   2.938  15.728  10.295  0.1604 -0.1982  0.3052
  281loPI   C2A 4488   2.958  15.809   9.878  0.0077  0.1477  0.0286
  281loPI   C3A 4489   2.957  15.820   9.322 -0.1962  0.2288 -0.0561
  281loPI   C4A 4490   3.105  15.714   8.875  0.3429 -0.2019  0.1669
  281loPI   C5A 4491   2.873  15.738   8.586  0.1789  0.2577 -0.0323
  281loPI   C6A 4492   2.717  15.520   8.205  0.1119 -0.3143  0.0294
  281loPI   C1B 4493   2.858  16.276  10.083  0.2036 -0.3447  0.2505
  281loPI   C2B 4494   2.837  16.261   9.658  0.3227  0.2989 -0.1049
  281loPI   C3B 4495   2.890  16.338   9.266  0.0127  0.0957 -0.0848
  281loPI   C4B 4496   2.888  16.358   8.917  0.0412  0.1425  0.0697
  282loPI    C1 4497   2.045   1.566  10.660  0.2388 -0.2591  0.1149
  282loPI    C2 4498   1.686   1.402  10.596  0.0952  0.0928 -0.0064
  282loPI    C3 4499   1.830   1.429  10.968  0.0664 -0.1875  0.0275
  282loPI   PO4 4500   2.093   1.579  10.389 -0.1299  0.1002  0.3552
  282loPI   GL1 4501   1.988   1.300  10.159  0.1993  0.0200  0.2142
  282loPI   GL2 4502   1.712   1.415  10.086 -0.1119  0.2389  0.0079
  282loPI   C1A 4503   2.044   1.208   9.711  0.1123 -0.0048  0.1488
  282loPI   C2A 4504   2.246   1.225   9.320  0.4083  0.0372  0.0378
  282loPI   C3A 4505   2.286   1.180   8.870 -0.0132  0.3025  0.0274
  282loPI   C4A 4506   2.267   1.064   8.436  0.1973  0.2175  0.0082
  282loPI   C5A 4507   2.176   1.128   8.043  0.0178  0.1335  0.0982
  282loPI   C6A 4508   1.924   1.506   7.901  0.1410 -0.1262 -0.1410
  282loPI   C1B 4509   1.535   1.358   9.755 -0.0632 -0.1823  0.0934
  282loPI   C2B 4510   1.636   1.366   9.313 -0.0001 -0.1245 -0.0095
  282loPI   C3B 4511   1.740   1.376   8.867  0.1244  0.0133  0.0612
  282loPI   C4B 4512   1.821   1.317   8.414  0.0427  0.1334  0.0796
  283loPI    C1 4513   1.618  10.717  11.178  0.0483 -0.0796  0.0327
  283loPI    C2 4514   1.675  11.050  10.963  0.1988 -0.1540 -0.0445
  283loPI    C3 4515   1.981  10.803  11.033  0.1006 -0.2463  0.0634
  283loPI   PO4 4516   1.508  10.612  11.070  0.0347 -0.2751  0.3090
  283loPI   GL1 4517   1.555  10.681  10.609  0.0506  0.0296 -0.1618
  283loPI   GL2 4518   1.741  10.924  10.468 -0.2582  0.1878 -0.1770
  283loPI   C1A 4519   1.772  10.447  10.292  0.1995 -0.1877  0.2683
  283loPI   C2A 4520   1.711  10.480   9.898 -0.0222  0.1317 -0.0598
  283loPI   C3A 4521   1.697  10.439   9.550 -0.3669 -0.0726 -0.0446
  283loPI   C4A 4522   1.662  10.414   9.092 -0.3548 -0.1381  0.2055
  283loPI   C5A 4523   1.657  10.338   8.653 -0.1762  0.0968 -0.3955
  283loPI   C6A 4524   1.840  10.553   8.317  0.0028 -0.2391  0.2120
  283loPI   C1B 4525   1.674  10.920  10.093 -0.0008  0.4887  0.0456
  283loPI   C2B 4526   1.583  10.923   9.588 -0.1106 -0.0131  0.2000
  283loPI   C3B 4527   1.531  10.941   9.133 -0.1425 -0.0225 -0.0965
  283loPI   C4B 4528   1.701  10.914   8.707 -0.3488  0.1321 -0.3124
  284loPI    C1 4529  10.138   3.838  10.577  0.2920  0.0464  0.1545
  284loPI    C2 4530  10.224   3.487  10.749  0.2632  0.0087  0.0921
  284loPI    C3 4531   9.955   3.732  10.917 -0.1028 -0.2271 -0.1341
  284loPI   PO4 4532  10.105   3.721  10.301 -0.1913  0.0307 -0.1634
  284loPI   GL1 4533  10.099   3.592   9.967 -0.1783 -0.0389  0.1695
  284loPI   GL2 4534  10.154   3.316   9.725 -0.0410 -0.4278  0.3105
  284loPI   C1A 4535  10.009   3.837   9.678  0.0270 -0.0467  0.0944
  284loPI   C2A 4536  10.003   3.880   9.199 -0.3402  0.0554  0.3187
  284loPI   C3A 4537  10.101   3.828   8.723 -0.0378  0.0336  0.0917
  284loPI   C4A 4538  10.161   3.839   8.380  0.2118  0.0272  0.1031
  284loPI   C5A 4539  10.176   3.876   7.923 -0.2017  0.1476 -0.1681
  284loPI   C6A 4540  10.083   3.523   7.539  0.0022  0.0568  0.0580
  284loPI   C1B 4541  10.156   3.375   9.287  0.0605 -0.1159 -0.3190
  284loPI   C2B 4542  10.164   3.302   8.850  0.0225  0.0187  0.1504
  284loPI   C3B 4543  10.192   3.257   8.376 -0.0959 -0.2120 -0.3028
  284loPI   C4B 4544  10.251   3.165   7.959  0.1322 -0.0506 -0.2793
  285loPI    C1 4545   1.456   2.856  10.661 -0.2805  0.0062  0.1089
  285loPI    C2 4546   1.629   3.158  10.857 -0.1078 -0.1007  0.1227
  285loPI    C3 4547   1.609   2.796  11.026 -0.2497 -0.1146  0.0766
  285loPI   PO4 4548   1.556   2.828  10.474  0.0500 -0.0156  0.1648
  285loPI   GL1 4549   1.640   2.903   9.994 -0.0937  0.1261 -0.1370
  285loPI   GL2 4550   1.385   2.680   9.985 -0.1001  0.1652  0.3991
  285loPI   C1A 4551   1.749   3.232   9.655  0.1402  0.2251  0.3241
  285loPI   C2A 4552   1.674   3.273   9.300 -0.1928  0.4665  0.1749
  285loPI   C3A 4553   1.805   3.296   8.835 -0.2675  0.0257 -0.2303
  285loPI   C4A 4554   1.855   3.275   8.449 -0.0015 -0.1731  0.0858
  285loPI   C5A 4555   1.895   3.401   8.037  0.1488  0.0277 -0.0924
  285loPI   C6A 4556   1.900   3.420   7.621  0.4200  0.0990  0.0573
  285loPI   C1B 4557   1.447   2.500   9.556 -0.0820  0.1976  0.1495
  285loPI   C2B 4558   1.531   2.338   9.107  0.1852  0.0426  0.2136
  285loPI   C3B 4559   1.604   2.424   8.661 -0.3813 -0.0342  0.2844
  285loPI   C4B 4560   1.778   2.379   8.239  0.0209 -0.2881 -0.1695
  286loPI    C1 4561   5.385  13.057  11.419  0.1546 -0.0788 -0.0860
  286loPI    C2 4562   5.607  13.294  11.653 -0.0311  0.1507 -0.1378
  286loPI    C3 4563   5.483  12.938  11.788 -0.0359  0.2292  0.0689
  286loPI   PO4 4564   5.457  13.151  11.167 -0.0057 -0.1919 -0.2453
  286loPI   GL1 4565   5.430  12.994  10.660 -0.0875  0.2645  0.0987
  286loPI   GL2 4566   5.633  13.201  10.533 -0.2220  0.2070  0.1020
  286loPI   C1A 4567   5.279  12.932  10.221  0.2018  0.0970 -0.5010
  286loPI   C2A 4568   5.196  13.034   9.847 -0.4602 -0.1999  0.1785
  286loPI   C3A 4569   5.290  12.982   9.534  0.1196 -0.2902  0.1732
  286loPI   C4A 4570   5.235  13.077   9.131 -0.4201 -0.0407  0.2572
  286loPI   C5A 4571   5.287  13.064   8.671  0.0344  0.1133  0.0637
  286loPI   C6A 4572   5.201  12.968   8.252  0.1801 -0.0450 -0.1009
  286loPI   C1B 4573   5.582  13.341  10.042  0.0240 -0.0592 -0.0679
  286loPI   C2B 4574   5.637  13.378   9.563 -0.0072 -0.1043  0.0163
  286loPI   C3B 4575   5.681  13.428   9.128 -0.1210  0.2374  0.1338
  286loPI   C4B 4576   5.562  13.469   8.755 -0.1205  0.0297  0.2600
  287loPI    C1 4577   7.611   4.831  10.531 -0.0085 -0.0248  0.2232
  287loPI    C2 4578   7.976   4.693  10.444  0.0774  0.1601  0.2858
  287loPI    C3 4579   7.767   4.529  10.743 -0.0037 -0.1268  0.0760
  287loPI   PO4 4580   7.480   4.819  10.383  0.2608 -0.2051  0.2873
  287loPI   GL1 4581   7.507   4.779   9.941 -0.1948  0.1815  0.1382
  287loPI   GL2 4582   7.808   4.996   9.936  0.0425 -0.2135 -0.2129
  287loPI   C1A 4583   7.458   4.668   9.619  0.0452 -0.0589 -0.1793
  287loPI   C2A 4584   7.484   4.692   9.171 -0.0751 -0.0923 -0.1921
  287loPI   C3A 4585   7.566   4.588   8.864 -0.0413 -0.1328  0.0426
  287loPI   C4A 4586   7.703   4.702   8.478  0.0930 -0.0706 -0.0132
  287loPI   C5A 4587   7.725   4.791   8.100  0.1268 -0.1378  0.1028
  287loPI   C6A 4588   7.629   4.590   7.705 -0.1128 -0.2303  0.0903
  287loPI   C1B 4589   7.871   5.009   9.592  0.1242 -0.1189  0.3172
  287loPI   C2B 4590   7.931   5.099   9.267 -0.0245 -0.0509 -0.1126
  287loPI   C3B 4591   7.919   4.949   8.867 -0.0678 -0.0585 -0.0513
  287loPI   C4B 4592   8.065   5.089   8.419  0.3089  0.1536  0.1497
  288loPI    C1 4593  16.125  11.239  10.898  0.1988 -0.1217 -0.2136
  288loPI    C2 4594  16.320  10.922  11.044 -0.0290 -0.1088  0.1295
  288loPI    C3 4595  15.923  10.948  11.083 -0.0606  0.0359 -0.2435
  288loPI   PO4 4596  16.172  11.234  10.662 -0.1254 -0.1576  0.0791
  288loPI   GL1 4597  16.014  11.330  10.335 -0.0466 -0.0986  0.1093
  288loPI   GL2 4598  15.658  11.511  10.303  0.2293  0.1181 -0.1682
  288loPI   C1A 4599  16.143  11.293  10.017 -0.3132  0.1448  0.0939
  288loPI   C2A 4600  16.204  11.270   9.651 -0.3487 -0.0358 -0.0259
  288loPI   C3A 4601  16.009  11.210   9.255  0.1162 -0.0677 -0.0303
  288loPI   C4A 4602  16.060  11.226   8.794  0.0613 -0.0081  0.2411
  288loPI   C5A 4603  16.176  11.249   8.353 -0.0697  0.0642  0.2609
  288loPI   C6A 4604  16.217  11.184   7.966 -0.1164 -0.1462 -0.3020
  288loPI   C1B 4605  15.683  11.436   9.891  0.1369  0.0194  0.0508
  288loPI   C2B 4606  15.589  11.442   9.422  0.1049  0.0832 -0.0406
  288loPI   C3B 4607  15.600  11.383   9.029 -0.0776 -0.4989  0.1766
  288loPI   C4B 4608  15.670  11.416   8.631 -0.5424 -0.3218 -0.2718
  289loPI    C1 4609   2.028  11.432  11.473  0.0154 -0.3047  0.1734
  289loPI    C2 4610   1.815  11.102  11.545 -0.1899 -0.2138 -0.0046
  289loPI    C3 4611   1.678  11.458  11.665 -0.1044 -0.1626 -0.0581
  289loPI   PO4 4612   2.043  11.416  11.152  0.3036  0.1258 -0.2223
  289loPI   GL1 4613   1.831  11.629  10.758 -0.0238  0.0390 -0.4610
  289loPI   GL2 4614   1.485  11.827  10.610  0.0858  0.2060 -0.0213
  289loPI   C1A 4615   2.006  11.784  10.360 -0.1102  0.0307 -0.2379
  289loPI   C2A 4616   1.902  11.781   9.952  0.0801 -0.0033  0.0536
  289loPI   C3A 4617   1.994  11.830   9.532  0.0160 -0.4090  0.2499
  289loPI   C4A 4618   1.969  11.733   9.031 -0.2762  0.1810 -0.3654
  289loPI   C5A 4619   1.979  11.846   8.636  0.3062  0.1025  0.1456
  289loPI   C6A 4620   2.322  12.008   8.410  0.0361 -0.4388 -0.0435
  289loPI   C1B 4621   1.460  11.933  10.181  0.0051 -0.0718 -0.0856
  289loPI   C2B 4622   1.414  11.910   9.729  0.0189  0.0536 -0.2483
  289loPI   C3B 4623   1.420  11.974   9.341 -0.0546 -0.1987  0.0083
  289loPI   C4B 4624   1.438  11.957   8.925  0.0781  0.0625  0.1990
  290loPI    C1 4625   5.746   4.877  10.787  0.2457 -0.1102  0.0109
  290loPI    C2 4626   5.382   4.993  10.903  0.1918 -0.1748 -0.0923
  290loPI    C3 4627   5.692   5.030  11.153  0.0820 -0.2902  0.0638
  290loPI   PO4 4628   5.762   4.893  10.564 -0.2851  0.1645 -0.1916
  290loPI   GL1 4629   6.038   4.912  10.239  0.1168  0.0711 -0.0051
  290loPI   GL2 4630   6.054   5.271  10.281 -0.0315 -0.1265  0.2682
  290loPI   C1A 4631   5.626   4.807   9.912 -0.2125 -0.0332  0.0277
  290loPI   C2A 4632   5.599   4.872   9.570  0.0214  0.2234  0.1934
  290loPI   C3A 4633   5.658   4.935   9.226  0.2395 -0.1821  0.1587
  290loPI   C4A 4634   5.672   4.773   8.777  0.2159  0.0004 -0.0098
  290loPI   C5A 4635   5.679   4.794   8.258 -0.0633 -0.1983  0.1769
  290loPI   C6A 4636   5.700   4.561   7.853 -0.2108  0.2471  0.0045
  290loPI   C1B 4637   6.044   5.178   9.770 -0.0959 -0.0234  0.0250
  290loPI   C2B 4638   6.165   5.221   9.331 -0.1414  0.1024 -0.0006
  290loPI   C3B 4639   6.011   5.256   8.821 -0.0067  0.1395 -0.2515
  290loPI   C4B 4640   6.009   5.195   8.365 -0.2017 -0.0469  0.0327
  291loPI    C1 4641   6.919  14.491  11.150  0.0783 -0.0843 -0.1955
  291loPI    C2 4642   7.277  14.497  11.327 -0.0460  0.1190  0.0557
  291loPI    C3 4643   7.009  14.218  11.429 -0.0676  0.1517  0.0885
  291loPI   PO4 4644   6.970  14.661  10.924  0.1610  0.1171  0.1391
  291loPI   GL1 4645   7.045  14.588  10.539 -0.0115 -0.2688 -0.1261
  291loPI   GL2 4646   6.755  14.756  10.455 -0.1391 -0.2615 -0.3012
  291loPI   C1A 4647   7.101  14.679  10.160  0.0389 -0.1646 -0.1211
  291loPI   C2A 4648   7.163  14.837   9.776 -0.2963  0.3200 -0.1723
  291loPI   C3A 4649   7.250  14.899   9.283 -0.2276  0.0677 -0.5711
  291loPI   C4A 4650   7.255  14.841   8.845 -0.2290  0.0168  0.1218
  291loPI   C5A 4651   7.133  14.810   8.442 -0.2564 -0.2402  0.0152
  291loPI   C6A 4652   6.782  14.614   8.052  0.0899 -0.1369  0.0751
  291loPI   C1B 4653   6.659  14.912  10.067 -0.2465 -0.0649 -0.1427
  291loPI   C2B 4654   6.716  14.996   9.655 -0.0900  0.3741 -0.1331
  291loPI   C3B 4655   6.795  15.085   9.177 -0.0687 -0.1003  0.2527
  291loPI   C4B 4656   6.799  15.042   8.740 -0.0053  0.0063  0.0902
  292loPI    C1 4657   8.801   2.650  11.020  0.1839  0.1153 -0.1057
  292loPI    C2 4658   9.135   2.550  11.216  0.1243  0.1428  0.0108
  292loPI    C3 4659   8.901   2.842  11.356  0.0718  0.1505 -0.0921
  292loPI   PO4 4660   8.847   2.703  10.781  0.0579  0.2462 -0.0126
  292loPI   GL1 4661   8.652   2.770  10.443 -0.0401  0.0969  0.1784
  292loPI   GL2 4662   8.415   2.567  10.258  0.3973  0.0127 -0.1671
  292loPI   C1A 4663   8.741   2.942  10.017 -0.1176 -0.3014  0.0593
  292loPI   C2A 4664   8.710   2.854   9.651 -0.0218 -0.2584  0.0927
  292loPI   C3A 4665   8.799   2.892   9.256  0.1259 -0.0348 -0.2457
  292loPI   C4A 4666   8.921   2.876   8.833  0.3555 -0.2150 -0.1640
  292loPI   C5A 4667   8.846   2.688   8.364 -0.2056  0.0596  0.1153
  292loPI   C6A 4668   8.592   2.533   8.027 -0.3007  0.2032 -0.4155
  292loPI   C1B 4669   8.411   2.513   9.816  0.2708 -0.0250  0.3274
  292loPI   C2B 4670   8.373   2.540   9.357  0.2426  0.1399 -0.3492
  292loPI   C3B 4671   8.526   2.540   8.914 -0.2301 -0.2271 -0.0106
  292loPI   C4B 4672   8.433   2.398   8.539 -0.1266  0.1070  0.1507
  293loPI    C1 4673   3.135  12.061  11.593 -0.0881  0.0574  0.0216
  293loPI    C2 4674   2.876  11.795  11.741 -0.1846  0.0434 -0.1698
  293loPI    C3 4675   2.771  12.180  11.710 -0.1082  0.0736 -0.0568
  293loPI   PO4 4676   3.226  12.020  11.375  0.2572 -0.1299 -0.1807
  293loPI   GL1 4677   3.200  11.936  10.898 -0.0516  0.0914 -0.3649
  293loPI   GL2 4678   3.247  12.196  10.903 -0.0683 -0.0846  0.1564
  293loPI   C1A 4679   3.360  11.763  10.512 -0.4331 -0.0342  0.0467
  293loPI   C2A 4680   3.284  11.843   9.957 -0.2444 -0.0390  0.1788
  293loPI   C3A 4681   3.283  11.807   9.508 -0.0274 -0.0135 -0.0126
  293loPI   C4A 4682   3.298  11.822   8.965  0.3506  0.2432  0.1961
  293loPI   C5A 4683   3.091  11.596   8.606  0.2116  0.1308 -0.0425
  293loPI   C6A 4684   2.782  11.266   8.676 -0.3600 -0.0022  0.1247
  293loPI   C1B 4685   3.245  12.318  10.495 -0.0411  0.1845 -0.0565
  293loPI   C2B 4686   3.124  12.372  10.056 -0.0916  0.0601 -0.1529
  293loPI   C3B 4687   3.193  12.290   9.655 -0.4231  0.0250 -0.2712
  293loPI   C4B 4688   3.131  12.314   9.232  0.3051  0.0498  0.0232
  294loPI    C1 4689   6.859   9.304  11.022  0.0189 -0.0423  0.1898
  294loPI    C2 4690   7.102   9.483  11.285 -0.0128  0.1116  0.1153
  294loPI    C3 4691   6.854   9.194  11.406  0.1620 -0.0024  0.2036
  294loPI   PO4 4692   7.041   9.302  10.821  0.1659  0.4791  0.1153
  294loPI   GL1 4693   7.084   9.479  10.452  0.2900  0.0826 -0.0612
  294loPI   GL2 4694   6.970   9.158  10.286  0.0177  0.2376 -0.1679
  294loPI   C1A 4695   6.982   9.685  10.080 -0.3035 -0.1040  0.1674
  294loPI   C2A 4696   6.907   9.630   9.631  0.0053 -0.1550  0.0273
  294loPI   C3A 4697   6.912   9.677   9.191 -0.0573 -0.0024 -0.1392
  294loPI   C4A 4698   6.917   9.749   8.716  0.0753  0.3209 -0.1471
  294loPI   C5A 4699   6.848   9.731   8.309 -0.1154  0.1333  0.0672
  294loPI   C6A 4700   6.459   9.636   7.909 -0.2101 -0.1081 -0.1681
  294loPI   C1B 4701   6.966   9.125   9.862  0.2852  0.0980  0.0487
  294loPI   C2B 4702   7.009   9.230   9.387 -0.0497 -0.1711 -0.1353
  294loPI   C3B 4703   7.016   9.146   8.934 -0.2241 -0.0563  0.1471
  294loPI   C4B 4704   6.940   9.239   8.413 -0.1850  0.1229 -0.1758
  295loPI    C1 4705  14.109   3.196  10.754  0.1584 -0.0872 -0.0207
  295loPI    C2 4706  14.125   3.555  10.578 -0.2601 -0.1767 -0.2542
  295loPI    C3 4707  14.298   3.499  10.934 -0.0209  0.2007 -0.3060
  295loPI   PO4 4708  14.233   3.087  10.541 -0.0459  0.2282  0.3442
  295loPI   GL1 4709  14.539   3.112  10.280 -0.2846  0.0621 -0.0969
  295loPI   GL2 4710  14.663   2.929  10.147  0.1143 -0.2307  0.1669
  295loPI   C1A 4711  14.386   3.307   9.951  0.0006 -0.1385  0.2754
  295loPI   C2A 4712  14.398   3.266   9.560 -0.0632 -0.2740 -0.2252
  295loPI   C3A 4713  14.305   3.322   9.119  0.0106 -0.1850 -0.2302
  295loPI   C4A 4714  14.356   3.263   8.680  0.0737 -0.1475 -0.0286
  295loPI   C5A 4715  14.460   3.192   8.262 -0.1741  0.1192  0.0767
  295loPI   C6A 4716  14.756   3.159   7.956  0.0610 -0.0875  0.3306
  295loPI   C1B 4717  14.783   3.061   9.777 -0.2017  0.0633  0.0779
  295loPI   C2B 4718  14.788   3.094   9.255 -0.0049 -0.1328 -0.0505
  295loPI   C3B 4719  14.865   3.102   8.841  0.1699  0.2615  0.0772
  295loPI   C4B 4720  14.925   3.050   8.407 -0.1424  0.0385  0.1540
  296loPI    C1 4721  11.367  13.760  10.826 -0.2568 -0.0164 -0.0327
  296loPI    C2 4722  11.546  13.642  11.163 -0.0838  0.1218 -0.0750
  296loPI    C3 4723  11.237  13.895  11.179 -0.0103  0.2091 -0.0248
  296loPI   PO4 4724  11.365  13.553  10.637 -0.0998 -0.2402 -0.1248
  296loPI   GL1 4725  11.208  13.601  10.203  0.2550  0.3116 -0.0983
  296loPI   GL2 4726  10.943  13.500  10.197 -0.1431 -0.2406 -0.1751
  296loPI   C1A 4727  11.474  13.850   9.868  0.1369  0.0128 -0.3202
  296loPI   C2A 4728  11.465  13.965   9.420  0.2381  0.0743  0.0556
  296loPI   C3A 4729  11.400  13.947   9.057 -0.0567  0.1259 -0.0902
  296loPI   C4A 4730  11.398  13.825   8.599  0.0965 -0.2134  0.0915
  296loPI   C5A 4731  11.271  13.811   7.988 -0.1752  0.0578 -0.0256
  296loPI   C6A 4732  11.110  14.165   7.756  0.2984  0.3128 -0.1982
  296loPI   C1B 4733  11.091  13.466   9.733  0.1016 -0.0773  0.0731
  296loPI   C2B 4734  11.130  13.550   9.393 -0.1550 -0.0085 -0.0127
  296loPI   C3B 4735  11.101  13.550   8.975  0.0328 -0.1141 -0.0590
  296loPI   C4B 4736  11.015  13.529   8.483  0.0225  0.0579  0.0124
  297loPI    C1 4737   1.710  15.636  11.627  0.0629  0.0062 -0.0789
  297loPI    C2 4738   1.499  15.958  11.738 -0.0639 -0.0017 -0.2908
  297loPI    C3 4739   1.771  15.801  11.986  0.0461  0.3079 -0.2112
  297loPI   PO4 4740   1.780  15.668  11.326 -0.0881  0.0696 -0.1718
  297loPI   GL1 4741   1.637  15.725  10.873  0.2207  0.4056  0.1271
  297loPI   GL2 4742   1.567  15.892  10.618 -0.2091 -0.0168 -0.0783
  297loPI   C1A 4743   1.975  15.553  10.518  0.2092  0.0099 -0.1334
  297loPI   C2A 4744   2.013  15.635  10.013  0.0252 -0.2262 -0.1455
  297loPI   C3A 4745   2.141  15.578   9.593 -0.3220  0.0466  0.1638
  297loPI   C4A 4746   2.178  15.668   9.170  0.1196  0.2727 -0.1328
  297loPI   C5A 4747   2.164  15.547   8.748  0.1867 -0.2913  0.1305
  297loPI   C6A 4748   2.284  15.593   8.380 -0.0573 -0.0206  0.1061
  297loPI   C1B 4749   1.492  15.836  10.188  0.4748  0.1804  0.0471
  297loPI   C2B 4750   1.590  15.806   9.764 -0.2610 -0.0716  0.0530
  297loPI   C3B 4751   1.722  15.789   9.324 -0.0674 -0.0033  0.1929
  297loPI   C4B 4752   1.720  15.642   8.895  0.3211 -0.3147 -0.0779
  298loPI    C1 4753  15.651  15.069  11.106 -0.0632 -0.1224  0.0425
  298loPI    C2 4754  15.302  14.982  10.933  0.0157 -0.3943  0.0155
  298loPI    C3 4755  15.430  14.765  11.244  0.0766 -0.1810  0.1407
  298loPI   PO4 4756  15.867  15.062  10.995 -0.1191  0.0491 -0.2722
  298loPI   GL1 4757  15.767  15.080  10.530 -0.0200 -0.1939 -0.0106
  298loPI   GL2 4758  15.560  14.880  10.542 -0.2551 -0.0847  0.0238
  298loPI   C1A 4759  15.820  15.120  10.162  0.0016 -0.2183  0.3811
  298loPI   C2A 4760  15.844  15.188   9.761  0.0077  0.0789  0.1534
  298loPI   C3A 4761  15.795  15.122   9.372 -0.3063 -0.1689  0.0801
  298loPI   C4A 4762  15.922  15.143   8.994  0.0585 -0.0758  0.0534
  298loPI   C5A 4763  15.945  15.061   8.517  0.4446 -0.3112  0.2428
  298loPI   C6A 4764  15.935  15.031   8.047  0.2894 -0.0744  0.2556
  298loPI   C1B 4765  15.461  14.849   9.999 -0.2620 -0.1508  0.2748
  298loPI   C2B 4766  15.469  14.780   9.628 -0.0498 -0.0258 -0.4181
  298loPI   C3B 4767  15.407  14.757   9.246 -0.1033  0.2124 -0.1787
  298loPI   C4B 4768  15.420  14.720   8.884 -0.2027  0.1008  0.1018
  299loPI    C1 4769  14.254  18.167  10.509  0.0597 -0.1056 -0.3477
  299loPI    C2 4770  14.536  18.432  10.408 -0.0447 -0.0217 -0.4218
  299loPI    C3 4771  14.425  18.394  10.790  0.0623 -0.0508 -0.3932
  299loPI   PO4 4772  14.174  18.125  10.298  0.1387 -0.0238 -0.0571
  299loPI   GL1 4773  14.424  18.063   9.943 -0.1928 -0.1516  0.2622
  299loPI   GL2 4774  14.665  18.112   9.934  0.0194 -0.2505  0.0160
  299loPI   C1A 4775  14.361  18.016   9.560 -0.1373  0.1600 -0.0850
  299loPI   C2A 4776  14.312  18.044   9.147  0.1383 -0.1195 -0.1491
  299loPI   C3A 4777  14.406  17.901   8.801  0.0935 -0.0228 -0.1450
  299loPI   C4A 4778  14.572  17.980   8.395 -0.0549  0.1654  0.0550
  299loPI   C5A 4779  14.876  18.171   8.126  0.0565 -0.0509  0.0877
  299loPI   C6A 4780  14.775  18.577   8.108 -0.1355 -0.2081 -0.0074
  299loPI   C1B 4781  14.809  18.112   9.542 -0.2404 -0.2296 -0.1595
  299loPI   C2B 4782  14.826  18.092   9.175  0.1586  0.0012  0.2236
  299loPI   C3B 4783  14.851  18.171   8.837 -0.0669  0.3485 -0.1408
  299loPI   C4B 4784  14.972  18.380   8.561 -0.1709  0.3316  0.0281
  300loPI    C1 4785  16.648   7.432  10.868 -0.1185 -0.1864  0.0208
  300loPI    C2 4786  16.357   7.354  11.131 -0.0229  0.1404  0.2304
  300loPI    C3 4787  16.673   7.571  11.242  0.0606  0.2118 -0.1336
  300loPI   PO4 4788  16.481   7.597  10.573 -0.3951  0.2350  0.1645
  300loPI   GL1 4789  16.654   7.864  10.407 -0.5363 -0.1038  0.2429
  300loPI   GL2 4790  16.563   8.157  10.154 -0.3267  0.4841 -0.1851
  300loPI   C1A 4791  16.843   7.751  10.036  0.2241 -0.0869  0.0350
  300loPI   C2A 4792  16.873   7.766   9.572  0.0521 -0.0373  0.0379
  300loPI   C3A 4793  16.848   7.760   9.136 -0.1166 -0.3292  0.0115
  300loPI   C4A 4794  16.819   7.645   8.764  0.1994  0.4269  0.1036
  300loPI   C5A 4795  16.776   7.866   8.436 -0.1558  0.1085  0.4235
  300loPI   C6A 4796  17.087   7.890   8.156 -0.0814  0.1941 -0.3326
  300loPI   C1B 4797  16.825   8.273   9.687  0.0706  0.1837  0.0236
  300loPI   C2B 4798  16.795   8.277   9.264  0.0623 -0.0788 -0.1771
  300loPI   C3B 4799  16.746   8.282   8.789 -0.0519 -0.0077  0.3894
  300loPI   C4B 4800  16.703   8.378   8.439 -0.0075 -0.0547 -0.1032
  301loPI    C1 4801  12.532  11.393  11.003 -0.0517  0.1675 -0.1371
  301loPI    C2 4802  12.188  11.548  11.137 -0.1040  0.0349 -0.1168
  301loPI    C3 4803  12.529  11.622  11.331 -0.1249  0.1460 -0.1224
  301loPI   PO4 4804  12.452  11.376  10.763  0.1459  0.0293 -0.0721
  301loPI   GL1 4805  12.477  11.250  10.353  0.0063 -0.0332  0.0876
  301loPI   GL2 4806  12.366  11.015  10.162 -0.1667  0.0795  0.3499
  301loPI   C1A 4807  12.768  11.421   9.965 -0.1842 -0.2382  0.2174
  301loPI   C2A 4808  12.858  11.353   9.475 -0.1797  0.1673 -0.3219
  301loPI   C3A 4809  12.778  11.418   9.053 -0.0050 -0.2517 -0.0846
  301loPI   C4A 4810  12.940  11.468   8.693  0.2381 -0.2202 -0.0141
  301loPI   C5A 4811  13.031  11.284   8.237 -0.2939  0.1314 -0.3512
  301loPI   C6A 4812  12.916  11.684   8.134  0.1206  0.1713 -0.1063
  301loPI   C1B 4813  12.445  11.077   9.676 -0.1303  0.2174 -0.1220
  301loPI   C2B 4814  12.483  11.094   9.309 -0.2958 -0.1428 -0.0971
  301loPI   C3B 4815  12.476  11.064   8.864 -0.2006  0.0063  0.1156
  301loPI   C4B 4816  12.541  11.080   8.419 -0.1988  0.3380  0.0090
  302loPI    C1 4817   4.701  11.252  11.538  0.1610  0.0928  0.1401
  302loPI    C2 4818   4.420  11.344  11.808  0.1420  0.1818  0.0905
  302loPI    C3 4819   4.604  10.989  11.823 -0.3259 -0.0825 -0.1730
  302loPI   PO4 4820   4.526  11.390  11.267  0.1495 -0.2635 -0.2115
  302loPI   GL1 4821   4.474  11.524  10.797  0.1188 -0.1056 -0.0191
  302loPI   GL2 4822   4.695  11.680  10.689 -0.1058 -0.1902  0.0674
  302loPI   C1A 4823   4.231  11.405  10.368 -0.2211 -0.2807  0.0179
  302loPI   C2A 4824   4.291  11.552   9.887  0.1445  0.0418 -0.1245
  302loPI   C3A 4825   4.188  11.522   9.470 -0.1866  0.3661  0.1315
  302loPI   C4A 4826   4.275  11.530   8.997 -0.1893  0.0259  0.0271
  302loPI   C5A 4827   4.313  11.538   8.512  0.0506  0.2257  0.0783
  302loPI   C6A 4828   4.155  11.580   8.015 -0.3286  0.0575 -0.0848
  302loPI   C1B 4829   4.669  11.791  10.325 -0.1189 -0.1095 -0.0912
  302loPI   C2B 4830   4.716  11.725  10.012 -0.2940 -0.2281 -0.0747
  302loPI   C3B 4831   4.628  11.845   9.583 -0.4741  0.1079  0.1516
  302loPI   C4B 4832   4.603  11.851   9.123 -0.1695 -0.0350 -0.1931
  303loPI    C1 4833   8.717  16.516  10.963  0.0796  0.1957 -0.1609
  303loPI    C2 4834   8.724  16.186  11.189 -0.1396  0.1000 -0.2913
  303loPI    C3 4835   8.588  16.530  11.342  0.1004  0.1349 -0.1516
  303loPI   PO4 4836   8.642  16.438  10.661  0.1212  0.0477  0.0670
  303loPI   GL1 4837   8.547  16.620  10.381  0.1484 -0.1884 -0.1735
  303loPI   GL2 4838   8.255  16.882  10.247 -0.0874  0.1824 -0.0945
  303loPI   C1A 4839   8.635  16.704   9.973 -0.0303  0.1068 -0.1559
  303loPI   C2A 4840   8.665  16.809   9.576  0.0074 -0.0615 -0.0927
  303loPI   C3A 4841   8.710  16.793   9.151 -0.2740 -0.1926 -0.2216
  303loPI   C4A 4842   8.765  16.739   8.820 -0.2598 -0.0935  0.0783
  303loPI   C5A 4843   8.779  16.564   8.506 -0.1406 -0.0076  0.4297
  303loPI   C6A 4844   8.815  16.352   8.228  0.1952  0.1192  0.0950
  303loPI   C1B 4845   8.163  16.866   9.738  0.0969 -0.1114 -0.1360
  303loPI   C2B 4846   8.170  16.866   9.293  0.4104  0.2162 -0.0984
  303loPI   C3B 4847   8.201  16.901   8.837  0.2099  0.1401 -0.2624
  303loPI   C4B 4848   8.110  16.992   8.402  0.2191 -0.0345 -0.4019
  304loPI    C1 4849   8.028   6.644  10.640 -0.2624  0.0778 -0.0928
  304loPI    C2 4850   8.028   7.005  10.813  0.0656  0.0656 -0.0601
  304loPI    C3 4851   7.814   6.707  10.972  0.1558  0.1248  0.1760
  304loPI   PO4 4852   8.023   6.720  10.360 -0.2623  0.0345 -0.0276
  304loPI   GL1 4853   7.739   6.500  10.075 -0.2174  0.0922 -0.0988
  304loPI   GL2 4854   8.028   6.358   9.968 -0.0090 -0.1252 -0.0682
  304loPI   C1A 4855   7.574   6.545   9.684 -0.1786 -0.0377 -0.0631
  304loPI   C2A 4856   7.496   6.601   9.249 -0.1696 -0.2759  0.0337
  304loPI   C3A 4857   7.660   6.512   8.804  0.3696  0.1142 -0.0649
  304loPI   C4A 4858   7.788   6.563   8.263 -0.1078  0.0679  0.1237
  304loPI   C5A 4859   7.667   6.666   7.836  0.0776 -0.2069  0.0739
  304loPI   C6A 4860   7.801   6.960   7.484 -0.0198  0.2399 -0.0757
  304loPI   C1B 4861   8.120   6.461   9.475 -0.1691  0.2073  0.0846
  304loPI   C2B 4862   8.084   6.436   9.070  0.1569 -0.1647  0.1123
  304loPI   C3B 4863   8.134   6.460   8.627 -0.1369  0.1645 -0.1551
  304loPI   C4B 4864   8.272   6.423   8.209  0.0319 -0.0272 -0.4147
  305loPI    C1 4865   5.770  10.849  10.992  0.1348  0.2203 -0.0870
  305loPI    C2 4866   6.043  10.564  11.056 -0.0806 -0.0079 -0.1700
  305loPI    C3 4867   6.121  10.942  11.159  0.2130 -0.0929 -0.0709
  305loPI   PO4 4868   5.746  10.791  10.683 -0.1746 -0.1557  0.0113
  305loPI   GL1 4869   5.892  10.935  10.379 -0.0870 -0.0873 -0.2190
  305loPI   GL2 4870   6.164  11.193  10.285  0.2702  0.1697  0.4083
  305loPI   C1A 4871   5.712  10.919   9.913  0.2855 -0.0205 -0.1599
  305loPI   C2A 4872   5.738  11.008   9.488  0.2244 -0.3409  0.0459
  305loPI   C3A 4873   5.628  10.922   9.084  0.1012 -0.2268  0.2744
  305loPI   C4A 4874   5.683  10.990   8.642 -0.0609 -0.0901  0.2285
  305loPI   C5A 4875   5.396  10.943   8.304 -0.2366 -0.1957  0.1596
  305loPI   C6A 4876   5.130  10.640   8.139 -0.0101 -0.0777  0.1203
  305loPI   C1B 4877   6.101  11.268   9.850  0.0557 -0.3440  0.0361
  305loPI   C2B 4878   6.082  11.402   9.469 -0.1184  0.0288 -0.2410
  305loPI   C3B 4879   6.112  11.270   9.011 -0.3501  0.0637  0.0698
  305loPI   C4B 4880   6.081  11.371   8.647 -0.2808 -0.2303 -0.3083
  306loPI    C1 4881  15.251   6.084  10.740 -0.0128 -0.1304 -0.1560
  306loPI    C2 4882  14.904   6.069  10.937  0.1244 -0.1957  0.0852
  306loPI    C3 4883  15.185   5.793  11.007  0.2703 -0.0755 -0.0216
  306loPI   PO4 4884  15.185   6.069  10.512  0.2039 -0.1653  0.3993
  306loPI   GL1 4885  15.216   6.323  10.234  0.1204  0.0193  0.0734
  306loPI   GL2 4886  14.948   6.472  10.244 -0.0158 -0.2717  0.3393
  306loPI   C1A 4887  15.171   6.361   9.755  0.0006  0.1548  0.1566
  306loPI   C2A 4888  15.129   6.338   9.324  0.0147  0.0668 -0.0360
  306loPI   C3A 4889  15.221   6.372   8.943  0.1722 -0.2616  0.2929
  306loPI   C4A 4890  15.233   6.336   8.503 -0.3307  0.2068 -0.3853
  306loPI   C5A 4891  15.042   6.419   8.189 -0.1254 -0.1341 -0.1940
  306loPI   C6A 4892  14.704   6.672   8.026  0.1077 -0.0178  0.1415
  306loPI   C1B 4893  14.706   6.449   9.946 -0.0278  0.0663 -0.0561
  306loPI   C2B 4894  14.682   6.490   9.493 -0.0872 -0.2291  0.1312
  306loPI   C3B 4895  14.591   6.529   9.003 -0.1816 -0.0004  0.0038
  306loPI   C4B 4896  14.715   6.457   8.559  0.3817  0.2408  0.2145
  307loPI    C1 4897   9.011  11.645  10.806  0.1289  0.0827 -0.0614
  307loPI    C2 4898   8.766  11.578  11.115  0.2411  0.1546  0.0436
  307loPI    C3 4899   9.111  11.377  11.086  0.2144  0.1227 -0.0534
  307loPI   PO4 4900   8.717  11.598  10.472 -0.0058 -0.0567  0.1050
  307loPI   GL1 4901   8.688  11.524  10.005 -0.1689 -0.0783 -0.1047
  307loPI   GL2 4902   8.964  11.653  10.051 -0.2636  0.0031 -0.3051
  307loPI   C1A 4903   8.823  11.521   9.576 -0.2943  0.1094 -0.1323
  307loPI   C2A 4904   8.806  11.500   9.125 -0.2180 -0.0042  0.1417
  307loPI   C3A 4905   8.843  11.410   8.702  0.2737 -0.2293  0.3048
  307loPI   C4A 4906   8.731  11.377   8.253  0.0338  0.2685 -0.1438
  307loPI   C5A 4907   8.602  11.096   7.956  0.2192 -0.0165  0.0479
  307loPI   C6A 4908   8.268  11.163   7.610  0.1344 -0.1200  0.0661
  307loPI   C1B 4909   9.165  11.856   9.759 -0.1135 -0.0274  0.0834
  307loPI   C2B 4910   9.211  11.801   9.366  0.1835  0.2080  0.3058
  307loPI   C3B 4911   9.193  11.771   8.891 -0.1108  0.0443  0.0546
  307loPI   C4B 4912   9.199  11.744   8.459  0.1513 -0.0988  0.1154
  308loPI    C1 4913  17.668  12.640  11.441  0.1446  0.0493 -0.0552
  308loPI    C2 4914  17.652  12.242  11.413  0.2282  0.0605 -0.2805
  308loPI    C3 4915  17.373  12.439  11.621  0.0938 -0.1025 -0.3041
  308loPI   PO4 4916  17.642  12.709  11.160  0.0233  0.1085 -0.0005
  308loPI   GL1 4917  17.955  12.661  10.822  0.0921  0.0732  0.1573
  308loPI   GL2 4918  18.137  12.958  10.688 -0.0360  0.2652 -0.1761
  308loPI   C1A 4919  17.780  12.576  10.418 -0.1112  0.1862  0.0295
  308loPI   C2A 4920  17.755  12.650   9.974 -0.1326  0.0448  0.1623
  308loPI   C3A 4921  17.742  12.724   9.494  0.1521  0.2306  0.3402
  308loPI   C4A 4922  17.709  12.619   9.111 -0.1106 -0.0496  0.0300
  308loPI   C5A 4923  17.619  12.657   8.682 -0.1367 -0.1260 -0.0862
  308loPI   C6A 4924  17.358  12.406   8.342 -0.1433  0.0380  0.1729
  308loPI   C1B 4925  18.180  12.991  10.229  0.1132  0.0833  0.2274
  308loPI   C2B 4926  18.106  13.021   9.812 -0.2502 -0.0917  0.1185
  308loPI   C3B 4927  18.165  12.910   9.412  0.0386 -0.3909 -0.1715
  308loPI   C4B 4928  18.150  12.981   9.011 -0.5517  0.0100  0.1929
  309loPI    C1 4929  12.930   2.446  10.804  0.0933  0.0662 -0.0599
  309loPI    C2 4930  12.646   2.694  10.937  0.1917  0.1730 -0.0472
  309loPI    C3 4931  12.752   2.376  11.155  0.0421  0.1002 -0.0790
  309loPI   PO4 4932  12.995   2.578  10.559  0.1299  0.0370  0.1636
  309loPI   GL1 4933  12.880   2.629  10.152 -0.2427 -0.1457 -0.1247
  309loPI   GL2 4934  13.009   2.972  10.004  0.0159 -0.2234  0.0645
  309loPI   C1A 4935  12.624   2.564   9.885  0.0655  0.0029 -0.1261
  309loPI   C2A 4936  12.703   2.487   9.477  0.0775  0.1055  0.0408
  309loPI   C3A 4937  12.637   2.468   9.022  0.2730 -0.0038 -0.0879
  309loPI   C4A 4938  12.682   2.466   8.497 -0.1932 -0.0614 -0.1539
  309loPI   C5A 4939  12.369   2.457   8.133 -0.0330 -0.0979 -0.2272
  309loPI   C6A 4940  12.180   2.615   7.757  0.1409 -0.1541 -0.0301
  309loPI   C1B 4941  13.053   2.889   9.579 -0.0141  0.0928  0.0647
  309loPI   C2B 4942  13.037   2.740   9.180  0.1853  0.0466 -0.1250
  309loPI   C3B 4943  13.063   2.796   8.755 -0.1064 -0.0800 -0.0253
  309loPI   C4B 4944  13.120   2.669   8.319  0.2074 -0.0335 -0.4599
  310loPI    C1 4945  15.130   7.859  11.043  0.3549 -0.0696 -0.4513
  310loPI    C2 4946  15.461   7.634  11.032  0.1845 -0.3745  0.1820
  310loPI    C3 4947  15.383   7.860  11.353  0.0388  0.1180 -0.1870
  310loPI   PO4 4948  15.101   7.956  10.766  0.0030  0.0680 -0.0827
  310loPI   GL1 4949  14.972   7.867  10.370  0.3266 -0.0340  0.2929
  310loPI   GL2 4950  15.211   8.143  10.291 -0.1225 -0.2762  0.1807
  310loPI   C1A 4951  14.760   7.868  10.060 -0.1874 -0.1968  0.1026
  310loPI   C2A 4952  14.870   7.768   9.607  0.0883  0.1515  0.1709
  310loPI   C3A 4953  14.896   7.890   9.218 -0.0611 -0.4056  0.1947
  310loPI   C4A 4954  14.944   7.890   8.764 -0.1253 -0.0992  0.1397
  310loPI   C5A 4955  14.690   7.810   8.328 -0.2533  0.1015 -0.0605
  310loPI   C6A 4956  14.456   7.640   7.956 -0.0460  0.0369  0.1595
  310loPI   C1B 4957  15.203   8.175   9.869 -0.3160 -0.0145 -0.0869
  310loPI   C2B 4958  15.226   8.228   9.413  0.1200 -0.3502 -0.0399
  310loPI   C3B 4959  15.293   8.204   8.977 -0.3236  0.0488 -0.1099
  310loPI   C4B 4960  15.379   8.225   8.556  0.2246 -0.1238  0.0593
  311loPI    C1 4961   8.652  11.980  10.808 -0.2568 -0.1565 -0.0583
  311loPI    C2 4962   8.341  11.836  11.016  0.0623 -0.3174  0.3195
  311loPI    C3 4963   8.579  12.114  11.177 -0.0461  0.0155 -0.0771
  311loPI   PO4 4964   8.624  12.144  10.637 -0.0169  0.0755 -0.0645
  311loPI   GL1 4965   8.687  12.096  10.153 -0.0911 -0.2832  0.0841
  311loPI   GL2 4966   8.648  12.416  10.160 -0.2501  0.1308  0.1069
  311loPI   C1A 4967   8.648  11.948   9.683 -0.1392 -0.0148  0.2063
  311loPI   C2A 4968   8.702  12.003   9.083 -0.2272  0.1283 -0.1235
  311loPI   C3A 4969   8.771  11.892   8.654  0.1387  0.1508 -0.2114
  311loPI   C4A 4970   8.728  11.960   8.229 -0.4952 -0.0763 -0.1373
  311loPI   C5A 4971   8.781  12.365   8.048 -0.1168  0.2893  0.3616
  311loPI   C6A 4972   8.706  12.816   7.864  0.1266  0.0274  0.0460
  311loPI   C1B 4973   8.513  12.403   9.748 -0.0536 -0.1817  0.0940
  311loPI   C2B 4974   8.564  12.425   9.322 -0.1537  0.2145  0.0811
  311loPI   C3B 4975   8.583  12.482   8.842  0.0613 -0.0526 -0.2682
  311loPI   C4B 4976   8.591  12.338   8.499  0.0762  0.0111 -0.0108
  312loPI    C1 4977  16.301  14.651  11.243 -0.1254 -0.0904  0.0849
  312loPI    C2 4978  15.926  14.714  11.367 -0.0859  0.0261  0.1463
  312loPI    C3 4979  16.227  14.922  11.527  0.0097 -0.0925  0.1224
  312loPI   PO4 4980  16.281  14.695  10.952 -0.0566 -0.1481  0.1644
  312loPI   GL1 4981  16.289  14.924  10.620 -0.0213 -0.0670  0.0063
  312loPI   GL2 4982  16.054  14.669  10.481  0.1009 -0.2795 -0.0127
  312loPI   C1A 4983  16.352  14.928  10.097 -0.1164 -0.2752  0.1285
  312loPI   C2A 4984  16.330  15.002   9.708  0.2313  0.0752 -0.1431
  312loPI   C3A 4985  16.313  15.029   9.289 -0.1267 -0.1008 -0.0213
  312loPI   C4A 4986  16.353  14.952   8.844  0.2616  0.0958  0.1768
  312loPI   C5A 4987  16.447  14.972   8.396 -0.1389 -0.0661  0.0613
  312loPI   C6A 4988  16.676  14.925   7.991  0.4205  0.2168 -0.1408
  312loPI   C1B 4989  15.967  14.683  10.001 -0.1805  0.0435  0.3667
  312loPI   C2B 4990  15.932  14.602   9.591  0.0473 -0.2008  0.0872
  312loPI   C3B 4991  15.909  14.666   9.204  0.0796 -0.0939 -0.2374
  312loPI   C4B 4992  15.885  14.613   8.763 -0.1910 -0.1884 -0.0650
  313loPI    C1 4993  15.704   8.057  10.953 -0.1920  0.0282  0.1182
  313loPI    C2 4994  15.719   8.428  11.101 -0.0239  0.0317  0.0944
  313loPI    C3 4995  15.848   8.120  11.321  0.0157  0.0102  0.0414
  313loPI   PO4 4996  15.755   8.153  10.678  0.0444 -0.0325  0.2989
  313loPI   GL1 4997  15.874   8.273  10.324  0.1026 -0.2208 -0.1471
  313loPI   GL2 4998  15.745   7.991  10.219  0.1272 -0.4039 -0.0202
  313loPI   C1A 4999  16.122   8.304   9.883 -0.0507  0.2995  0.1499
  313loPI   C2A 5000  16.276   8.402   9.517 -0.0223  0.0593  0.2006
  313loPI   C3A 5001  16.109   8.409   9.172  0.0135  0.1018 -0.0212
  313loPI   C4A 5002  16.197   8.377   8.839 -0.2353 -0.4962  0.0662
  313loPI   C5A 5003  16.190   8.442   8.329 -0.1404  0.0362 -0.0200
  313loPI   C6A 5004  16.166   8.768   8.093 -0.1286  0.1198 -0.1726
  313loPI   C1B 5005  15.734   7.921   9.752  0.1567 -0.1005 -0.1281
  313loPI   C2B 5006  15.749   7.979   9.316 -0.2830 -0.1496 -0.0586
  313loPI   C3B 5007  15.766   8.014   8.867  0.1678  0.1698 -0.1212
  313loPI   C4B 5008  15.880   8.104   8.551 -0.0835 -0.0409 -0.1833
  314loPI    C1 5009   4.797   8.569  10.935  0.1391  0.0367 -0.1773
  314loPI    C2 5010   4.522   8.282  10.895  0.0686  0.1176 -0.2784
  314loPI    C3 5011   4.699   8.342  11.249 -0.0500  0.0708 -0.2110
  314loPI   PO4 5012   4.940   8.609  10.666 -0.0568  0.0142  0.0398
  314loPI   GL1 5013   4.789   8.545  10.230  0.2936  0.0228 -0.5155
  314loPI   GL2 5014   4.598   8.228  10.348  0.1390 -0.3294  0.0047
  314loPI   C1A 5015   4.899   8.539   9.824 -0.0539  0.1774  0.1884
  314loPI   C2A 5016   4.862   8.521   9.247 -0.0142  0.3884 -0.2496
  314loPI   C3A 5017   4.925   8.429   8.885  0.0952 -0.1395  0.1757
  314loPI   C4A 5018   4.806   8.495   8.498 -0.1104 -0.2655  0.0527
  314loPI   C5A 5019   4.716   8.172   8.200 -0.2837 -0.1415  0.3079
  314loPI   C6A 5020   4.575   7.851   7.924  0.1701 -0.2693 -0.0322
  314loPI   C1B 5021   4.502   8.255   9.934  0.0963 -0.1288 -0.2651
  314loPI   C2B 5022   4.516   8.096   9.595 -0.2654 -0.0358 -0.1486
  314loPI   C3B 5023   4.559   8.129   9.131 -0.1511 -0.2783  0.2112
  314loPI   C4B 5024   4.615   8.064   8.662 -0.0810  0.4449 -0.2859
  315loPI    C1 5025   5.072   7.907  11.061 -0.2617  0.2115  0.1330
  315loPI    C2 5026   5.162   8.170  11.349  0.1694  0.1296  0.0800
  315loPI    C3 5027   5.310   7.799  11.364  0.0550  0.0723 -0.1599
  315loPI   PO4 5028   4.997   8.104  10.869 -0.1207 -0.2947  0.1534
  315loPI   GL1 5029   5.152   8.174  10.371  0.0911 -0.1112 -0.1181
  315loPI   GL2 5030   4.993   7.926  10.240  0.0997 -0.0374  0.0289
  315loPI   C1A 5031   5.315   8.307   9.996 -0.0558  0.0448  0.0371
  315loPI   C2A 5032   5.461   8.265   9.514  0.2537  0.1822  0.1681
  315loPI   C3A 5033   5.460   8.327   9.059 -0.2054  0.0320 -0.0711
  315loPI   C4A 5034   5.353   8.260   8.571  0.0586 -0.2485 -0.1095
  315loPI   C5A 5035   5.194   8.489   8.229  0.1218  0.1395  0.0881
  315loPI   C6A 5036   5.071   8.664   7.860  0.0723 -0.0766 -0.2275
  315loPI   C1B 5037   4.972   7.973   9.817  0.0010 -0.1507  0.1106
  315loPI   C2B 5038   5.014   7.969   9.412  0.0441 -0.0649 -0.2246
  315loPI   C3B 5039   5.030   7.838   9.024 -0.1659  0.0416  0.0804
  315loPI   C4B 5040   5.107   7.844   8.593  0.0021 -0.0416  0.2625
  316loPI    C1 5041   2.499  12.680  11.344  0.2385 -0.1688 -0.0012
  316loPI    C2 5042   2.405  12.309  11.463  0.0780 -0.1689 -0.1259
  316loPI    C3 5043   2.467  12.597  11.734 -0.3043 -0.1643 -0.0379
  316loPI   PO4 5044   2.654  12.634  11.071 -0.0471  0.2548 -0.0460
  316loPI   GL1 5045   2.433  12.521  10.675  0.0292  0.0531  0.3683
  316loPI   GL2 5046   2.696  12.310  10.719  0.2120  0.0294  0.1109
  316loPI   C1A 5047   2.691  12.458  10.235  0.0940 -0.0063  0.1797
  316loPI   C2A 5048   2.692  12.458   9.842 -0.2328  0.1989  0.2336
  316loPI   C3A 5049   2.710  12.514   9.442 -0.1004  0.2842 -0.3076
  316loPI   C4A 5050   2.670  12.409   8.981 -0.2941  0.2088 -0.2394
  316loPI   C5A 5051   2.725  12.194   8.778 -0.1610 -0.1242 -0.3754
  316loPI   C6A 5052   3.228  12.168   8.594  0.0242 -0.0424  0.0405
  316loPI   C1B 5053   2.822  12.027  10.472 -0.1219  0.0336 -0.0155
  316loPI   C2B 5054   2.866  11.986  10.119  0.0137 -0.0596  0.0691
  316loPI   C3B 5055   2.804  11.934   9.677 -0.0332 -0.0672 -0.1283
  316loPI   C4B 5056   2.743  11.990   9.283 -0.1688 -0.0942  0.1832
  317loPI    C1 5057  13.259   4.801  10.564  0.3166  0.2018  0.1009
  317loPI    C2 5058  12.908   4.737  10.746  0.2445  0.1642 -0.0497
  317loPI    C3 5059  13.249   4.630  10.925  0.1677  0.0229  0.0136
  317loPI   PO4 5060  13.197   4.641  10.331  0.0029  0.4435  0.1246
  317loPI   GL1 5061  13.087   4.412  10.044  0.1531  0.1346 -0.1227
  317loPI   GL2 5062  13.044   4.681   9.834  0.1512 -0.1475  0.0572
  317loPI   C1A 5063  13.128   4.136   9.689 -0.1598  0.2738 -0.2675
  317loPI   C2A 5064  13.255   4.112   9.291 -0.4878  0.2080 -0.2383
  317loPI   C3A 5065  13.316   4.111   8.925  0.1015 -0.1067 -0.2721
  317loPI   C4A 5066  13.294   4.090   8.434  0.1817 -0.1441  0.1254
  317loPI   C5A 5067  13.260   3.980   8.030 -0.0565  0.2438 -0.2140
  317loPI   C6A 5068  13.116   3.731   7.741  0.2616 -0.3519  0.0345
  317loPI   C1B 5069  13.094   4.591   9.423  0.2324 -0.0502 -0.1926
  317loPI   C2B 5070  13.110   4.626   8.954 -0.1894 -0.0020 -0.2034
  317loPI   C3B 5071  13.175   4.571   8.575 -0.0233  0.0159 -0.1852
  317loPI   C4B 5072  13.393   4.550   8.214 -0.5224 -0.0628  0.2707
  318loPI    C1 5073   1.794  10.234  11.342  0.1493 -0.2262 -0.1701
  318loPI    C2 5074   1.652   9.860  11.323 -0.0220 -0.1682 -0.0536
  318loPI    C3 5075   1.401  10.168  11.370  0.1624 -0.0893  0.4819
  318loPI   PO4 5076   1.993  10.271  11.129 -0.2790  0.1964 -0.3125
  318loPI   GL1 5077   2.183  10.355  10.687 -0.1715 -0.1675  0.0532
  318loPI   GL2 5078   2.555  10.333  10.624  0.1802 -0.0440 -0.1334
  318loPI   C1A 5079   2.232  10.222  10.215  0.1512 -0.0523  0.3273
  318loPI   C2A 5080   2.118  10.236   9.725  0.0064 -0.0930 -0.1709
  318loPI   C3A 5081   2.139  10.269   9.238 -0.1102 -0.2948 -0.1564
  318loPI   C4A 5082   2.146  10.174   8.757 -0.0281 -0.2569 -0.3448
  318loPI   C5A 5083   2.067  10.123   8.385 -0.1214 -0.1929  0.2287
  318loPI   C6A 5084   1.969  10.143   7.988 -0.0042  0.3257  0.2165
  318loPI   C1B 5085   2.640  10.630  10.273 -0.0836 -0.0350  0.0275
  318loPI   C2B 5086   2.606  10.567   9.877 -0.0372  0.0825  0.1215
  318loPI   C3B 5087   2.598  10.668   9.448  0.1872  0.0986 -0.0998
  318loPI   C4B 5088   2.548  10.559   9.019  0.1539 -0.3191  0.2619
  319loPI    C1 5089  16.562   6.876  10.850  0.0351 -0.0405 -0.1542
  319loPI    C2 5090  16.382   6.539  10.968  0.1613 -0.0106  0.1302
  319loPI    C3 5091  16.221   6.894  11.057  0.1216  0.0084 -0.0151
  319loPI   PO4 5092  16.664   6.948  10.569 -0.0585 -0.1595 -0.3561
  319loPI   GL1 5093  17.052   6.896  10.443 -0.3357  0.0400 -0.2780
  319loPI   GL2 5094  17.122   6.628  10.300  0.1203 -0.0479 -0.0529
  319loPI   C1A 5095  17.390   7.024  10.135  0.0994  0.1307 -0.2334
  319loPI   C2A 5096  17.404   6.974   9.680 -0.0905 -0.0821 -0.1112
  319loPI   C3A 5097  17.385   7.012   9.234 -0.2226 -0.0408  0.0228
  319loPI   C4A 5098  17.308   7.108   8.820  0.2528 -0.1204  0.1358
  319loPI   C5A 5099  17.204   6.971   8.387  0.1713  0.1977  0.1452
  319loPI   C6A 5100  17.188   6.971   8.020 -0.2594 -0.0287  0.0292
  319loPI   C1B 5101  17.026   6.733   9.915  0.1697  0.1721  0.0975
  319loPI   C2B 5102  17.001   6.668   9.421 -0.1309 -0.3192 -0.1893
  319loPI   C3B 5103  16.872   6.807   9.015 -0.1576 -0.2368 -0.1512
  319loPI   C4B 5104  16.885   6.597   8.581  0.1282 -0.2789  0.0587
  320loPI    C1 5105  14.251   4.883  10.862 -0.1071  0.0512  0.1061
  320loPI    C2 5106  14.261   4.483  10.869  0.2325  0.0537 -0.0520
  320loPI    C3 5107  14.058   4.683  11.150  0.0511 -0.2284  0.0219
  320loPI   PO4 5108  14.273   4.896  10.502 -0.0270  0.0912 -0.3568
  320loPI   GL1 5109  14.593   4.880  10.131  0.1686 -0.4061 -0.1512
  320loPI   GL2 5110  14.468   5.092   9.981 -0.3558  0.2237 -0.0316
  320loPI   C1A 5111  14.635   4.665   9.713  0.2011  0.3551  0.1880
  320loPI   C2A 5112  14.639   4.672   9.344  0.0376 -0.3408 -0.2024
  320loPI   C3A 5113  14.611   4.675   8.927  0.0404 -0.0659  0.1438
  320loPI   C4A 5114  14.592   4.610   8.511 -0.0964 -0.1347  0.1200
  320loPI   C5A 5115  14.545   4.575   8.087  0.2949  0.0405 -0.2448
  320loPI   C6A 5116  14.433   4.788   7.804 -0.1075 -0.0843  0.3813
  320loPI   C1B 5117  14.528   5.162   9.527  0.1790 -0.0847 -0.0500
  320loPI   C2B 5118  14.486   5.133   9.063  0.1241 -0.0580  0.1860
  320loPI   C3B 5119  14.429   5.228   8.679 -0.1446  0.0509  0.0302
  320loPI   C4B 5120  14.509   5.077   8.203  0.0640  0.0435 -0.0845
  321loPI    C1 5121   7.734   1.225  10.985  0.0115 -0.1989  0.2604
  321loPI    C2 5122   7.827   1.607  11.060 -0.0156 -0.0763 -0.2878
  321loPI    C3 5123   7.779   1.350  11.363  0.5331  0.2233  0.0708
  321loPI   PO4 5124   7.826   1.227  10.724  0.2140  0.1628 -0.2567
  321loPI   GL1 5125   7.786   0.809  10.515 -0.2999  0.0333  0.0821
  321loPI   GL2 5126   7.424   0.821  10.696  0.0759  0.1547  0.1688
  321loPI   C1A 5127   7.648   0.732  10.125 -0.1835 -0.0060 -0.0414
  321loPI   C2A 5128   7.867   0.777   9.773 -0.0022  0.3825  0.2192
  321loPI   C3A 5129   7.836   0.820   9.260 -0.0204  0.2130 -0.2006
  321loPI   C4A 5130   7.783   0.891   8.879 -0.1220 -0.2188 -0.3308
  321loPI   C5A 5131   7.515   0.818   8.599  0.1505  0.0272  0.0241
  321loPI   C6A 5132   7.158   0.769   8.348  0.1466 -0.2477  0.1763
  321loPI   C1B 5133   7.217   0.915  10.308  0.2692  0.2544 -0.1885
  321loPI   C2B 5134   7.158   0.902   9.811  0.1543 -0.0585 -0.0995
  321loPI   C3B 5135   7.348   0.947   9.430  0.1094 -0.0219 -0.2618
  321loPI   C4B 5136   7.310   0.954   9.033  0.0151 -0.3742  0.1501
  322loPI    C1 5137   3.460  16.710  10.985  0.2118 -0.1259 -0.0622
  322loPI    C2 5138   3.394  16.380  11.202  0.1422 -0.1829 -0.1692
  322loPI    C3 5139   3.203  16.720  11.291  0.4490 -0.0858  0.1392
  322loPI   PO4 5140   3.308  16.690  10.760  0.2071 -0.0198 -0.3167
  322loPI   GL1 5141   3.113  16.593  10.416 -0.3266 -0.2440  0.0093
  322loPI   GL2 5142   2.793  16.806  10.304  0.1307 -0.0392  0.0656
  322loPI   C1A 5143   3.272  16.657  10.006 -0.4549  0.3822  0.1101
  322loPI   C2A 5144   3.172  16.631   9.566  0.2873  0.0439 -0.0263
  322loPI   C3A 5145   3.243  16.707   9.090  0.0479 -0.0079 -0.4665
  322loPI   C4A 5146   3.206  16.710   8.568  0.1520 -0.0001  0.0956
  322loPI   C5A 5147   3.495  16.609   8.267 -0.1403  0.2011 -0.2370
  322loPI   C6A 5148   3.886  16.344   8.350  0.0004 -0.0254 -0.0199
  322loPI   C1B 5149   2.714  16.746   9.881 -0.1565  0.0099 -0.0917
  322loPI   C2B 5150   2.692  16.810   9.399  0.2240 -0.0405  0.1262
  322loPI   C3B 5151   2.693  16.860   8.972  0.0526  0.1818  0.0898
  322loPI   C4B 5152   2.701  16.608   8.512  0.2208 -0.1673 -0.1293
  323loPI    C1 5153  17.527   9.801  11.132 -0.0195 -0.1246  0.0049
  323loPI    C2 5154  17.315   9.985  11.417 -0.0496  0.0731 -0.1432
  323loPI    C3 5155  17.682   9.848  11.497 -0.1100  0.0101  0.0270
  323loPI   PO4 5156  17.383   9.934  10.829 -0.1247  0.3548 -0.0741
  323loPI   GL1 5157  17.421   9.844  10.367  0.0618 -0.3024 -0.0219
  323loPI   GL2 5158  17.721   9.944  10.367 -0.0012  0.1444  0.1028
  323loPI   C1A 5159  17.352   9.945   9.912  0.0594 -0.0244 -0.1238
  323loPI   C2A 5160  17.325   9.965   9.448 -0.0124  0.1065 -0.2416
  323loPI   C3A 5161  17.347   9.904   8.986 -0.0247  0.0851 -0.2431
  323loPI   C4A 5162  17.355   9.894   8.494  0.1216 -0.1243 -0.2408
  323loPI   C5A 5163  17.282   9.910   8.063 -0.0990 -0.1979 -0.1422
  323loPI   C6A 5164  17.290   9.614   7.799 -0.2560 -0.1220  0.0822
  323loPI   C1B 5165  17.831   9.761  10.026  0.2853  0.1657  0.1305
  323loPI   C2B 5166  17.806   9.812   9.649 -0.3085 -0.2336  0.2733
  323loPI   C3B 5167  17.795   9.829   9.226 -0.3349  0.0925 -0.0672
  323loPI   C4B 5168  17.725   9.714   8.754 -0.2335  0.1007 -0.3465
  324loPI    C1 5169   5.601   2.220  11.042  0.0459  0.3592  0.1931
  324loPI    C2 5170   5.940   2.154  11.242 -0.0746 -0.1463  0.2430
  324loPI    C3 5171   5.615   2.283  11.437 -0.0167 -0.0249  0.2603
  324loPI   PO4 5172   5.565   2.344  10.848 -0.1037 -0.1416  0.2241
  324loPI   GL1 5173   5.675   2.424  10.349 -0.1145 -0.0742  0.0525
  324loPI   GL2 5174   5.970   2.395  10.517  0.4078  0.3398 -0.3233
  324loPI   C1A 5175   5.640   2.444   9.865 -0.0491  0.0849 -0.0142
  324loPI   C2A 5176   5.661   2.468   9.418 -0.0053  0.0660 -0.0601
  324loPI   C3A 5177   5.664   2.490   8.935  0.0972  0.1398 -0.1548
  324loPI   C4A 5178   5.803   2.393   8.486  0.2183 -0.0529  0.0132
  324loPI   C5A 5179   6.181   2.446   8.304  0.3584 -0.1444  0.0655
  324loPI   C6A 5180   6.219   2.784   8.114  0.5539  0.0583 -0.0505
  324loPI   C1B 5181   6.090   2.317  10.100  0.3461 -0.0485 -0.1795
  324loPI   C2B 5182   6.119   2.343   9.639 -0.0786  0.0381 -0.0336
  324loPI   C3B 5183   6.117   2.351   9.220  0.0060  0.1763 -0.0187
  324loPI   C4B 5184   6.210   2.352   8.829 -0.0818  0.0548 -0.1211
  325loPI    C1 5185   0.255  12.872  11.303  0.1024  0.4070  0.3401
  325loPI    C2 5186   0.258  12.552  11.544 -0.1257  0.1056 -0.0440
  325loPI    C3 5187  -0.056  12.799  11.543 -0.2584 -0.0610 -0.2407
  325loPI   PO4 5188   0.259  12.778  11.080 -0.0138  0.1143  0.0152
  325loPI   GL1 5189   0.311  12.463  10.814  0.2046  0.0568  0.1910
  325loPI   GL2 5190   0.529  12.307  10.593  0.1505 -0.0723  0.2059
  325loPI   C1A 5191   0.112  12.342  10.324 -0.0608  0.1347 -0.1895
  325loPI   C2A 5192   0.112  12.567  10.053 -0.2154 -0.1006 -0.2190
  325loPI   C3A 5193   0.012  12.484   9.623  0.3130  0.1613 -0.4061
  325loPI   C4A 5194   0.011  12.456   9.207  0.2185 -0.1323  0.4753
  325loPI   C5A 5195  -0.084  12.516   8.740  0.0632  0.1171  0.3447
  325loPI   C6A 5196  -0.186  12.924   8.561 -0.2527  0.2839 -0.1019
  325loPI   C1B 5197   0.534  12.193  10.189 -0.1099 -0.0874 -0.2185
  325loPI   C2B 5198   0.493  12.313   9.845 -0.2072 -0.3021  0.1889
  325loPI   C3B 5199   0.554  12.283   9.370 -0.1048  0.0905  0.1792
  325loPI   C4B 5200   0.529  12.340   8.872 -0.1323  0.2419 -0.0270
  326loPI    C1 5201   0.142  16.682  11.196  0.1854  0.0081 -0.1018
  326loPI    C2 5202   0.468  16.690  11.427  0.1335  0.0079 -0.0282
  326loPI    C3 5203   0.116  16.580  11.582  0.1106 -0.0524 -0.1226
  326loPI   PO4 5204   0.260  16.586  10.940 -0.0744  0.3138  0.0011
  326loPI   GL1 5205   0.377  16.580  10.528  0.4640  0.0470 -0.1266
  326loPI   GL2 5206   0.404  16.891  10.586  0.0465  0.0015  0.2900
  326loPI   C1A 5207   0.636  16.292  10.247  0.1499  0.0658 -0.0475
  326loPI   C2A 5208   0.589  16.078   9.944 -0.1310 -0.0476 -0.0642
  326loPI   C3A 5209   0.665  16.097   9.494 -0.1363  0.1338  0.0549
  326loPI   C4A 5210   0.595  16.030   9.125  0.1075  0.0749 -0.1083
  326loPI   C5A 5211   0.701  16.136   8.627 -0.0825 -0.0333  0.4462
  326loPI   C6A 5212   0.524  16.137   8.238  0.1215 -0.3199 -0.0652
  326loPI   C1B 5213   0.574  16.750  10.136 -0.1785  0.4667  0.2795
  326loPI   C2B 5214   0.507  16.585   9.697  0.2485 -0.1473 -0.1678
  326loPI   C3B 5215   0.493  16.532   9.268 -0.0736  0.0413  0.1037
  326loPI   C4B 5216   0.484  16.611   8.801  0.5030 -0.0332  0.1273
  327loPI    C1 5217  10.661  16.997  10.904 -0.1834  0.1713  0.0947
  327loPI    C2 5218  10.416  16.682  10.937 -0.1103  0.0771 -0.2224
  327loPI    C3 5219  10.495  16.909  11.257 -0.2149 -0.1870 -0.0055
  327loPI   PO4 5220  10.653  17.056  10.605  0.0104  0.1332  0.2792
  327loPI   GL1 5221  10.424  17.319  10.313 -0.0880 -0.1063 -0.0694
  327loPI   GL2 5222  10.056  17.459  10.383  0.2114 -0.0847 -0.1083
  327loPI   C1A 5223  10.441  17.220   9.883  0.0683 -0.0090 -0.0610
  327loPI   C2A 5224  10.503  17.112   9.440  0.0324  0.0807 -0.0865
  327loPI   C3A 5225  10.490  17.113   9.034  0.0440 -0.0391 -0.1874
  327loPI   C4A 5226  10.472  17.058   8.570 -0.0703 -0.0730  0.2528
  327loPI   C5A 5227  10.419  17.085   8.118 -0.0417 -0.1772  0.0451
  327loPI   C6A 5228  10.133  17.125   7.863  0.0119  0.1450 -0.1297
  327loPI   C1B 5229   9.968  17.360   9.940 -0.1934 -0.2611 -0.0802
  327loPI   C2B 5230  10.060  17.297   9.500  0.2348  0.2011  0.0970
  327loPI   C3B 5231   9.965  17.276   9.026 -0.1911  0.0336  0.0876
  327loPI   C4B 5232   9.975  17.267   8.644 -0.1539 -0.1060 -0.1441
  328loPI    C1 5233   0.847   3.841  10.835  0.0609 -0.1129  0.0235
  328loPI    C2 5234   0.526   4.044  10.710  0.1442 -0.0078 -0.0215
  328loPI    C3 5235   0.484   3.743  10.971  0.0233  0.0862  0.0685
  328loPI   PO4 5236   0.983   3.777  10.572 -0.0605 -0.0270 -0.1062
  328loPI   GL1 5237   1.104   3.831  10.209  0.3692 -0.2433  0.0020
  328loPI   GL2 5238   1.244   3.722  10.044 -0.0097 -0.2059 -0.0159
  328loPI   C1A 5239   0.903   3.777   9.745 -0.2835  0.1622 -0.0605
  328loPI   C2A 5240   1.055   3.809   9.343 -0.0013 -0.2771 -0.1290
  328loPI   C3A 5241   1.142   3.964   8.942  0.0890 -0.2762  0.0541
  328loPI   C4A 5242   1.212   4.089   8.525 -0.4995  0.1967  0.0545
  328loPI   C5A 5243   1.280   4.221   8.080 -0.3275  0.2124  0.3643
  328loPI   C6A 5244   1.136   4.451   7.576  0.0591  0.0403  0.0022
  328loPI   C1B 5245   1.503   3.745   9.615  0.1796 -0.1098 -0.2361
  328loPI   C2B 5246   1.586   3.823   9.233 -0.1437 -0.1074  0.1396
  328loPI   C3B 5247   1.626   3.801   8.861 -0.0967  0.0450 -0.1779
  328loPI   C4B 5248   1.712   3.839   8.504  0.3617 -0.1162  0.2778
  329loPI    C1 5249   0.612   5.272  10.704  0.1535 -0.0968 -0.1800
  329loPI    C2 5250   0.741   5.443  11.042 -0.1599  0.0924 -0.1519
  329loPI    C3 5251   0.951   5.147  10.874  0.1705  0.2199  0.0282
  329loPI   PO4 5252   0.605   5.603  10.595 -0.1292 -0.0593  0.1191
  329loPI   GL1 5253   0.774   5.677  10.153 -0.0269 -0.0656 -0.1432
  329loPI   GL2 5254   0.756   5.405  10.167  0.1757  0.0034  0.0904
  329loPI   C1A 5255   0.835   5.900   9.757  0.0374 -0.3120  0.2926
  329loPI   C2A 5256   0.783   6.067   9.290  0.0994  0.3911 -0.0978
  329loPI   C3A 5257   0.694   6.106   8.902 -0.1742  0.1918 -0.1811
  329loPI   C4A 5258   0.824   6.151   8.524 -0.1866 -0.2081 -0.1637
  329loPI   C5A 5259   0.958   5.951   8.110  0.0849  0.1688  0.1222
  329loPI   C6A 5260   0.951   5.459   8.031  0.1809 -0.1311 -0.0045
  329loPI   C1B 5261   0.883   5.398   9.708 -0.2925  0.4360 -0.1993
  329loPI   C2B 5262   0.882   5.571   9.339  0.3063  0.1354 -0.0766
  329loPI   C3B 5263   0.835   5.533   8.934 -0.0004 -0.0220  0.2102
  329loPI   C4B 5264   0.894   5.583   8.527  0.0220  0.2503 -0.0187
  330loPI    C1 5265   6.208   8.840  10.953  0.2867 -0.0401 -0.2312
  330loPI    C2 5266   6.563   8.899  11.129  0.1298  0.0258  0.0687
  330loPI    C3 5267   6.238   8.827  11.352 -0.0091 -0.2419 -0.2122
  330loPI   PO4 5268   6.142   9.023  10.800 -0.0720 -0.1693 -0.0154
  330loPI   GL1 5269   6.111   9.125  10.414  0.0931  0.0734 -0.0505
  330loPI   GL2 5270   6.038   9.412  10.253 -0.1188  0.2147 -0.0113
  330loPI   C1A 5271   6.210   8.946  10.001  0.0749  0.0756  0.0466
  330loPI   C2A 5272   6.149   8.986   9.483 -0.0207  0.0222 -0.3486
  330loPI   C3A 5273   6.118   9.047   9.056 -0.0763  0.0927  0.0167
  330loPI   C4A 5274   6.178   9.036   8.630 -0.3601 -0.1339 -0.3224
  330loPI   C5A 5275   6.135   8.843   8.258 -0.0463 -0.0196 -0.0261
  330loPI   C6A 5276   6.233   8.435   8.014  0.4591 -0.0033  0.1500
  330loPI   C1B 5277   6.054   9.417   9.782 -0.1500  0.0220  0.1772
  330loPI   C2B 5278   6.088   9.524   9.350  0.1978 -0.2304 -0.4487
  330loPI   C3B 5279   6.047   9.549   8.953  0.1947  0.1973 -0.4972
  330loPI   C4B 5280   5.992   9.502   8.553 -0.2937  0.1935 -0.0368
  331loPI    C1 5281  15.776  12.175  10.922 -0.0173  0.1418  0.0197
  331loPI    C2 5282  15.817  12.391  11.256  0.0421  0.0058  0.1016
  331loPI    C3 5283  15.626  12.040  11.268 -0.1829  0.1202 -0.0597
  331loPI   PO4 5284  15.958  12.316  10.767 -0.1015 -0.0609 -0.0776
  331loPI   GL1 5285  16.155  12.197  10.418  0.0762  0.0459  0.1379
  331loPI   GL2 5286  16.507  12.147  10.147 -0.3539  0.1134  0.1545
  331loPI   C1A 5287  16.024  12.406   9.937  0.2362  0.1050  0.0666
  331loPI   C2A 5288  15.871  12.366   9.527  0.0771 -0.3860 -0.2857
  331loPI   C3A 5289  15.892  12.297   9.153  0.2053  0.2657 -0.2693
  331loPI   C4A 5290  15.911  12.321   8.763  0.0659 -0.0496 -0.3963
  331loPI   C5A 5291  15.870  12.100   8.411 -0.4169  0.4899  0.0460
  331loPI   C6A 5292  16.217  12.313   8.068 -0.1994  0.0556  0.3382
  331loPI   C1B 5293  16.551  12.225   9.738 -0.0098  0.0800 -0.2708
  331loPI   C2B 5294  16.530  12.137   9.267  0.1488  0.1431 -0.0528
  331loPI   C3B 5295  16.392  12.085   8.867  0.0966 -0.0187  0.0099
  331loPI   C4B 5296  16.396  12.097   8.559  0.0478 -0.2373  0.0244
  332loPI    C1 5297   3.660   5.141  10.495  0.0718 -0.0257  0.1413
  332loPI    C2 5298   3.718   5.301  10.858  0.0303  0.0414  0.1186
  332loPI    C3 5299   4.018   5.112  10.672  0.1125  0.1915  0.0976
  332loPI   PO4 5300   3.493   4.927  10.503  0.1274  0.0417 -0.0771
  332loPI   GL1 5301   3.346   4.746  10.252  0.0682  0.0584  0.1485
  332loPI   GL2 5302   3.089   4.555  10.278  0.0288 -0.2490  0.0369
  332loPI   C1A 5303   3.377   4.719   9.735  0.4560  0.0997  0.0669
  332loPI   C2A 5304   3.407   4.734   9.402  0.1751  0.0484  0.1396
  332loPI   C3A 5305   3.399   4.736   8.978  0.0537 -0.2582  0.0403
  332loPI   C4A 5306   3.471   4.660   8.536  0.0261  0.0175 -0.2337
  332loPI   C5A 5307   3.269   4.372   8.274  0.3040 -0.1210 -0.1643
  332loPI   C6A 5308   2.988   4.339   7.931  0.0539  0.1059  0.1089
  332loPI   C1B 5309   3.011   4.384   9.787  0.1097  0.2718 -0.1361
  332loPI   C2B 5310   3.034   4.337   9.368 -0.2398  0.0283 -0.1976
  332loPI   C3B 5311   3.025   4.368   9.032  0.1601 -0.2045  0.0369
  332loPI   C4B 5312   3.077   4.388   8.704  0.0182  0.0975 -0.1387
  333loPI    C1 5313   1.033   0.924  10.730  0.2270 -0.3824  0.2555
  333loPI    C2 5314   1.211   1.259  10.858 -0.3662 -0.0095  0.1421
  333loPI    C3 5315   1.018   1.024  11.117 -0.2093 -0.1051  0.1736
  333loPI   PO4 5316   1.251   0.737  10.609 -0.1642 -0.0148 -0.0692
  333loPI   GL1 5317   1.040   0.726  10.254 -0.0242  0.3065  0.2185
  333loPI   GL2 5318   0.887   0.525  10.109 -0.0839 -0.0007  0.1880
  333loPI   C1A 5319   1.239   0.923   9.785 -0.0716 -0.1182 -0.1226
  333loPI   C2A 5320   1.370   0.979   9.355  0.1829  0.0074 -0.0092
  333loPI   C3A 5321   1.267   1.043   8.910  0.0531  0.2346  0.0986
  333loPI   C4A 5322   1.316   1.059   8.484  0.3099  0.0044  0.1367
  333loPI   C5A 5323   1.320   0.895   8.082 -0.1851 -0.2036 -0.0928
  333loPI   C6A 5324   1.408   0.764   7.628  0.0459  0.0987  0.0269
  333loPI   C1B 5325   0.871   0.611   9.696  0.0414 -0.1505 -0.0416
  333loPI   C2B 5326   0.893   0.680   9.242  0.1009 -0.2165 -0.1566
  333loPI   C3B 5327   0.873   0.784   8.809 -0.2959 -0.3214 -0.0849
  333loPI   C4B 5328   0.774   0.706   8.437 -0.2585 -0.0940  0.1753
  334loPI    C1 5329  10.457  13.988  10.574  0.0071  0.1228  0.0853
  334loPI    C2 5330  10.300  13.700  10.803  0.0469  0.1312  0.1233
  334loPI    C3 5331  10.481  14.013  10.972  0.1252  0.1103  0.0793
  334loPI   PO4 5332  10.235  14.021  10.420  0.0608 -0.0025  0.0781
  334loPI   GL1 5333  10.197  13.829  10.129  0.1578 -0.3342 -0.3029
  334loPI   GL2 5334  10.021  13.527  10.310  0.0915 -0.2410  0.0144
  334loPI   C1A 5335  10.117  13.820   9.755  0.0184  0.0365  0.2704
  334loPI   C2A 5336  10.077  13.798   9.261 -0.0508  0.1214 -0.2151
  334loPI   C3A 5337  10.090  13.914   8.844  0.2082 -0.1990  0.0663
  334loPI   C4A 5338   9.995  13.816   8.444  0.3918  0.2052 -0.1656
  334loPI   C5A 5339  10.006  13.633   8.057 -0.2457  0.0479 -0.1276
  334loPI   C6A 5340  10.179  13.185   8.160 -0.2624  0.1485 -0.1392
  334loPI   C1B 5341  10.290  13.358   9.988  0.0748  0.0205 -0.1212
  334loPI   C2B 5342  10.215  13.359   9.556 -0.1600 -0.0466  0.0802
  334loPI   C3B 5343  10.256  13.325   9.183 -0.0307  0.0287 -0.1939
  334loPI   C4B 5344  10.184  13.419   8.748  0.2104  0.1559 -0.2444
  335loPI    C1 5345   4.685   3.604  11.271 -0.1450 -0.1465  0.0683
  335loPI    C2 5346   5.034   3.412  11.315  0.0576  0.2172  0.0905
  335loPI    C3 5347   4.862   3.592  11.629 -0.0504  0.2076  0.0375
  335loPI   PO4 5348   4.536   3.461  11.100  0.0201 -0.4319 -0.1335
  335loPI   GL1 5349   4.557   3.428  10.636  0.0350  0.0074  0.1722
  335loPI   GL2 5350   4.282   3.568  10.629 -0.2436  0.1841 -0.1778
  335loPI   C1A 5351   4.488   3.279  10.135 -0.1518 -0.1549  0.0734
  335loPI   C2A 5352   4.524   3.356   9.694  0.2809 -0.0318  0.0571
  335loPI   C3A 5353   4.530   3.240   9.264 -0.0009  0.2451 -0.2096
  335loPI   C4A 5354   4.589   3.314   8.940  0.1039  0.1561 -0.0540
  335loPI   C5A 5355   4.664   3.340   8.528  0.1971  0.2372 -0.0039
  335loPI   C6A 5356   4.814   3.157   8.204 -0.0021  0.0367  0.2717
  335loPI   C1B 5357   4.083   3.420  10.258 -0.2140 -0.2739 -0.2912
  335loPI   C2B 5358   4.058   3.432   9.834  0.0420  0.1891 -0.0810
  335loPI   C3B 5359   4.123   3.527   9.353  0.1774  0.0211  0.2036
  335loPI   C4B 5360   4.070   3.446   8.975 -0.1036  0.0273 -0.2158
  336loPI    C1 5361  12.234   3.018  10.772 -0.0831 -0.0479 -0.0043
  336loPI    C2 5362  12.254   3.092  11.164 -0.2032 -0.1776  0.0271
  336loPI    C3 5363  11.970   3.264  10.943  0.1547  0.2769 -0.0946
  336loPI   PO4 5364  12.204   2.757  10.739  0.0665 -0.1859  0.2542
  336loPI   GL1 5365  12.003   2.591  10.354  0.1232  0.0115 -0.0100
  336loPI   GL2 5366  12.128   2.898  10.255  0.0178 -0.2166  0.0381
  336loPI   C1A 5367  12.097   2.195  10.125  0.0786  0.0405  0.2205
  336loPI   C2A 5368  12.186   2.246   9.652  0.0609 -0.0290 -0.0118
  336loPI   C3A 5369  12.181   2.269   9.216  0.0822  0.0563 -0.4866
  336loPI   C4A 5370  12.172   2.026   8.746  0.2203 -0.0330 -0.0916
  336loPI   C5A 5371  12.188   2.001   8.390 -0.1031 -0.1347 -0.1985
  336loPI   C6A 5372  12.376   2.027   7.887  0.0428 -0.0066  0.0358
  336loPI   C1B 5373  12.143   2.715   9.867  0.1742 -0.0897 -0.1059
  336loPI   C2B 5374  12.139   2.706   9.387 -0.1498  0.1183  0.0886
  336loPI   C3B 5375  12.129   2.675   8.915 -0.0153  0.2265  0.2247
  336loPI   C4B 5376  12.085   2.513   8.529  0.1639  0.0244 -0.0003
  337loPI    C1 5377  15.000  10.444  10.903 -0.1268 -0.1380  0.1179
  337loPI    C2 5378  15.218  10.153  11.070  0.2168  0.1201  0.1296
  337loPI    C3 5379  14.819  10.148  11.102  0.2262 -0.2807  0.2337
  337loPI   PO4 5380  14.990  10.486  10.623  0.1369 -0.1876 -0.0057
  337loPI   GL1 5381  14.834  10.377  10.261  0.3199 -0.0482 -0.0546
  337loPI   GL2 5382  14.714  10.669  10.174 -0.1696  0.2239 -0.2191
  337loPI   C1A 5383  14.911  10.156   9.918 -0.1995  0.4645 -0.2168
  337loPI   C2A 5384  14.845  10.223   9.487  0.1241  0.1858 -0.0611
  337loPI   C3A 5385  14.934  10.199   9.027  0.1141 -0.1018  0.4840
  337loPI   C4A 5386  14.902  10.138   8.574  0.1797  0.0533 -0.1429
  337loPI   C5A 5387  14.842  10.264   8.195 -0.2376 -0.0736  0.0869
  337loPI   C6A 5388  14.958  10.425   7.791  0.0714 -0.4066  0.3608
  337loPI   C1B 5389  14.668  10.601   9.834 -0.1773 -0.0082  0.1871
  337loPI   C2B 5390  14.849  10.771   9.422  0.0200 -0.3154 -0.1187
  337loPI   C3B 5391  14.907  10.747   9.015  0.0058 -0.1821 -0.0348
  337loPI   C4B 5392  14.908  10.702   8.575 -0.1522  0.4793  0.1158
  338loPI    C1 5393   5.029   4.723  11.098 -0.1237 -0.0110  0.2407
  338loPI    C2 5394   4.958   5.111  11.167  0.3397  0.1264 -0.0130
  338loPI    C3 5395   5.187   4.901  11.420  0.2393  0.0638  0.0266
  338loPI   PO4 5396   5.035   4.678  10.770  0.1471 -0.1954  0.2145
  338loPI   GL1 5397   5.265   4.932  10.399 -0.1801  0.2610 -0.0908
  338loPI   GL2 5398   5.468   5.134  10.207 -0.3494 -0.2183  0.4058
  338loPI   C1A 5399   5.114   4.957   9.993  0.1282  0.0060  0.1500
  338loPI   C2A 5400   5.070   4.997   9.664 -0.0827  0.2719 -0.2343
  338loPI   C3A 5401   5.090   5.118   9.246  0.1365 -0.1047 -0.2138
  338loPI   C4A 5402   5.264   5.060   8.798  0.0794  0.0696 -0.0294
  338loPI   C5A 5403   5.207   5.013   8.357  0.0028  0.0151 -0.1122
  338loPI   C6A 5404   5.520   5.204   8.044  0.0100 -0.1716 -0.2255
  338loPI   C1B 5405   5.580   5.375   9.885 -0.3250  0.2871 -0.1185
  338loPI   C2B 5406   5.533   5.405   9.447 -0.2472 -0.0727 -0.0641
  338loPI   C3B 5407   5.511   5.437   8.988 -0.0740 -0.2061 -0.2770
  338loPI   C4B 5408   5.559   5.381   8.528  0.3379 -0.0125  0.0152
  339loPI    C1 5409  14.441  10.932  10.918  0.0166 -0.1170 -0.1658
  339loPI    C2 5410  14.526  10.604  11.131 -0.1389 -0.1441 -0.1445
  339loPI    C3 5411  14.788  10.906  11.115 -0.0006 -0.2638 -0.1538
  339loPI   PO4 5412  14.323  10.780  10.683  0.1274  0.4359  0.2396
  339loPI   GL1 5413  14.226  10.511  10.355 -0.2028 -0.2334  0.1978
  339loPI   GL2 5414  14.246  10.840  10.167  0.0436 -0.0383  0.3984
  339loPI   C1A 5415  14.293  10.349   9.931  0.0523  0.1929 -0.1184
  339loPI   C2A 5416  14.352  10.381   9.551  0.1108 -0.1420 -0.1915
  339loPI   C3A 5417  14.484  10.456   9.139  0.1061  0.1772  0.1756
  339loPI   C4A 5418  14.415  10.410   8.684 -0.5643  0.0650 -0.1772
  339loPI   C5A 5419  14.389  10.360   8.302 -0.0001 -0.1104  0.0350
  339loPI   C6A 5420  14.470  10.509   7.856  0.0696  0.2018  0.0659
  339loPI   C1B 5421  14.243  10.917   9.749 -0.2728 -0.0855 -0.2554
  339loPI   C2B 5422  14.363  10.874   9.343  0.3907  0.2018 -0.0808
  339loPI   C3B 5423  14.329  10.882   8.947  0.1451 -0.0002 -0.1830
  339loPI   C4B 5424  14.459  10.867   8.488 -0.2804  0.0326 -0.0066
  340loPI    C1 5425   0.013  17.800  10.772 -0.1849  0.0119 -0.1347
  340loPI    C2 5426  -0.223  18.096  10.642 -0.3326 -0.1552 -0.2516
  340loPI    C3 5427  -0.194  18.021  11.034 -0.2178  0.0758 -0.2141
  340loPI   PO4 5428  -0.087  17.558  10.678 -0.1987 -0.1525 -0.0633
  340loPI   GL1 5429  -0.101  17.283  10.252  0.0571 -0.3397  0.0938
  340loPI   GL2 5430  -0.012  16.928  10.344  0.2817  0.0615 -0.1074
  340loPI   C1A 5431  -0.198  17.318   9.894  0.0984 -0.0738 -0.3169
  340loPI   C2A 5432  -0.088  17.234   9.556 -0.2249  0.2863  0.1683
  340loPI   C3A 5433  -0.064  17.224   9.133  0.1927  0.0650  0.0640
  340loPI   C4A 5434  -0.092  17.278   8.781 -0.1002  0.4255  0.1100
  340loPI   C5A 5435  -0.162  17.198   8.356 -0.0087 -0.1562 -0.0819
  340loPI   C6A 5436  -0.402  16.956   8.009 -0.5934  0.0667 -0.0490
  340loPI   C1B 5437  -0.022  16.840   9.909 -0.0073 -0.1416 -0.0166
  340loPI   C2B 5438   0.008  16.636   9.478  0.0760 -0.3599  0.0271
  340loPI   C3B 5439   0.006  16.709   9.038 -0.0593 -0.0985  0.1055
  340loPI   C4B 5440  -0.067  16.734   8.625 -0.2824  0.0321  0.3296
  341loPI    C1 5441  15.219  15.780  11.025  0.1431  0.1938  0.0405
  341loPI    C2 5442  14.924  15.919  11.257  0.0283 -0.2066  0.1418
  341loPI    C3 5443  15.300  15.916  11.392 -0.0036 -0.2165  0.2310
  341loPI   PO4 5444  15.243  15.893  10.858  0.2077  0.1471  0.1816
  341loPI   GL1 5445  15.488  15.830  10.492 -0.1144 -0.2614  0.1978
  341loPI   GL2 5446  15.731  15.606  10.354  0.0900 -0.0168 -0.1751
  341loPI   C1A 5447  15.301  15.917  10.114 -0.0211 -0.0042 -0.1285
  341loPI   C2A 5448  15.215  15.764   9.723  0.2458 -0.1697  0.2156
  341loPI   C3A 5449  15.220  15.853   9.334 -0.0469 -0.0937  0.0115
  341loPI   C4A 5450  15.209  15.728   8.902  0.1252 -0.0648 -0.1217
  341loPI   C5A 5451  15.281  15.643   8.455 -0.1153  0.1770  0.1400
  341loPI   C6A 5452  15.257  15.495   8.045 -0.1409 -0.1739  0.0929
  341loPI   C1B 5453  15.750  15.719   9.948 -0.2499 -0.1208  0.3317
  341loPI   C2B 5454  15.639  15.606   9.551  0.0956 -0.1679  0.1422
  341loPI   C3B 5455  15.749  15.617   9.088 -0.1071  0.0292  0.0715
  341loPI   C4B 5456  15.757  15.594   8.623 -0.1444  0.1673  0.0512
  342loPI    C1 5457  18.059  15.318  11.162  0.3128 -0.0369 -0.0103
  342loPI    C2 5458  18.318  15.326  11.466  0.1648  0.0759  0.1146
  342loPI    C3 5459  18.013  15.068  11.471  0.2578 -0.0380 -0.0194
  342loPI   PO4 5460  18.221  15.240  10.934  0.1692 -0.1084  0.1791
  342loPI   GL1 5461  18.366  15.128  10.687  0.2485 -0.2308  0.1152
  342loPI   GL2 5462  18.228  14.844  10.552  0.0359 -0.3481 -0.2569
  342loPI   C1A 5463  18.557  15.305  10.350  0.1742  0.3367  0.1337
  342loPI   C2A 5464  18.487  15.298   9.965 -0.0810 -0.0324  0.2122
  342loPI   C3A 5465  18.626  15.212   9.558 -0.1489 -0.1080 -0.3976
  342loPI   C4A 5466  18.562  15.219   9.088 -0.1587  0.1872 -0.2524
  342loPI   C5A 5467  18.554  15.089   8.675 -0.0780 -0.2776  0.0472
  342loPI   C6A 5468  18.792  14.976   8.433  0.1154  0.0258  0.2203
  342loPI   C1B 5469  18.191  14.941  10.114 -0.2255  0.0183 -0.2297
  342loPI   C2B 5470  18.218  14.867   9.712 -0.2007 -0.0242  0.2371
  342loPI   C3B 5471  18.214  14.942   9.283  0.4712  0.0007  0.1221
  342loPI   C4B 5472  18.149  14.878   8.861 -0.5049  0.1787 -0.2070
  343loPI    C1 5473   3.631   2.445  11.021 -0.0695  0.1477 -0.1481
  343loPI    C2 5474   3.454   2.437  11.380  0.0067 -0.2510 -0.1147
  343loPI    C3 5475   3.824   2.584  11.343 -0.1239  0.0921 -0.0910
  343loPI   PO4 5476   3.419   2.328  10.845 -0.1634  0.1155 -0.1354
  343loPI   GL1 5477   3.462   2.297  10.463 -0.0766 -0.0796 -0.1377
  343loPI   GL2 5478   3.461   1.987  10.500  0.0193  0.1339 -0.1082
  343loPI   C1A 5479   3.411   2.226   9.991  0.2368  0.1140 -0.0996
  343loPI   C2A 5480   3.366   2.235   9.546  0.2392  0.3076  0.0588
  343loPI   C3A 5481   3.343   2.243   9.047  0.4063 -0.1682 -0.0778
  343loPI   C4A 5482   3.445   2.281   8.616 -0.1227 -0.1190  0.1029
  343loPI   C5A 5483   3.418   2.056   8.175 -0.1798 -0.1574 -0.0293
  343loPI   C6A 5484   3.453   1.828   7.812 -0.3761 -0.2509 -0.1975
  343loPI   C1B 5485   3.427   1.705  10.074  0.1755  0.0380 -0.2626
  343loPI   C2B 5486   3.373   1.630   9.685 -0.1347  0.1109 -0.1217
  343loPI   C3B 5487   3.490   1.805   9.242 -0.1129  0.0219  0.1369
  343loPI   C4B 5488   3.465   1.693   8.805 -0.0204 -0.2668  0.1114
  344loPI    C1 5489   3.633  15.168  11.346 -0.1284 -0.1304  0.0525
  344loPI    C2 5490   3.664  15.005  11.710 -0.2939  0.0877  0.1669
  344loPI    C3 5491   3.993  15.078  11.494 -0.2090 -0.2528  0.1761
  344loPI   PO4 5492   3.429  15.061  11.156 -0.2193  0.0872 -0.2237
  344loPI   GL1 5493   3.235  14.975  10.763  0.1801 -0.1877 -0.2003
  344loPI   GL2 5494   3.586  15.022  10.523  0.1097 -0.0479  0.0203
  344loPI   C1A 5495   3.087  15.169  10.278 -0.0885  0.0544  0.2039
  344loPI   C2A 5496   3.091  15.301   9.874  0.0362 -0.0462  0.0244
  344loPI   C3A 5497   3.124  15.257   9.458 -0.3887 -0.3298 -0.4152
  344loPI   C4A 5498   3.085  15.243   9.120  0.0853  0.1296 -0.1474
  344loPI   C5A 5499   3.128  15.151   8.779  0.0073 -0.0396  0.0333
  344loPI   C6A 5500   3.177  15.092   8.326  0.1743  0.1225 -0.1027
  344loPI   C1B 5501   3.545  15.073  10.098  0.1976 -0.2323  0.2595
  344loPI   C2B 5502   3.573  15.146   9.698  0.2164 -0.2382  0.0230
  344loPI   C3B 5503   3.563  15.043   9.364 -0.0685 -0.0779 -0.0754
  344loPI   C4B 5504   3.585  15.070   8.932 -0.0050 -0.1898  0.1885
  345loPI    C1 5505   9.141  10.791  10.518  0.0435 -0.1689 -0.0198
  345loPI    C2 5506   9.340  10.952  10.826 -0.0413  0.2200 -0.1622
  345loPI    C3 5507   9.068  10.665  10.891 -0.0387  0.2794  0.1213
  345loPI   PO4 5508   9.333  10.784  10.336  0.4040 -0.2089 -0.2005
  345loPI   GL1 5509   9.708  10.664  10.110  0.1351 -0.3012  0.1326
  345loPI   GL2 5510   9.931  10.659   9.836  0.0442 -0.0393 -0.0036
  345loPI   C1A 5511   9.403  10.803   9.658  0.0406  0.0720 -0.2465
  345loPI   C2A 5512   9.432  10.891   9.236  0.2309 -0.1044  0.2771
  345loPI   C3A 5513   9.381  10.778   8.880  0.0833 -0.0333 -0.1980
  345loPI   C4A 5514   9.467  10.792   8.501  0.0951 -0.3182  0.0399
  345loPI   C5A 5515   9.394  10.714   8.174 -0.0975  0.1051 -0.3218
  345loPI   C6A 5516   9.067  10.490   7.936  0.2190  0.1010 -0.0114
  345loPI   C1B 5517   9.839  10.692   9.438  0.0557  0.3296 -0.1322
  345loPI   C2B 5518   9.875  10.640   9.005 -0.1174  0.3260  0.3475
  345loPI   C3B 5519   9.937  10.614   8.580 -0.2619  0.1394 -0.1294
  345loPI   C4B 5520   9.977  10.629   8.132  0.2355  0.0867  0.0202
  346loPI    C1 5521  14.989  16.603  10.894  0.0148 -0.0167  0.0277
  346loPI    C2 5522  14.704  16.613  11.175  0.0086  0.0717  0.0185
  346loPI    C3 5523  15.022  16.375  11.221 -0.1234 -0.1162 -0.0263
  346loPI   PO4 5524  14.857  16.540  10.642 -0.1330 -0.0046  0.2783
  346loPI   GL1 5525  14.689  16.824  10.374 -0.2719 -0.2927 -0.3654
  346loPI   GL2 5526  14.496  16.507  10.262 -0.1392 -0.0060 -0.0845
  346loPI   C1A 5527  14.551  17.016  10.020 -0.0427  0.1991 -0.1091
  346loPI   C2A 5528  14.634  16.991   9.594 -0.2879  0.2351 -0.1663
  346loPI   C3A 5529  14.496  16.981   9.091  0.1612 -0.0422 -0.1672
  346loPI   C4A 5530  14.522  16.951   8.562 -0.1242  0.0175  0.0700
  346loPI   C5A 5531  14.445  17.179   8.177 -0.0725  0.1177  0.0141
  346loPI   C6A 5532  14.380  17.501   7.840 -0.0965  0.2684  0.2228
  346loPI   C1B 5533  14.591  16.496   9.779 -0.0359  0.0894 -0.0948
  346loPI   C2B 5534  14.653  16.541   9.352 -0.1781  0.0347  0.0224
  346loPI   C3B 5535  14.555  16.480   8.939  0.0952  0.0236 -0.1982
  346loPI   C4B 5536  14.657  16.311   8.513 -0.2545 -0.1738 -0.1169
  347loPI    C1 5537  17.218  12.031  11.162 -0.0566 -0.0571 -0.2458
  347loPI    C2 5538  16.892  11.817  11.250 -0.1411  0.0710 -0.2449
  347loPI    C3 5539  17.071  12.034  11.534 -0.1604  0.1423 -0.2867
  347loPI   PO4 5540  17.128  12.137  10.891 -0.1249  0.0226 -0.3345
  347loPI   GL1 5541  17.289  12.114  10.529 -0.1090  0.1401 -0.1707
  347loPI   GL2 5542  16.989  11.944  10.351  0.0294  0.0623 -0.0211
  347loPI   C1A 5543  17.378  12.379  10.069 -0.1849  0.1947  0.0483
  347loPI   C2A 5544  17.351  12.347   9.613  0.2665 -0.2417 -0.2383
  347loPI   C3A 5545  17.348  12.356   9.256  0.2832  0.0766  0.0898
  347loPI   C4A 5546  17.266  12.244   8.851  0.0774 -0.1789  0.0116
  347loPI   C5A 5547  16.885  12.316   8.527  0.3634 -0.0366 -0.0434
  347loPI   C6A 5548  16.769  12.067   8.239 -0.3529  0.0730 -0.1746
  347loPI   C1B 5549  16.988  12.050   9.939 -0.0291  0.2352  0.0668
  347loPI   C2B 5550  17.007  12.013   9.423  0.2329 -0.3879  0.1776
  347loPI   C3B 5551  16.908  11.955   9.037 -0.3740  0.1130 -0.1746
  347loPI   C4B 5552  16.851  11.848   8.698  0.2166  0.3075  0.1633
  348loPI    C1 5553   1.457   3.482  10.452  0.3360 -0.2280 -0.0439
  348loPI    C2 5554   1.164   3.290  10.646 -0.0240  0.1041 -0.2437
  348loPI    C3 5555   1.368   3.581  10.829  0.2072 -0.1469 -0.0947
  348loPI   PO4 5556   1.455   3.288  10.238 -0.4898  0.0968  0.0795
  348loPI   GL1 5557   1.226   3.237   9.848 -0.0605 -0.1490 -0.1217
  348loPI   GL2 5558   0.953   3.040   9.853  0.1365  0.1932 -0.1861
  348loPI   C1A 5559   1.224   3.379   9.504 -0.1458  0.2445  0.1749
  348loPI   C2A 5560   1.276   3.477   9.013 -0.1093 -0.3536 -0.2822
  348loPI   C3A 5561   1.318   3.443   8.620  0.3005  0.1077  0.1982
  348loPI   C4A 5562   1.359   3.299   8.245  0.0868 -0.1553 -0.3734
  348loPI   C5A 5563   1.313   3.158   7.846  0.0096 -0.2488  0.1093
  348loPI   C6A 5564   1.285   2.725   7.675 -0.1583 -0.3836 -0.1714
  348loPI   C1B 5565   1.109   2.839   9.624 -0.0815  0.0493 -0.2609
  348loPI   C2B 5566   1.343   2.851   9.262  0.0336  0.0949  0.0930
  348loPI   C3B 5567   1.491   2.932   8.898 -0.0082  0.3928 -0.1684
  348loPI   C4B 5568   1.403   2.826   8.548  0.2090 -0.0977  0.0353
  349loPI    C1 5569  14.824  17.496  10.934 -0.1401 -0.0691  0.1234
  349loPI    C2 5570  15.174  17.334  11.042  0.0010  0.2150  0.1003
  349loPI    C3 5571  14.933  17.492  11.319  0.0014  0.2351  0.0891
  349loPI   PO4 5572  14.990  17.632  10.686  0.2894 -0.0296  0.1894
  349loPI   GL1 5573  15.091  17.630  10.233 -0.0147 -0.0617 -0.1438
  349loPI   GL2 5574  15.049  17.304  10.144 -0.0873 -0.1938 -0.1216
  349loPI   C1A 5575  15.090  17.783   9.833  0.1991 -0.0300  0.1189
  349loPI   C2A 5576  15.149  17.731   9.444 -0.1699  0.0060 -0.0798
  349loPI   C3A 5577  15.069  17.740   8.975  0.1779 -0.0401 -0.1428
  349loPI   C4A 5578  14.979  17.691   8.545 -0.1401  0.0861  0.0384
  349loPI   C5A 5579  14.965  17.689   8.068  0.2580  0.0808  0.0909
  349loPI   C6A 5580  15.013  17.388   7.818 -0.3235 -0.0461 -0.1014
  349loPI   C1B 5581  15.026  17.278   9.673  0.3912 -0.0637 -0.2152
  349loPI   C2B 5582  14.966  17.244   9.210  0.0490 -0.0470 -0.1473
  349loPI   C3B 5583  14.907  17.150   8.746 -0.4410 -0.0533 -0.0762
  349loPI   C4B 5584  14.917  17.194   8.327 -0.1513 -0.1502 -0.0283
  350loPI    C1 5585   5.507  15.967  11.076  0.1047  0.1013  0.2723
  350loPI    C2 5586   5.486  15.797  11.437 -0.0935 -0.2550  0.0976
  350loPI    C3 5587   5.466  16.195  11.403  0.2435 -0.1956  0.5012
  350loPI   PO4 5588   5.703  15.795  10.974  0.1923  0.0853  0.2273
  350loPI   GL1 5589   5.567  15.717  10.469  0.0542  0.2035  0.2828
  350loPI   GL2 5590   5.564  16.045  10.597  0.0073 -0.0995 -0.4258
  350loPI   C1A 5591   5.691  15.787  10.077  0.2241  0.3802  0.0298
  350loPI   C2A 5592   5.642  15.730   9.653 -0.2158  0.0953 -0.5828
  350loPI   C3A 5593   5.658  15.800   9.263 -0.2327 -0.2880 -0.0480
  350loPI   C4A 5594   5.740  15.880   8.777  0.3045  0.3046 -0.0527
  350loPI   C5A 5595   5.618  16.147   8.551  0.0659  0.1070 -0.5223
  350loPI   C6A 5596   5.946  16.435   8.421  0.0534 -0.0832  0.0194
  350loPI   C1B 5597   5.468  16.235  10.202  0.0260  0.4194  0.0433
  350loPI   C2B 5598   5.497  16.219   9.791 -0.2074  0.0072  0.1583
  350loPI   C3B 5599   5.493  16.351   9.416  0.2493  0.2001  0.3479
  350loPI   C4B 5600   5.629  16.336   9.061  0.1300  0.0024 -0.0756
  351loPI    C1 5601   3.940  13.260  11.249 -0.0456 -0.1644 -0.1065
  351loPI    C2 5602   3.720  13.386  11.558 -0.0335 -0.1399 -0.1079
  351loPI    C3 5603   4.118  13.366  11.591 -0.0216 -0.0093 -0.1662
  351loPI   PO4 5604   3.849  13.380  11.058 -0.0249  0.2037 -0.1166
  351loPI   GL1 5605   3.956  13.363  10.631 -0.0985 -0.4617  0.1544
  351loPI   GL2 5606   4.352  13.271  10.563 -0.0047 -0.1784 -0.0164
  351loPI   C1A 5607   3.829  13.448  10.195  0.3321 -0.0068 -0.1198
  351loPI   C2A 5608   3.826  13.587   9.822  0.0325  0.0560  0.4688
  351loPI   C3A 5609   3.893  13.508   9.412 -0.1927 -0.0251  0.1058
  351loPI   C4A 5610   3.783  13.503   9.012 -0.0564 -0.1094 -0.2072
  351loPI   C5A 5611   3.821  13.466   8.614 -0.2413 -0.3397 -0.0564
  351loPI   C6A 5612   3.832  13.678   8.241  0.2442 -0.0442 -0.2316
  351loPI   C1B 5613   4.343  13.347  10.133  0.1170  0.0278 -0.0917
  351loPI   C2B 5614   4.281  13.330   9.693  0.3699 -0.0843  0.2889
  351loPI   C3B 5615   4.386  13.396   9.300 -0.3556 -0.4479 -0.0886
  351loPI   C4B 5616   4.268  13.331   8.898 -0.0245  0.0802 -0.0109
  352loPI    C1 5617   6.223  17.795  11.217 -0.0869  0.0380  0.0424
  352loPI    C2 5618   6.554  17.721  11.429 -0.0318 -0.0889 -0.0870
  352loPI    C3 5619   6.373  18.076  11.459 -0.0020 -0.0918  0.1420
  352loPI   PO4 5620   6.282  17.736  11.024 -0.0726 -0.0190  0.4256
  352loPI   GL1 5621   6.345  17.832  10.629  0.2099  0.1412 -0.0107
  352loPI   GL2 5622   6.641  17.708  10.505 -0.1121 -0.3612 -0.1281
  352loPI   C1A 5623   6.077  17.965  10.281  0.0941 -0.2094  0.1302
  352loPI   C2A 5624   6.062  17.992   9.824  0.2901  0.0722 -0.1304
  352loPI   C3A 5625   6.187  18.029   9.368 -0.0651 -0.1422  0.0599
  352loPI   C4A 5626   6.165  18.206   9.019 -0.3074 -0.0198 -0.4214
  352loPI   C5A 5627   6.230  18.227   8.537 -0.3365 -0.1967 -0.0324
  352loPI   C6A 5628   6.298  18.334   8.176 -0.0930 -0.1474  0.2076
  352loPI   C1B 5629   6.566  17.886  10.078  0.1844 -0.0157 -0.1402
  352loPI   C2B 5630   6.534  17.891   9.649 -0.1999 -0.1043 -0.0658
  352loPI   C3B 5631   6.666  17.927   9.261 -0.2418  0.1997 -0.0702
  352loPI   C4B 5632   6.600  18.074   8.812  0.3244  0.1442 -0.0514
  353loPI    C1 5633  14.756   2.832  10.668  0.0915  0.0085 -0.2507
  353loPI    C2 5634  14.714   3.167  10.883  0.2189 -0.0679 -0.1048
  353loPI    C3 5635  14.516   2.835  10.988  0.0849 -0.0370 -0.2552
  353loPI   PO4 5636  15.037   2.832  10.495 -0.0386 -0.2161  0.2559
  353loPI   GL1 5637  15.223   2.698  10.170  0.1932  0.0320  0.0859
  353loPI   GL2 5638  15.252   2.991  10.041 -0.1001 -0.1349 -0.1294
  353loPI   C1A 5639  14.913   2.566   9.800 -0.2366 -0.1901 -0.1590
  353loPI   C2A 5640  14.897   2.609   9.400 -0.0904  0.1662  0.0220
  353loPI   C3A 5641  14.899   2.576   8.939  0.5254  0.0179 -0.3051
  353loPI   C4A 5642  14.991   2.600   8.535  0.1232  0.0856 -0.1306
  353loPI   C5A 5643  15.062   2.694   8.069  0.0313  0.0873  0.0932
  353loPI   C6A 5644  15.095   2.909   7.693  0.3547 -0.0676 -0.2052
  353loPI   C1B 5645  15.287   2.897   9.630 -0.0480 -0.0730 -0.0189
  353loPI   C2B 5646  15.338   2.887   9.185 -0.3709  0.2892  0.2556
  353loPI   C3B 5647  15.340   2.867   8.793  0.2074 -0.0563  0.3666
  353loPI   C4B 5648  15.373   2.877   8.378 -0.0386  0.1535  0.4437
  354loPI    C1 5649   2.584   1.367  10.762  0.2679  0.0405 -0.1406
  354loPI    C2 5650   2.544   1.004  10.926  0.4183  0.1306  0.1015
  354loPI    C3 5651   2.308   1.305  11.044  0.0686  0.0374 -0.3343
  354loPI   PO4 5652   2.558   1.254  10.474  0.1144 -0.1033  0.0774
  354loPI   GL1 5653   2.532   0.988  10.110 -0.0699 -0.0048  0.2211
  354loPI   GL2 5654   2.276   0.887  10.189  0.0372 -0.1038 -0.0841
  354loPI   C1A 5655   2.611   1.007   9.621  0.0621 -0.0249 -0.0752
  354loPI   C2A 5656   2.686   0.989   9.201 -0.0646  0.0389 -0.0969
  354loPI   C3A 5657   2.755   1.002   8.776  0.0701 -0.0047 -0.0212
  354loPI   C4A 5658   2.721   0.955   8.284 -0.0783 -0.1939 -0.1666
  354loPI   C5A 5659   2.764   1.090   7.855 -0.0668  0.1175  0.0205
  354loPI   C6A 5660   2.617   0.953   7.381 -0.0096 -0.2047  0.1239
  354loPI   C1B 5661   2.295   0.643   9.844 -0.0244 -0.1570 -0.1581
  354loPI   C2B 5662   2.288   0.633   9.368 -0.0045 -0.0229  0.1661
  354loPI   C3B 5663   2.344   0.640   8.904 -0.0666  0.1711 -0.0909
  354loPI   C4B 5664   2.276   0.591   8.481 -0.4401 -0.0549 -0.0264
  355loPI    C1 5665   9.514  17.100  10.895  0.0877  0.1945  0.1761
  355loPI    C2 5666   9.254  17.267  11.149  0.1927 -0.1345  0.5088
  355loPI    C3 5667   9.647  17.328  11.196  0.1951  0.1629  0.1529
  355loPI   PO4 5668   9.419  17.127  10.700 -0.1864 -0.3069 -0.1932
  355loPI   GL1 5669   9.175  17.224  10.261 -0.0868 -0.0766 -0.1410
  355loPI   GL2 5670   9.552  17.419  10.255 -0.1978  0.1633  0.0747
  355loPI   C1A 5671   9.046  17.232   9.860 -0.1622  0.2467  0.0852
  355loPI   C2A 5672   9.065  17.241   9.474 -0.1023 -0.2357 -0.4328
  355loPI   C3A 5673   9.107  17.154   9.059 -0.1803  0.1905  0.0291
  355loPI   C4A 5674   9.096  17.114   8.643 -0.2456 -0.1170  0.1111
  355loPI   C5A 5675   9.150  16.822   8.314 -0.0634 -0.0487  0.1058
  355loPI   C6A 5676   9.266  16.446   7.986 -0.2574  0.1000  0.2235
  355loPI   C1B 5677   9.439  17.630   9.949  0.0621 -0.3514  0.0505
  355loPI   C2B 5678   9.494  17.553   9.510  0.1690  0.0287  0.0314
  355loPI   C3B 5679   9.487  17.499   9.085 -0.1517  0.2509 -0.3811
  355loPI   C4B 5680   9.512  17.495   8.761 -0.1743  0.0576  0.0778
  356loPI    C1 5681   2.884   6.802  10.917  0.4313  0.0248  0.1802
  356loPI    C2 5682   2.484   6.790  10.899  0.4336  0.0035  0.1427
  356loPI    C3 5683   2.666   6.879  11.244  0.4037 -0.3598  0.2566
  356loPI   PO4 5684   2.912   7.001  10.676  0.3617  0.1897 -0.1794
  356loPI   GL1 5685   2.698   7.201  10.320 -0.0209 -0.0443 -0.1165
  356loPI   GL2 5686   2.435   7.407  10.398 -0.3976 -0.0204 -0.1069
  356loPI   C1A 5687   2.882   7.163   9.933  0.3207  0.2273  0.0179
  356loPI   C2A 5688   2.887   7.260   9.423  0.0694  0.1256  0.2742
  356loPI   C3A 5689   2.902   7.222   9.016 -0.0114 -0.1582  0.1913
  356loPI   C4A 5690   2.927   7.243   8.503  0.2314 -0.0450 -0.2433
  356loPI   C5A 5691   2.911   7.146   8.190 -0.0738  0.2977  0.0880
  356loPI   C6A 5692   2.631   6.884   8.096  0.3092  0.0517 -0.0810
  356loPI   C1B 5693   2.345   7.342  10.008  0.2165 -0.2965 -0.1012
  356loPI   C2B 5694   2.356   7.369   9.539 -0.1339  0.0532 -0.0079
  356loPI   C3B 5695   2.440   7.431   9.101  0.0890 -0.0179  0.0112
  356loPI   C4B 5696   2.255   7.450   8.688 -0.0054 -0.0448 -0.4303
  357loPI    C1 5697   8.760   3.686  10.492  0.0995  0.0491 -0.0043
  357loPI    C2 5698   8.361   3.699  10.504  0.1058  0.1542  0.1125
  357loPI    C3 5699   8.574   3.812  10.823  0.2253 -0.1176  0.1320
  357loPI   PO4 5700   8.797   3.590  10.245 -0.1648 -0.0465  0.1011
  357loPI   GL1 5701   8.511   3.448  10.069 -0.3386 -0.0064 -0.1348
  357loPI   GL2 5702   8.185   3.445  10.045 -0.1380 -0.0318 -0.0679
  357loPI   C1A 5703   8.669   3.360   9.644  0.1443 -0.0716  0.1763
  357loPI   C2A 5704   8.685   3.377   9.189  0.1025 -0.1073 -0.0081
  357loPI   C3A 5705   8.880   3.389   8.753  0.1848 -0.0314 -0.1952
  357loPI   C4A 5706   8.850   3.264   8.330 -0.1253  0.1056 -0.0025
  357loPI   C5A 5707   8.863   3.107   7.898 -0.3956  0.0626  0.2836
  357loPI   C6A 5708   8.665   2.969   7.509  0.2240  0.0513 -0.1013
  357loPI   C1B 5709   8.137   3.495   9.625  0.0214 -0.0430 -0.1964
  357loPI   C2B 5710   8.256   3.529   9.159  0.1296 -0.4000 -0.0969
  357loPI   C3B 5711   8.376   3.511   8.778 -0.1961 -0.0704 -0.0734
  357loPI   C4B 5712   8.396   3.463   8.396  0.0311  0.2612  0.2191
  358loPI    C1 5713  17.114  13.053  11.171 -0.2179  0.2701  0.2159
  358loPI    C2 5714  17.488  13.126  11.290 -0.0930 -0.0089  0.0065
  358loPI    C3 5715  17.225  12.966  11.545  0.0101 -0.0738  0.0731
  358loPI   PO4 5716  17.142  12.923  10.949 -0.1636 -0.1767 -0.1037
  358loPI   GL1 5717  17.378  12.605  10.718 -0.1068 -0.1793  0.1362
  358loPI   GL2 5718  16.993  12.568  10.711  0.1482 -0.0183  0.0397
  358loPI   C1A 5719  17.244  12.763  10.326  0.1998  0.0243  0.2873
  358loPI   C2A 5720  17.327  12.825   9.832  0.3232 -0.1507  0.3631
  358loPI   C3A 5721  17.256  12.846   9.419 -0.1382 -0.2059  0.0176
  358loPI   C4A 5722  17.227  12.853   8.999  0.1022 -0.0208 -0.3659
  358loPI   C5A 5723  17.129  12.766   8.651  0.0493  0.1805  0.0363
  358loPI   C6A 5724  17.312  12.967   8.296 -0.1350 -0.2679 -0.0742
  358loPI   C1B 5725  16.836  12.443  10.329  0.1686 -0.1532  0.0006
  358loPI   C2B 5726  16.917  12.519   9.887  0.1010 -0.1689  0.0973
  358loPI   C3B 5727  16.833  12.515   9.477  0.0431  0.3989 -0.1048
  358loPI   C4B 5728  16.838  12.413   9.001  0.1220 -0.0254 -0.0688
  359loPI    C1 5729   4.704  10.719  11.352 -0.1178  0.1051  0.0552
  359loPI    C2 5730   4.961  10.443  11.220 -0.1311  0.0229  0.1992
  359loPI    C3 5731   4.601  10.333  11.355 -0.2538  0.1401 -0.0256
  359loPI   PO4 5732   4.692  10.916  11.133 -0.1459 -0.1957 -0.0977
  359loPI   GL1 5733   4.583  10.944  10.621  0.0452 -0.1903 -0.2747
  359loPI   GL2 5734   4.782  11.169  10.445  0.2799 -0.6453 -0.1478
  359loPI   C1A 5735   4.410  10.960  10.181 -0.4118  0.4004 -0.2452
  359loPI   C2A 5736   4.346  10.986   9.775  0.0582  0.0692  0.0061
  359loPI   C3A 5737   4.239  10.986   9.500 -0.1820 -0.0010 -0.1767
  359loPI   C4A 5738   4.337  11.079   9.079  0.1203 -0.0146 -0.3643
  359loPI   C5A 5739   4.270  11.049   8.723  0.0645  0.2298 -0.0224
  359loPI   C6A 5740   4.273  10.927   8.291  0.3149  0.2680  0.1723
  359loPI   C1B 5741   4.765  11.262   9.995  0.0285  0.0416  0.3648
  359loPI   C2B 5742   4.699  11.297   9.595  0.0394 -0.0490  0.0928
  359loPI   C3B 5743   4.702  11.380   9.267 -0.0267  0.1959 -0.1939
  359loPI   C4B 5744   4.673  11.354   8.803  0.1229  0.1237 -0.1936
  360loPI    C1 5745   0.547  15.689  11.502  0.4515  0.0415  0.0227
  360loPI    C2 5746   0.425  15.496  11.830 -0.2158  0.2039 -0.1140
  360loPI    C3 5747   0.654  15.823  11.863 -0.0256  0.0464  0.1699
  360loPI   PO4 5748   0.575  15.477  11.326  0.0771  0.3943  0.0931
  360loPI   GL1 5749   0.535  15.398  10.904 -0.1720  0.0848  0.2771
  360loPI   GL2 5750   0.732  15.166  10.669  0.0354 -0.2227  0.1304
  360loPI   C1A 5751   0.682  15.646  10.501  0.2005  0.1013  0.1013
  360loPI   C2A 5752   0.709  15.597  10.044  0.1121 -0.0162 -0.1202
  360loPI   C3A 5753   0.684  15.643   9.611 -0.1561  0.1943 -0.2124
  360loPI   C4A 5754   0.782  15.572   9.256 -0.1898 -0.1000 -0.1896
  360loPI   C5A 5755   0.830  15.511   8.875 -0.1165  0.2815 -0.2879
  360loPI   C6A 5756   1.091  15.247   8.642 -0.3017 -0.0434  0.1291
  360loPI   C1B 5757   0.810  15.141  10.241 -0.1123  0.0453  0.2578
  360loPI   C2B 5758   0.843  15.147   9.832  0.0559  0.0495  0.1018
  360loPI   C3B 5759   0.977  15.075   9.413 -0.0573 -0.1314 -0.0718
  360loPI   C4B 5760   0.788  15.003   8.993 -0.1929 -0.2071 -0.0201
  361loPI    C1 5761   3.394  13.783  11.375 -0.1602  0.4084  0.1490
  361loPI    C2 5762   3.226  13.563  11.664  0.0135 -0.0347 -0.0770
  361loPI    C3 5763   3.484  13.853  11.758 -0.0845 -0.0403  0.2191
  361loPI   PO4 5764   3.408  13.644  11.156  0.0644  0.2362 -0.0751
  361loPI   GL1 5765   3.404  13.458  10.745  0.2922 -0.0555  0.0425
  361loPI   GL2 5766   3.266  13.703  10.490 -0.0043  0.0796 -0.0451
  361loPI   C1A 5767   3.485  13.184  10.474 -0.1317  0.1455  0.0128
  361loPI   C2A 5768   3.411  13.148  10.092 -0.4556 -0.1248  0.0000
  361loPI   C3A 5769   3.442  13.206   9.655 -0.0049  0.1519 -0.1553
  361loPI   C4A 5770   3.450  13.160   9.177 -0.1487 -0.2975 -0.1995
  361loPI   C5A 5771   3.409  13.185   8.784  0.0181  0.1263 -0.0728
  361loPI   C6A 5772   3.279  13.555   8.558  0.0235  0.5595  0.1676
  361loPI   C1B 5773   3.395  13.704  10.194 -0.0127 -0.3575 -0.0421
  361loPI   C2B 5774   3.358  13.720   9.785 -0.0031 -0.1473 -0.1373
  361loPI   C3B 5775   3.371  13.662   9.377  0.1606 -0.1516 -0.3174
  361loPI   C4B 5776   3.361  13.759   9.029  0.2712  0.1903 -0.0619
  362loPI    C1 5777   9.804  13.885  10.629 -0.3713  0.3740 -0.1716
  362loPI    C2 5778   9.619  14.113  10.901 -0.1746  0.2360  0.0828
  362loPI    C3 5779  10.016  14.133  10.861 -0.1712  0.0407  0.0089
  362loPI   PO4 5780   9.683  13.932  10.354 -0.0696 -0.1077 -0.2143
  362loPI   GL1 5781   9.737  13.983   9.963 -0.0228  0.0792  0.1546
  362loPI   GL2 5782   9.927  14.280   9.960  0.1137  0.0100 -0.0518
  362loPI   C1A 5783   9.555  14.067   9.585 -0.2122 -0.3788 -0.0697
  362loPI   C2A 5784   9.615  13.912   9.133  0.1028  0.0981  0.2458
  362loPI   C3A 5785   9.592  13.949   8.705  0.1626  0.0987 -0.1604
  362loPI   C4A 5786   9.665  14.141   8.296  0.0226 -0.2026 -0.0845
  362loPI   C5A 5787   9.615  14.363   7.953 -0.2123  0.1388  0.1558
  362loPI   C6A 5788   9.247  14.361   7.633  0.0632 -0.0573  0.0345
  362loPI   C1B 5789  10.016  14.295   9.518  0.1469 -0.0980  0.0243
  362loPI   C2B 5790  10.029  14.415   8.978  0.0001  0.2104  0.1277
  362loPI   C3B 5791  10.013  14.386   8.610  0.3090  0.0021 -0.4309
  362loPI   C4B 5792  10.065  14.328   8.120 -0.1700 -0.0205 -0.0479
  363loPI    C1 5793  11.414   7.930  10.507 -0.0543  0.1354 -0.1122
  363loPI    C2 5794  11.646   7.774  10.793 -0.0975  0.1303 -0.0799
  363loPI    C3 5795  11.812   7.943  10.472 -0.0508 -0.1220 -0.1913
  363loPI   PO4 5796  11.194   7.756  10.264 -0.0097  0.0094  0.0281
  363loPI   GL1 5797  11.227   7.564   9.840 -0.1564  0.2005  0.0937
  363loPI   GL2 5798  11.293   7.141   9.709 -0.0095  0.3589 -0.0110
  363loPI   C1A 5799  11.143   7.715   9.339 -0.0307  0.3273 -0.1165
  363loPI   C2A 5800  11.204   7.823   8.903 -0.1604  0.0682 -0.2834
  363loPI   C3A 5801  11.254   7.683   8.523 -0.2244 -0.2305 -0.1062
  363loPI   C4A 5802  11.249   7.755   8.147  0.1994  0.0789  0.1380
  363loPI   C5A 5803  11.334   8.059   7.841  0.0408 -0.1152  0.1614
  363loPI   C6A 5804  11.177   8.484   7.739  0.1944  0.1904  0.0512
  363loPI   C1B 5805  11.313   7.221   9.211  0.3683 -0.0646 -0.0820
  363loPI   C2B 5806  11.313   7.213   8.708 -0.1227 -0.3402 -0.2894
  363loPI   C3B 5807  11.285   7.241   8.280 -0.1398 -0.1010  0.1395
  363loPI   C4B 5808  11.293   7.266   7.850 -0.0932 -0.0629 -0.1485
  364loPI    C1 5809  10.840   1.608  10.957  0.0811 -0.0824 -0.1746
  364loPI    C2 5810  10.455   1.682  10.880  0.1657  0.2817 -0.2680
  364loPI    C3 5811  10.569   1.580  11.249 -0.0440 -0.0247 -0.2842
  364loPI   PO4 5812  10.922   1.361  10.740  0.3353  0.0484 -0.0642
  364loPI   GL1 5813  10.832   1.383  10.337 -0.1546 -0.1606  0.0728
  364loPI   GL2 5814  11.148   1.309  10.153  0.0004  0.0398  0.2054
  364loPI   C1A 5815  10.597   1.466  10.042 -0.2579 -0.1282 -0.4040
  364loPI   C2A 5816  10.416   1.419   9.692 -0.2365 -0.0403 -0.0107
  364loPI   C3A 5817  10.459   1.439   9.329 -0.0150  0.1874  0.1252
  364loPI   C4A 5818  10.478   1.352   8.925  0.0307 -0.3145 -0.2305
  364loPI   C5A 5819  10.501   1.266   8.495 -0.1784 -0.0748 -0.1864
  364loPI   C6A 5820  10.632   1.229   8.148 -0.0062 -0.1880 -0.0964
  364loPI   C1B 5821  11.080   1.160   9.661  0.0147 -0.1892 -0.2069
  364loPI   C2B 5822  10.952   1.236   9.176  0.1224 -0.2133 -0.1433
  364loPI   C3B 5823  10.965   1.191   8.798 -0.2570 -0.2019 -0.1489
  364loPI   C4B 5824  11.101   1.087   8.307  0.0345 -0.2340  0.0608
  365loPI    C1 5825  13.207   3.810  10.550 -0.1079 -0.0597 -0.1797
  365loPI    C2 5826  13.114   4.081  10.829  0.1991 -0.0377 -0.0949
  365loPI    C3 5827  13.367   3.783  10.916  0.0791 -0.1924 -0.2693
  365loPI   PO4 5828  13.209   3.929  10.318 -0.0204  0.2803  0.3262
  365loPI   GL1 5829  13.025   3.680  10.005  0.1781 -0.0058  0.2387
  365loPI   GL2 5830  12.795   3.995   9.980  0.4623 -0.2191 -0.2690
  365loPI   C1A 5831  12.953   3.464   9.646 -0.3081  0.1510 -0.0556
  365loPI   C2A 5832  12.876   3.237   9.293  0.2186  0.1848 -0.2743
  365loPI   C3A 5833  12.908   3.305   8.865 -0.1988  0.4052 -0.0460
  365loPI   C4A 5834  13.055   3.252   8.486  0.0139 -0.2346 -0.1645
  365loPI   C5A 5835  13.055   3.158   8.052  0.0099  0.1553  0.0085
  365loPI   C6A 5836  13.140   2.800   7.826  0.0839 -0.0008  0.1605
  365loPI   C1B 5837  12.733   3.871   9.526 -0.3057 -0.0298 -0.1011
  365loPI   C2B 5838  12.836   3.814   9.006  0.1466  0.0362 -0.4817
  365loPI   C3B 5839  12.876   3.887   8.621 -0.2517 -0.1260 -0.0672
  365loPI   C4B 5840  12.887   3.699   8.262 -0.0481 -0.0500 -0.0851
  366loPI    C1 5841  12.314  16.183  10.776 -0.0041  0.0906  0.0804
  366loPI    C2 5842  12.525  16.521  10.809  0.2547 -0.0708  0.1028
  366loPI    C3 5843  12.681  16.174  10.933 -0.0318 -0.1915  0.1343
  366loPI   PO4 5844  11.998  16.394  10.720  0.0221 -0.0150 -0.1532
  366loPI   GL1 5845  11.765  16.410  10.239  0.0312 -0.0316 -0.3974
  366loPI   GL2 5846  11.971  16.089  10.076 -0.0769  0.1736 -0.1658
  366loPI   C1A 5847  11.888  16.615   9.927 -0.0310 -0.0178 -0.2746
  366loPI   C2A 5848  11.887  16.609   9.428  0.2084  0.2438  0.1914
  366loPI   C3A 5849  11.835  16.606   9.028 -0.3508  0.0772  0.0440
  366loPI   C4A 5850  11.889  16.556   8.591  0.0913 -0.2456 -0.0050
  366loPI   C5A 5851  11.919  16.393   8.106  0.0043  0.0330 -0.3187
  366loPI   C6A 5852  12.232  16.376   7.791  0.0500  0.1656  0.4038
  366loPI   C1B 5853  11.919  16.194   9.652 -0.0530 -0.0163  0.1025
  366loPI   C2B 5854  11.989  15.993   9.277 -0.1283  0.2224 -0.2913
  366loPI   C3B 5855  12.055  15.968   8.837 -0.2642  0.1690 -0.0065
  366loPI   C4B 5856  12.001  16.025   8.428 -0.2507  0.1649  0.0367
  367loPI    C1 5857   8.287   1.354  10.902  0.1516 -0.1100 -0.0217
  367loPI    C2 5858   8.621   1.488  11.076 -0.0912  0.2616  0.1720
  367loPI    C3 5859   8.299   1.404  11.298 -0.0968 -0.2066  0.0002
  367loPI   PO4 5860   8.307   1.434  10.699  0.1309 -0.0440 -0.0310
  367loPI   GL1 5861   8.299   1.594  10.366  0.2823 -0.0390 -0.1877
  367loPI   GL2 5862   8.565   1.532  10.144  0.2394  0.0075  0.0677
  367loPI   C1A 5863   8.046   1.686   9.912  0.0902  0.1277  0.1131
  367loPI   C2A 5864   8.232   1.712   9.470 -0.0601 -0.3732 -0.1251
  367loPI   C3A 5865   8.189   1.779   8.978  0.1574  0.3596  0.1532
  367loPI   C4A 5866   8.183   1.856   8.589 -0.0837 -0.2323  0.1279
  367loPI   C5A 5867   8.045   1.674   8.232 -0.4733  0.0045 -0.2190
  367loPI   C6A 5868   7.753   1.547   8.046  0.0471 -0.0778 -0.1191
  367loPI   C1B 5869   8.646   1.523   9.688 -0.0645  0.2058 -0.1435
  367loPI   C2B 5870   8.612   1.460   9.266  0.3789 -0.1862  0.1232
  367loPI   C3B 5871   8.659   1.526   8.933  0.1617  0.2106 -0.0295
  367loPI   C4B 5872   8.631   1.515   8.549  0.0765 -0.3805  0.0489
  368loPI    C1 5873   1.406   6.082  10.728 -0.1131 -0.1879  0.0911
  368loPI    C2 5874   1.761   6.265  10.744 -0.2283  0.0409  0.0782
  368loPI    C3 5875   1.669   5.982  11.011 -0.0753  0.0515  0.1431
  368loPI   PO4 5876   1.347   6.067  10.499  0.0537 -0.1934 -0.0188
  368loPI   GL1 5877   1.681   6.103  10.239 -0.0315 -0.1428  0.1516
  368loPI   GL2 5878   1.964   6.041  10.361  0.0240 -0.1844 -0.1243
  368loPI   C1A 5879   1.663   6.230   9.755 -0.1849  0.1335 -0.0678
  368loPI   C2A 5880   1.687   6.299   9.282 -0.2268  0.3957  0.1106
  368loPI   C3A 5881   1.656   6.174   8.908  0.2061  0.1252 -0.2724
  368loPI   C4A 5882   1.734   6.235   8.500  0.0907 -0.1073  0.1297
  368loPI   C5A 5883   1.754   6.496   8.106  0.0925 -0.0931 -0.1118
  368loPI   C6A 5884   1.712   6.693   7.759 -0.2401  0.0956  0.1290
  368loPI   C1B 5885   2.152   6.076   9.856 -0.0440 -0.1289  0.2423
  368loPI   C2B 5886   2.211   6.066   9.351 -0.2081 -0.2173 -0.0584
  368loPI   C3B 5887   2.221   6.020   8.910 -0.0137 -0.1981 -0.3448
  368loPI   C4B 5888   2.307   6.107   8.456 -0.1725  0.2393  0.2272
  369loPI    C1 5889   1.974   3.635  10.380 -0.0568 -0.1190  0.0489
  369loPI    C2 5890   1.815   3.543  10.025 -0.1846 -0.1438  0.1119
  369loPI    C3 5891   1.743   3.900  10.189 -0.1222 -0.1308  0.1112
  369loPI   PO4 5892   2.300   3.498  10.327  0.0464  0.1049  0.0726
  369loPI   GL1 5893   2.519   3.305  10.077  0.1784  0.4081  0.0852
  369loPI   GL2 5894   2.300   3.243   9.881  0.0036  0.2297  0.0229
  369loPI   C1A 5895   2.725   3.513   9.763  0.4186 -0.0320  0.0459
  369loPI   C2A 5896   2.764   3.577   9.324 -0.1435  0.0428  0.0653
  369loPI   C3A 5897   2.680   3.584   8.892 -0.2936 -0.2511 -0.0087
  369loPI   C4A 5898   2.780   3.481   8.519 -0.2726  0.0212 -0.0858
  369loPI   C5A 5899   2.761   3.478   8.071 -0.1691 -0.1929 -0.2266
  369loPI   C6A 5900   2.798   3.787   7.710 -0.0259  0.0158 -0.3472
  369loPI   C1B 5901   2.391   3.238   9.512  0.1970 -0.5235  0.1584
  369loPI   C2B 5902   2.380   3.182   9.085  0.0691  0.4350  0.0975
  369loPI   C3B 5903   2.342   3.268   8.670 -0.0059 -0.0285 -0.1352
  369loPI   C4B 5904   2.350   3.225   8.215  0.0355 -0.0891 -0.3897
  370loPI    C1 5905   9.762   5.397  10.521  0.2284 -0.1408 -0.0087
  370loPI    C2 5906   9.378   5.337  10.617  0.2304 -0.0687  0.0450
  370loPI    C3 5907   9.649   5.401  10.905  0.2946 -0.1882  0.0114
  370loPI   PO4 5908   9.763   5.222  10.338 -0.2412  0.0514  0.2582
  370loPI   GL1 5909   9.662   5.058   9.951  0.1580 -0.0611  0.0743
  370loPI   GL2 5910   9.953   5.183   9.825  0.1695  0.3353 -0.0074
  370loPI   C1A 5911   9.674   4.910   9.530 -0.3873 -0.1932 -0.4514
  370loPI   C2A 5912   9.816   4.943   9.146 -0.5075 -0.0961 -0.1427
  370loPI   C3A 5913   9.933   4.844   8.720  0.1142 -0.2099  0.0690
  370loPI   C4A 5914   9.855   4.874   8.357  0.0312  0.0118  0.2209
  370loPI   C5A 5915   9.831   4.809   7.912  0.2830 -0.2806  0.3372
  370loPI   C6A 5916   9.889   4.590   7.450 -0.0158 -0.1198  0.1176
  370loPI   C1B 5917  10.101   5.292   9.413  0.1790  0.2423 -0.0391
  370loPI   C2B 5918  10.182   5.301   8.989  0.0779 -0.0819 -0.1932
  370loPI   C3B 5919  10.240   5.190   8.536 -0.0881  0.0001  0.1111
  370loPI   C4B 5920  10.315   5.031   8.136  0.2343 -0.2203  0.2075
  371loPI    C1 5921  11.413   0.762  10.728 -0.0630  0.1993 -0.2336
  371loPI    C2 5922  11.586   0.795  11.087  0.1787 -0.2516 -0.3016
  371loPI    C3 5923  11.333   1.077  10.961  0.2744  0.0324  0.1203
  371loPI   PO4 5924  11.479   0.677  10.607 -0.0962  0.3678 -0.0817
  371loPI   GL1 5925  11.694   0.752  10.250 -0.2316  0.2279  0.0654
  371loPI   GL2 5926  11.969   0.629  10.154  0.1529  0.0257  0.2096
  371loPI   C1A 5927  11.523   0.931   9.878  0.0070 -0.0227  0.0608
  371loPI   C2A 5928  11.454   0.936   9.434  0.1676  0.1307  0.1890
  371loPI   C3A 5929  11.494   0.922   9.030  0.1169  0.0224 -0.0739
  371loPI   C4A 5930  11.463   0.968   8.623 -0.1820 -0.1852  0.1324
  371loPI   C5A 5931  11.561   0.815   8.245  0.1686  0.2494 -0.0098
  371loPI   C6A 5932  11.373   0.595   7.960 -0.1919  0.1185 -0.1841
  371loPI   C1B 5933  11.940   0.744   9.654  0.1080  0.2695  0.2556
  371loPI   C2B 5934  12.011   0.823   9.126 -0.3609  0.1694 -0.1985
  371loPI   C3B 5935  11.992   0.757   8.740  0.0204 -0.1057 -0.2514
  371loPI   C4B 5936  12.002   0.591   8.308  0.2679  0.0388 -0.1975
  372loPI    C1 5937  11.520   4.465  10.243  0.2493  0.1493 -0.2131
  372loPI    C2 5938  11.546   4.519  10.639 -0.4635 -0.0903 -0.1184
  372loPI    C3 5939  11.706   4.788  10.390  0.1868 -0.0467  0.3208
  372loPI   PO4 5940  11.325   4.421  10.177  0.2533  0.3927 -0.0388
  372loPI   GL1 5941  11.318   4.524   9.722 -0.2404 -0.0430 -0.1881
  372loPI   GL2 5942  11.547   4.304   9.731 -0.1787 -0.0921 -0.0431
  372loPI   C1A 5943  11.354   4.378   9.214 -0.1163  0.0286 -0.2177
  372loPI   C2A 5944  11.415   4.371   8.777  0.1674  0.2573 -0.1645
  372loPI   C3A 5945  11.399   4.324   8.411 -0.0733 -0.1937  0.3053
  372loPI   C4A 5946  11.534   4.317   7.982 -0.3102  0.0130 -0.0456
  372loPI   C5A 5947  11.796   4.396   7.674 -0.0400 -0.0163 -0.0966
  372loPI   C6A 5948  12.100   4.703   7.411  0.0396  0.1679 -0.1022
  372loPI   C1B 5949  11.790   4.155   9.318  0.0383  0.3505  0.1596
  372loPI   C2B 5950  11.868   4.039   8.784 -0.1039 -0.1147  0.0725
  372loPI   C3B 5951  11.910   4.102   8.297  0.2332  0.1314 -0.1736
  372loPI   C4B 5952  11.976   4.001   7.931 -0.2449  0.1083 -0.1244
  373loPI    C1 5953  14.755   2.346  11.014 -0.0684 -0.1359 -0.1274
  373loPI    C2 5954  15.073   2.360  11.257 -0.0943  0.1499 -0.1075
  373loPI    C3 5955  14.851   2.028  11.238  0.1932 -0.0455 -0.1077
  373loPI   PO4 5956  14.802   2.365  10.781 -0.3911  0.3197 -0.2701
  373loPI   GL1 5957  14.743   2.394  10.364  0.1434  0.2049 -0.2585
  373loPI   GL2 5958  14.428   2.311  10.106 -0.1213  0.4546 -0.0807
  373loPI   C1A 5959  14.977   2.149  10.009 -0.1010 -0.0988  0.0855
  373loPI   C2A 5960  15.057   2.104   9.526  0.0599  0.1167  0.1213
  373loPI   C3A 5961  15.080   2.031   9.043 -0.3505 -0.0797  0.0957
  373loPI   C4A 5962  15.012   2.073   8.696 -0.0886 -0.2841  0.2095
  373loPI   C5A 5963  15.190   1.807   8.298 -0.0872 -0.0166 -0.2599
  373loPI   C6A 5964  15.516   1.682   8.012  0.1533 -0.4210  0.3911
  373loPI   C1B 5965  14.533   2.310   9.630  0.1785  0.0751  0.0744
  373loPI   C2B 5966  14.496   2.349   9.192 -0.1286 -0.3497 -0.1445
  373loPI   C3B 5967  14.513   2.331   8.774  0.2305 -0.0962  0.0978
  373loPI   C4B 5968  14.477   2.308   8.338 -0.1610 -0.0719 -0.1602
  374loPI    C1 5969  15.871   0.287  10.686  0.2267 -0.1062  0.3578
  374loPI    C2 5970  15.923   0.257  11.082  0.1297  0.0567  0.3838
  374loPI    C3 5971  16.017   0.597  10.893  0.3667 -0.0893  0.2346
  374loPI   PO4 5972  15.961   0.070  10.538 -0.1131  0.3822 -0.1376
  374loPI   GL1 5973  15.945  -0.123  10.207  0.3789  0.1589 -0.3601
  374loPI   GL2 5974  15.946   0.172  10.024 -0.5365 -0.0003  0.1022
  374loPI   C1A 5975  16.100  -0.414   9.879 -0.1516  0.0422  0.2353
  374loPI   C2A 5976  16.219  -0.370   9.452  0.2386  0.2306 -0.0083
  374loPI   C3A 5977  16.213  -0.467   9.064 -0.0352 -0.2850  0.0696
  374loPI   C4A 5978  16.307  -0.747   8.823 -0.0328  0.1974  0.3309
  374loPI   C5A 5979  16.390  -0.897   8.329 -0.0008 -0.0919  0.1158
  374loPI   C6A 5980  16.174  -1.214   8.062 -0.1213 -0.1058 -0.0835
  374loPI   C1B 5981  15.859   0.086   9.669 -0.0691  0.0774 -0.2497
  374loPI   C2B 5982  15.920   0.047   9.216  0.0792  0.2427  0.0431
  374loPI   C3B 5983  15.896  -0.079   8.981  0.2743 -0.0859  0.2187
  374loPI   C4B 5984  15.822  -0.194   8.550  0.0583 -0.1143  0.0977
  375loPI    C1 5985  12.553   5.161  10.404 -0.0637  0.1178  0.0419
  375loPI    C2 5986  12.417   5.444  10.651 -0.1296  0.2462 -0.1391
  375loPI    C3 5987  12.249   5.396  10.291  0.2233  0.3279 -0.3194
  375loPI   PO4 5988  12.776   5.184  10.365 -0.3412 -0.0397  0.1472
  375loPI   GL1 5989  13.109   5.081  10.177 -0.0333  0.2521 -0.1975
  375loPI   GL2 5990  13.477   5.227  10.172  0.2532  0.7350 -0.0689
  375loPI   C1A 5991  13.090   5.150   9.629 -0.2398 -0.3012 -0.1674
  375loPI   C2A 5992  13.057   5.229   9.246 -0.0917  0.2240  0.0777
  375loPI   C3A 5993  13.094   5.170   8.905 -0.0980  0.1696 -0.3359
  375loPI   C4A 5994  13.057   5.059   8.499 -0.2889 -0.1020 -0.2333
  375loPI   C5A 5995  13.084   4.964   8.093 -0.2684  0.3231 -0.1278
  375loPI   C6A 5996  12.969   5.001   7.636  0.2668  0.2225  0.2263
  375loPI   C1B 5997  13.585   5.419   9.773  0.3533 -0.0404 -0.0899
  375loPI   C2B 5998  13.552   5.477   9.420  0.1051 -0.0931 -0.1931
  375loPI   C3B 5999  13.423   5.568   9.075 -0.0426  0.0769  0.2856
  375loPI   C4B 6000  13.433   5.519   8.673  0.0561  0.0496  0.0042
  376loPI    C1 6001   2.447   9.393  11.265  0.0665 -0.0492 -0.3144
  376loPI    C2 6002   2.514   9.082  11.022 -0.1536 -0.1655 -0.2298
  376loPI    C3 6003   2.708   9.109  11.371  0.1282 -0.0224 -0.3937
  376loPI   PO4 6004   2.506   9.603  11.143  0.3493  0.0452 -0.1056
  376loPI   GL1 6005   2.642   9.655  10.666  0.1218 -0.2032  0.0755
  376loPI   GL2 6006   2.378   9.842  10.660  0.1231  0.2809  0.3779
  376loPI   C1A 6007   2.784   9.513  10.274 -0.1547 -0.2638 -0.2216
  376loPI   C2A 6008   2.821   9.586   9.903 -0.0309 -0.2574  0.0658
  376loPI   C3A 6009   2.792   9.667   9.513  0.0606 -0.0400 -0.0213
  376loPI   C4A 6010   2.735   9.617   9.127  0.1548  0.0885  0.0535
  376loPI   C5A 6011   2.829   9.627   8.745 -0.1073  0.1346  0.1192
  376loPI   C6A 6012   2.989   9.760   8.377  0.0447  0.0022 -0.1789
  376loPI   C1B 6013   2.324   9.697  10.248  0.4220  0.1923  0.0998
  376loPI   C2B 6014   2.191   9.702   9.870  0.1648 -0.3330 -0.2269
  376loPI   C3B 6015   2.311   9.816   9.486 -0.1432  0.0217  0.1142
  376loPI   C4B 6016   2.239   9.718   9.052 -0.0642 -0.0754 -0.1058
  377loPI    C1 6017  18.040   2.756  10.403  0.1543  0.1361 -0.1398
  377loPI    C2 6018  18.158   2.631  10.765 -0.0882 -0.0447 -0.1201
  377loPI    C3 6019  18.128   3.023  10.688 -0.0821 -0.0057  0.0705
  377loPI   PO4 6020  17.849   2.670  10.331 -0.1718 -0.0800 -0.1253
  377loPI   GL1 6021  17.785   2.799   9.839  0.2570 -0.1109  0.0282
  377loPI   GL2 6022  17.625   2.496   9.859  0.1306  0.2708  0.3166
  377loPI   C1A 6023  17.975   2.856   9.516 -0.0900  0.0699  0.0472
  377loPI   C2A 6024  18.350   2.942   9.421  0.1250 -0.0012 -0.5553
  377loPI   C3A 6025  18.481   3.107   9.065 -0.1952 -0.4722 -0.1230
  377loPI   C4A 6026  18.600   3.290   8.714  0.0798 -0.1182  0.0374
  377loPI   C5A 6027  18.684   3.134   8.301  0.0033 -0.3575  0.0130
  377loPI   C6A 6028  19.015   3.306   8.060 -0.1309  0.0178 -0.2543
  377loPI   C1B 6029  17.648   2.409   9.412 -0.3018 -0.1467  0.0220
  377loPI   C2B 6030  17.703   2.442   8.950  0.3064  0.1862  0.1588
  377loPI   C3B 6031  17.838   2.624   8.390 -0.0366  0.1457 -0.1486
  377loPI   C4B 6032  18.092   2.652   8.126  0.1562  0.0442  0.1055
  378loPI    C1 6033   8.107   9.402  10.516  0.0070 -0.0633  0.0143
  378loPI    C2 6034   7.912   9.067  10.418  0.2192 -0.1940  0.0316
  378loPI    C3 6035   7.974   9.157  10.803  0.0189 -0.0493  0.0318
  378loPI   PO4 6036   8.205   9.470  10.279 -0.0172  0.2229 -0.0054
  378loPI   GL1 6037   8.076   9.271   9.880  0.0783 -0.2293  0.1555
  378loPI   GL2 6038   8.268   9.438   9.739 -0.1520 -0.0274 -0.2043
  378loPI   C1A 6039   7.855   9.333   9.569 -0.2682 -0.1465 -0.2605
  378loPI   C2A 6040   7.935   9.347   9.178 -0.0760 -0.0440 -0.0430
  378loPI   C3A 6041   7.903   9.301   8.650 -0.0376 -0.3428  0.2133
  378loPI   C4A 6042   8.243   9.320   8.220  0.2288 -0.0308 -0.2498
  378loPI   C5A 6043   8.704   9.249   8.021  0.0182 -0.2405 -0.4378
  378loPI   C6A 6044   9.144   9.369   8.059 -0.1045 -0.0082 -0.0318
  378loPI   C1B 6045   8.369   9.512   9.376  0.1592  0.1327  0.1043
  378loPI   C2B 6046   8.373   9.573   8.916 -0.1991  0.4554 -0.2759
  378loPI   C3B 6047   8.274   9.695   8.537  0.2116  0.2133 -0.2409
  378loPI   C4B 6048   8.215   9.779   8.060 -0.1766  0.0843 -0.0712
  379loPI    C1 6049  15.548  11.534  10.975  0.0670  0.2507 -0.1710
  379loPI    C2 6050  15.900  11.666  11.111  0.0150  0.2083  0.0069
  379loPI    C3 6051  15.647  11.480  11.359 -0.0004 -0.0413 -0.1921
  379loPI   PO4 6052  15.554  11.760  10.762  0.0155  0.0953  0.3656
  379loPI   GL1 6053  15.643  12.000  10.416 -0.1487 -0.0419  0.1819
  379loPI   GL2 6054  15.654  12.285  10.403 -0.1659 -0.1126  0.0283
  379loPI   C1A 6055  15.497  12.086   9.970 -0.3237  0.2159 -0.0011
  379loPI   C2A 6056  15.557  12.044   9.559  0.2031 -0.1284 -0.0346
  379loPI   C3A 6057  15.530  11.956   9.198  0.1801  0.1663  0.1658
  379loPI   C4A 6058  15.564  11.890   8.794  0.0154  0.2034 -0.1248
  379loPI   C5A 6059  15.334  11.888   8.369  0.0834 -0.1484  0.1144
  379loPI   C6A 6060  15.043  12.135   8.209 -0.0708 -0.1852  0.1063
  379loPI   C1B 6061  15.531  12.608  10.156 -0.1406  0.2365 -0.0501
  379loPI   C2B 6062  15.433  12.590   9.820 -0.0092 -0.0550  0.1929
  379loPI   C3B 6063  15.415  12.495   9.359  0.1375 -0.0563  0.0353
  379loPI   C4B 6064  15.432  12.422   9.034 -0.0937  0.4689  0.1291
  380loPI    C1 6065   5.221   8.890  11.001 -0.0355 -0.0914 -0.0618
  380loPI    C2 6066   5.324   9.016  11.367 -0.3856  0.2323 -0.0688
  380loPI    C3 6067   5.084   8.699  11.325 -0.1160  0.0195 -0.0298
  380loPI   PO4 6068   5.110   9.101  10.792  0.0892  0.2460 -0.1300
  380loPI   GL1 6069   5.014   9.181  10.366 -0.0281 -0.1288 -0.1411
  380loPI   GL2 6070   4.786   9.226  10.424  0.1190 -0.1878  0.0785
  380loPI   C1A 6071   5.139   9.339   9.973 -0.0948  0.1451  0.0988
  380loPI   C2A 6072   5.120   9.381   9.491 -0.1194  0.1033 -0.1034
  380loPI   C3A 6073   5.189   9.428   9.122  0.0073  0.2192 -0.2135
  380loPI   C4A 6074   5.156   9.291   8.702 -0.0623  0.1636  0.1433
  380loPI   C5A 6075   5.018   9.204   8.308 -0.1345  0.0024  0.1849
  380loPI   C6A 6076   4.788   9.060   7.934  0.1005 -0.0798  0.1132
  380loPI   C1B 6077   4.751   9.056   9.975  0.3773 -0.1318  0.1770
  380loPI   C2B 6078   4.815   8.999   9.543 -0.0028 -0.0634  0.0403
  380loPI   C3B 6079   4.828   8.971   9.106  0.0569  0.1240 -0.2906
  380loPI   C4B 6080   4.702   9.046   8.686 -0.2871  0.3094  0.2637
  381loPI    C1 6081   9.117  16.306  10.740  0.1489  0.0022 -0.0158
  381loPI    C2 6082   8.893  15.974  10.745 -0.0402  0.1305  0.2008
  381loPI    C3 6083   9.184  16.023  11.015  0.0603  0.0932  0.1002
  381loPI   PO4 6084   9.227  16.294  10.518 -0.1214  0.3765  0.1196
  381loPI   GL1 6085   9.384  16.453  10.131  0.1476 -0.2131 -0.0769
  381loPI   GL2 6086   9.128  16.706  10.100  0.0785 -0.1376 -0.1500
  381loPI   C1A 6087   9.595  16.615   9.878 -0.2070 -0.0299  0.0458
  381loPI   C2A 6088   9.643  16.504   9.535  0.1484  0.0791  0.0658
  381loPI   C3A 6089   9.668  16.503   9.180  0.0867 -0.0259  0.1142
  381loPI   C4A 6090   9.742  16.326   8.767  0.0010  0.0945  0.1751
  381loPI   C5A 6091   9.665  16.448   8.407  0.1389 -0.1919  0.0376
  381loPI   C6A 6092   9.771  16.330   7.973 -0.0155  0.1023  0.2612
  381loPI   C1B 6093   9.211  16.732   9.630 -0.1433 -0.0634 -0.3654
  381loPI   C2B 6094   9.190  16.649   9.225 -0.2355  0.0134  0.0079
  381loPI   C3B 6095   9.251  16.629   8.830 -0.4084 -0.1399  0.2147
  381loPI   C4B 6096   9.216  16.311   8.529 -0.0842 -0.0669  0.0744
  382loPI    C1 6097   5.272  10.801  10.962 -0.0244 -0.1713  0.0075
  382loPI    C2 6098   5.174  10.955  11.318  0.0176  0.0395 -0.0704
  382loPI    C3 6099   5.437  10.654  11.295 -0.0854 -0.0637  0.0860
  382loPI   PO4 6100   5.082  10.811  10.853  0.1235  0.2135  0.1218
  382loPI   GL1 6101   5.062  10.738  10.475  0.0287  0.1487  0.0893
  382loPI   GL2 6102   5.307  10.537  10.488 -0.1289  0.4625  0.0665
  382loPI   C1A 6103   4.895  10.785  10.127  0.0180 -0.1588  0.2033
  382loPI   C2A 6104   4.792  10.825   9.703 -0.2534  0.1906 -0.1147
  382loPI   C3A 6105   4.798  10.882   9.281 -0.0876  0.2101 -0.3658
  382loPI   C4A 6106   4.757  10.845   8.846 -0.1142  0.1555  0.0974
  382loPI   C5A 6107   4.845  11.007   8.440  0.2247  0.1669 -0.1482
  382loPI   C6A 6108   5.111  11.356   8.302  0.1972  0.0130 -0.1357
  382loPI   C1B 6109   5.320  10.598   9.925  0.0388 -0.2805  0.1307
  382loPI   C2B 6110   5.283  10.750   9.510  0.0495  0.1313 -0.0831
  382loPI   C3B 6111   5.246  10.567   9.149 -0.2577  0.0904 -0.0052
  382loPI   C4B 6112   5.248  10.677   8.714  0.3672 -0.0942 -0.5326
  383loPI    C1 6113   4.544   1.773  10.976  0.0900 -0.1503 -0.1129
  383loPI    C2 6114   4.675   2.086  10.764 -0.0332 -0.0626 -0.0605
  383loPI    C3 6115   4.544   2.139  11.138 -0.1163 -0.1663 -0.0744
  383loPI   PO4 6116   4.752   1.600  10.934  0.1301  0.2485 -0.0959
  383loPI   GL1 6117   4.772   1.451  10.545  0.1013  0.2179  0.0673
  383loPI   GL2 6118   4.869   1.756  10.464 -0.0182 -0.0953 -0.0238
  383loPI   C1A 6119   4.847   1.182  10.272  0.3235 -0.0618  0.1869
  383loPI   C2A 6120   4.936   1.132   9.955 -0.0998 -0.2909  0.1352
  383loPI   C3A 6121   4.963   1.222   9.393 -0.0989  0.1765  0.1340
  383loPI   C4A 6122   4.996   1.218   8.874 -0.3220  0.2558 -0.0626
  383loPI   C5A 6123   4.661   1.270   8.403 -0.0111 -0.2304  0.0247
  383loPI   C6A 6124   4.278   1.439   8.139 -0.0293  0.1239  0.1232
  383loPI   C1B 6125   4.919   1.642  10.011 -0.0535  0.4548 -0.0004
  383loPI   C2B 6126   4.884   1.700   9.636  0.2174 -0.0493 -0.0907
  383loPI   C3B 6127   4.836   1.767   9.184 -0.2116  0.1669 -0.2172
  383loPI   C4B 6128   4.917   1.725   8.753 -0.0038 -0.2102 -0.3766
  384loPI    C1 6129   6.508   4.356  11.031 -0.0360  0.0634 -0.0188
  384loPI    C2 6130   6.775   4.193  11.280 -0.0165 -0.0530 -0.1150
  384loPI    C3 6131   6.556   4.506  11.398  0.1537  0.0359 -0.0314
  384loPI   PO4 6132   6.668   4.336  10.820  0.0580 -0.1697 -0.0483
  384loPI   GL1 6133   6.904   4.118  10.476 -0.1585  0.0338  0.1474
  384loPI   GL2 6134   7.191   3.848  10.480  0.2601  0.3060  0.0552
  384loPI   C1A 6135   7.003   4.171   9.969  0.3076 -0.0407  0.2030
  384loPI   C2A 6136   7.114   4.269   9.480  0.4153 -0.3100 -0.0815
  384loPI   C3A 6137   7.116   4.263   9.016 -0.0058  0.2024  0.0755
  384loPI   C4A 6138   7.149   4.427   8.597 -0.0918 -0.2743  0.3346
  384loPI   C5A 6139   7.343   4.417   8.157  0.1382 -0.0925 -0.2411
  384loPI   C6A 6140   7.052   4.304   7.889  0.0536 -0.2338  0.0216
  384loPI   C1B 6141   7.240   3.693  10.024  0.1116 -0.3166  0.1748
  384loPI   C2B 6142   7.157   3.810   9.649 -0.0361 -0.0371  0.1986
  384loPI   C3B 6143   7.257   3.819   9.195 -0.2954  0.0587  0.2227
  384loPI   C4B 6144   7.330   3.909   8.774 -0.1680  0.1882  0.2055
  385loPI    C1 6145   5.427   0.857  11.130  0.0130  0.2993 -0.1337
  385loPI    C2 6146   5.339   0.722  11.496  0.2219 -0.1288 -0.2352
  385loPI    C3 6147   5.454   1.101  11.445 -0.0244 -0.0032  0.1086
  385loPI   PO4 6148   5.165   0.758  10.970  0.1045 -0.1715 -0.1511
  385loPI   GL1 6149   4.867   0.514  10.671  0.0385 -0.3062 -0.2434
  385loPI   GL2 6150   4.910   0.743  10.532 -0.2269 -0.1411 -0.2133
  385loPI   C1A 6151   4.598   0.390  10.300 -0.1102  0.2869  0.2944
  385loPI   C2A 6152   4.728   0.311   9.853  0.3053  0.1413 -0.0986
  385loPI   C3A 6153   4.752   0.388   9.426 -0.0589  0.1199  0.1082
  385loPI   C4A 6154   4.688   0.436   9.056 -0.2477 -0.3850 -0.5197
  385loPI   C5A 6155   4.793   0.447   8.563  0.2745  0.0780 -0.2042
  385loPI   C6A 6156   4.697   0.775   8.310 -0.0406  0.3982 -0.1316
  385loPI   C1B 6157   5.037   0.593  10.148  0.0977 -0.1292 -0.0952
  385loPI   C2B 6158   5.147   0.748   9.661  0.0930  0.1284 -0.0205
  385loPI   C3B 6159   5.033   0.771   9.236 -0.0510  0.3605  0.0275
  385loPI   C4B 6160   5.162   0.754   8.786  0.0063 -0.1425 -0.0389
  386loPI    C1 6161  16.903   1.593  10.838 -0.1166  0.0212 -0.0443
  386loPI    C2 6162  16.692   1.303  11.015  0.0874 -0.0924  0.0165
  386loPI    C3 6163  16.931   1.537  11.233  0.1100 -0.0367 -0.0673
  386loPI   PO4 6164  16.877   1.613  10.565 -0.0438 -0.3063  0.2015
  386loPI   GL1 6165  16.781   1.588  10.180 -0.0313 -0.1660  0.0833
  386loPI   GL2 6166  16.529   1.727  10.132  0.0283  0.3523  0.3122
  386loPI   C1A 6167  17.030   1.351   9.841 -0.0177 -0.1897  0.1230
  386loPI   C2A 6168  17.067   1.283   9.429  0.2429 -0.3357  0.0894
  386loPI   C3A 6169  16.931   1.488   9.122 -0.0771  0.2125 -0.0344
  386loPI   C4A 6170  16.941   1.382   8.751  0.2037 -0.2048  0.2277
  386loPI   C5A 6171  17.115   1.340   8.332 -0.0676  0.2949 -0.1124
  386loPI   C6A 6172  16.917   1.155   7.996 -0.1045 -0.0613 -0.0612
  386loPI   C1B 6173  16.456   1.454   9.769  0.0455  0.0232  0.2111
  386loPI   C2B 6174  16.445   1.505   9.332  0.0156 -0.0914  0.1260
  386loPI   C3B 6175  16.458   1.490   8.780  0.0520 -0.2399  0.1618
  386loPI   C4B 6176  16.600   1.433   8.367 -0.2536  0.1694  0.1706
  387loPI    C1 6177  11.084  10.007  10.814  0.0792  0.2106 -0.0280
  387loPI    C2 6178  11.133   9.670  11.023 -0.1703  0.1720 -0.0293
  387loPI    C3 6179  10.968   9.990  11.196 -0.2755  0.1750 -0.1339
  387loPI   PO4 6180  11.157  10.045  10.653  0.1137  0.1275  0.1859
  387loPI   GL1 6181  11.293   9.975  10.209 -0.1268 -0.0063 -0.0109
  387loPI   GL2 6182  11.082  10.139  10.114 -0.0720  0.4259 -0.0660
  387loPI   C1A 6183  11.251   9.967   9.698 -0.2372 -0.0838 -0.2429
  387loPI   C2A 6184  11.275  10.124   9.331 -0.0232  0.0760 -0.1314
  387loPI   C3A 6185  11.314  10.112   8.911  0.1969  0.2227 -0.1157
  387loPI   C4A 6186  11.364  10.148   8.458  0.2451 -0.3009  0.1507
  387loPI   C5A 6187  11.398  10.242   7.997  0.0811 -0.1419  0.0018
  387loPI   C6A 6188  11.199   9.961   7.676  0.1033  0.1574  0.3334
  387loPI   C1B 6189  10.827  10.237   9.750 -0.1341  0.3545  0.1929
  387loPI   C2B 6190  10.724  10.336   9.373  0.0982  0.0256  0.1365
  387loPI   C3B 6191  10.888  10.303   9.063 -0.0960 -0.0843  0.0648
  387loPI   C4B 6192  10.887  10.317   8.598 -0.0661  0.0610 -0.1211
  388loPI    C1 6193  11.075  17.389  11.018  0.2018 -0.1377 -0.0262
  388loPI    C2 6194  10.746  17.374  11.244  0.1894 -0.0421 -0.0377
  388loPI    C3 6195  10.964  17.710  11.230  0.4120 -0.1760  0.1465
  388loPI   PO4 6196  11.033  17.385  10.815 -0.1342  0.0085  0.0541
  388loPI   GL1 6197  11.026  17.333  10.392  0.2393 -0.4648  0.1972
  388loPI   GL2 6198  11.090  17.696  10.391  0.0937  0.3729 -0.3449
  388loPI   C1A 6199  10.796  17.529  10.000 -0.0531 -0.1787  0.1389
  388loPI   C2A 6200  10.761  17.475   9.613 -0.0036  0.1567 -0.0794
  388loPI   C3A 6201  10.869  17.405   9.191  0.0642  0.0905 -0.0678
  388loPI   C4A 6202  10.828  17.328   8.759 -0.0513  0.0834  0.0144
  388loPI   C5A 6203  10.826  17.434   8.331 -0.1611  0.0491  0.1811
  388loPI   C6A 6204  11.228  17.444   8.049 -0.2144  0.0429 -0.1442
  388loPI   C1B 6205  11.199  17.851   9.978 -0.0269  0.1548 -0.1604
  388loPI   C2B 6206  11.243  17.755   9.533 -0.2665 -0.2044  0.2679
  388loPI   C3B 6207  11.218  17.794   9.057 -0.0132  0.3586  0.0983
  388loPI   C4B 6208  11.247  17.665   8.655 -0.1772 -0.1232 -0.0714
  389loPI    C1 6209  17.612  13.665  11.581  0.3715 -0.0339 -0.0314
  389loPI    C2 6210  17.799  13.714  11.932 -0.0298  0.0649  0.1748
  389loPI    C3 6211  17.566  14.005  11.787 -0.1688 -0.1241  0.0120
  389loPI   PO4 6212  17.758  13.595  11.311 -0.3471  0.0408  0.1540
  389loPI   GL1 6213  17.737  13.695  10.849  0.2836  0.1798 -0.0722
  389loPI   GL2 6214  17.966  13.441  10.811 -0.1560 -0.0792 -0.1241
  389loPI   C1A 6215  17.632  13.692  10.412 -0.0990 -0.3348  0.3547
  389loPI   C2A 6216  17.542  13.604   9.993 -0.0189  0.1334  0.0310
  389loPI   C3A 6217  17.473  13.638   9.582 -0.1102  0.1041  0.2733
  389loPI   C4A 6218  17.534  13.684   9.202 -0.5166 -0.0104 -0.1494
  389loPI   C5A 6219  17.646  13.599   8.851 -0.0434 -0.1353  0.0555
  389loPI   C6A 6220  18.037  13.462   8.669  0.1524 -0.1405 -0.1034
  389loPI   C1B 6221  18.034  13.381  10.504 -0.0111 -0.2578 -0.1809
  389loPI   C2B 6222  18.017  13.443  10.051 -0.4525  0.1989  0.0823
  389loPI   C3B 6223  18.114  13.493   9.600 -0.0240 -0.0034  0.1707
  389loPI   C4B 6224  18.003  13.447   9.205 -0.1618 -0.1535  0.5165
  390loPI    C1 6225   9.382  17.747  11.079 -0.0077  0.0196 -0.0248
  390loPI    C2 6226   9.291  18.061  11.310  0.0353  0.0045  0.0128
  390loPI    C3 6227   9.080  17.722  11.341  0.1939 -0.0786  0.2016
  390loPI   PO4 6228   9.351  17.730  10.788  0.1304 -0.2017 -0.0927
  390loPI   GL1 6229   9.566  17.945  10.431  0.0013  0.1529 -0.1111
  390loPI   GL2 6230   9.347  17.951  10.306  0.0702  0.1020 -0.1802
  390loPI   C1A 6231   9.826  17.914  10.088 -0.2102  0.1820  0.2039
  390loPI   C2A 6232   9.868  17.854   9.685  0.2579 -0.2591 -0.0767
  390loPI   C3A 6233   9.813  17.935   9.271 -0.2075 -0.0710  0.3613
  390loPI   C4A 6234   9.938  17.778   8.901  0.3782  0.3874  0.0510
  390loPI   C5A 6235   9.945  17.786   8.521 -0.1390  0.2903 -0.1343
  390loPI   C6A 6236  10.155  18.074   8.134 -0.2025 -0.1158 -0.0684
  390loPI   C1B 6237   9.405  18.082   9.862  0.3769  0.0579  0.0145
  390loPI   C2B 6238   9.350  17.992   9.363 -0.0051 -0.0422 -0.2031
  390loPI   C3B 6239   9.395  18.008   8.935 -0.0238  0.1003 -0.1773
  390loPI   C4B 6240   9.421  17.879   8.526  0.0587  0.2451  0.1469
  391loPI    C1 6241   1.410   2.042  10.478  0.2195  0.0194 -0.2418
  391loPI    C2 6242   1.593   2.331  10.685  0.0878 -0.0489 -0.0266
  391loPI    C3 6243   1.285   2.420  10.447  0.0538 -0.0095  0.0319
  391loPI   PO4 6244   1.592   1.902  10.402 -0.6464 -0.0023  0.0387
  391loPI   GL1 6245   1.888   1.886  10.072 -0.3513  0.2176  0.1697
  391loPI   GL2 6246   2.086   1.712   9.904  0.1472 -0.0816  0.2838
  391loPI   C1A 6247   1.603   1.824   9.696 -0.2168 -0.0346  0.1552
  391loPI   C2A 6248   1.567   1.840   9.245 -0.0179 -0.3624  0.1538
  391loPI   C3A 6249   1.630   1.857   8.783  0.0842  0.0358  0.2743
  391loPI   C4A 6250   1.708   1.808   8.367 -0.2256 -0.0907  0.1641
  391loPI   C5A 6251   1.603   1.935   8.014  0.2238 -0.3894  0.0738
  391loPI   C6A 6252   1.357   2.227   7.783 -0.0578 -0.1914 -0.2012
  391loPI   C1B 6253   2.108   1.710   9.491  0.3798  0.1366  0.0797
  391loPI   C2B 6254   2.039   1.671   9.122  0.1210 -0.0649  0.0112
  391loPI   C3B 6255   2.104   1.703   8.747  0.0880 -0.0079  0.0103
  391loPI   C4B 6256   2.314   1.867   8.379  0.1156  0.0877  0.0550
  392loPI    C1 6257  13.502  15.951  10.510  0.0492  0.0922  0.0233
  392loPI    C2 6258  13.458  16.065  10.891 -0.5132  0.0848 -0.0307
  392loPI    C3 6259  13.517  15.679  10.803  0.2797  0.1653  0.0807
  392loPI   PO4 6260  13.278  16.104  10.369 -0.2521 -0.0241 -0.0571
  392loPI   GL1 6261  13.389  15.981  10.039  0.1040  0.1217  0.1514
  392loPI   GL2 6262  13.685  15.874  10.024  0.2916  0.1242 -0.2397
  392loPI   C1A 6263  13.236  16.067   9.600 -0.0801 -0.3496  0.2164
  392loPI   C2A 6264  13.418  16.081   9.151 -0.1037  0.3853 -0.2763
  392loPI   C3A 6265  13.387  15.928   8.750 -0.0661 -0.2463 -0.1918
  392loPI   C4A 6266  13.373  15.872   8.278 -0.0154 -0.0519 -0.1023
  392loPI   C5A 6267  13.394  15.832   7.835  0.1844  0.2125 -0.1865
  392loPI   C6A 6268  13.695  15.692   7.592 -0.1300 -0.1501  0.2151
  392loPI   C1B 6269  13.814  15.940   9.671 -0.1728  0.1327  0.1081
  392loPI   C2B 6270  13.875  15.907   9.233 -0.0667 -0.1018 -0.0839
  392loPI   C3B 6271  13.844  15.850   8.835  0.1495  0.2133 -0.0272
  392loPI   C4B 6272  13.875  15.763   8.433  0.0010  0.2278  0.1062
  393loPI    C1 6273   0.505  13.915  11.397  0.1105  0.0562  0.4199
  393loPI    C2 6274   0.501  13.635  11.682 -0.0570  0.0997  0.4616
  393loPI    C3 6275   0.584  14.015  11.776 -0.1730  0.1249  0.4632
  393loPI   PO4 6276   0.502  13.759  11.183  0.2289 -0.0884  0.0709
  393loPI   GL1 6277   0.521  14.094  10.782 -0.0961  0.1677 -0.1252
  393loPI   GL2 6278   0.707  13.847  10.761  0.1308  0.1053  0.0820
  393loPI   C1A 6279   0.556  14.325  10.413  0.1178  0.2153 -0.0991
  393loPI   C2A 6280   0.649  14.266   9.959  0.0050 -0.0807 -0.1227
  393loPI   C3A 6281   0.654  14.212   9.474 -0.1980  0.0383 -0.0349
  393loPI   C4A 6282   0.492  14.159   9.060  0.0759  0.2642  0.1824
  393loPI   C5A 6283   0.582  14.091   8.669  0.2636 -0.2634  0.2073
  393loPI   C6A 6284   0.899  13.982   8.524  0.1051 -0.1891 -0.2240
  393loPI   C1B 6285   0.745  13.817  10.373 -0.0158  0.0619  0.1266
  393loPI   C2B 6286   0.715  13.710   9.904  0.3283  0.1305 -0.2102
  393loPI   C3B 6287   0.756  13.623   9.547 -0.0754  0.0294  0.3460
  393loPI   C4B 6288   0.682  13.719   9.089  0.0735  0.0541  0.2815
  394loPI    C1 6289  10.429  14.554  10.911 -0.0581  0.1322 -0.0214
  394loPI    C2 6290  10.630  14.883  11.019 -0.1698  0.1790  0.0451
  394loPI    C3 6291  10.714  14.532  11.191  0.1240  0.1226 -0.2054
  394loPI   PO4 6292  10.409  14.473  10.720 -0.1439 -0.2666 -0.1486
  394loPI   GL1 6293  10.339  14.462  10.309 -0.0251 -0.2212 -0.0704
  394loPI   GL2 6294  10.487  14.296  10.084  0.1131  0.1488  0.3252
  394loPI   C1A 6295  10.294  14.689   9.940  0.0608  0.1247  0.1387
  394loPI   C2A 6296  10.370  14.658   9.478  0.0569  0.1066  0.0194
  394loPI   C3A 6297  10.468  14.659   9.071 -0.1067  0.0641 -0.0106
  394loPI   C4A 6298  10.437  14.686   8.569  0.0561 -0.3235  0.3549
  394loPI   C5A 6299  10.050  14.873   8.350  0.3029  0.4978  0.0392
  394loPI   C6A 6300   9.732  15.214   8.215 -0.1367  0.1355  0.1576
  394loPI   C1B 6301  10.551  14.177   9.652  0.0490  0.0063 -0.0834
  394loPI   C2B 6302  10.427  14.177   9.192 -0.1015  0.3036 -0.1564
  394loPI   C3B 6303  10.545  14.240   8.772  0.2022  0.1211 -0.1507
  394loPI   C4B 6304  10.458  14.098   8.384 -0.1704  0.1163 -0.0081
  395loPI    C1 6305   7.865  17.083  11.075  0.1013  0.2978 -0.0684
  395loPI    C2 6306   7.574  17.248  11.294  0.0099  0.0479  0.0024
  395loPI    C3 6307   7.921  17.147  11.466  0.0591  0.1481 -0.0372
  395loPI   PO4 6308   7.862  17.274  10.894 -0.1067 -0.2494  0.2745
  395loPI   GL1 6309   7.519  17.214  10.597  0.1476  0.1077  0.0975
  395loPI   GL2 6310   7.879  17.187  10.376  0.3271  0.3743 -0.0530
  395loPI   C1A 6311   7.429  17.259  10.217  0.0470 -0.1018 -0.2786
  395loPI   C2A 6312   7.191  17.232   9.866 -0.1691 -0.0047  0.3749
  395loPI   C3A 6313   7.203  17.274   9.444  0.2513  0.0509 -0.2877
  395loPI   C4A 6314   7.230  17.287   9.008  0.1215 -0.2966  0.1324
  395loPI   C5A 6315   7.252  17.382   8.547 -0.2007  0.0852 -0.1434
  395loPI   C6A 6316   7.243  17.411   8.052  0.2923 -0.0622 -0.1911
  395loPI   C1B 6317   7.808  17.170   9.940  0.1406  0.2200  0.2221
  395loPI   C2B 6318   7.694  17.040   9.527  0.2234 -0.2110 -0.2929
  395loPI   C3B 6319   7.725  17.102   9.050 -0.0465 -0.1554  0.1402
  395loPI   C4B 6320   7.697  17.127   8.608 -0.0204 -0.1292  0.1490
  396loPI    C1 6321  17.638   1.939  10.729  0.0763  0.0997 -0.1894
  396loPI    C2 6322  17.412   1.702  10.958  0.0276  0.3108 -0.0157
  396loPI    C3 6323  17.678   1.948  11.127  0.1620  0.2949 -0.2014
  396loPI   PO4 6324  17.547   1.773  10.439 -0.1829 -0.0410  0.0107
  396loPI   GL1 6325  17.378   1.849  10.080 -0.1277  0.4809 -0.0297
  396loPI   GL2 6326  17.382   1.502  10.085 -0.3248 -0.0546 -0.0733
  396loPI   C1A 6327  17.344   2.150   9.728 -0.0481 -0.0768  0.0655
  396loPI   C2A 6328  17.229   2.208   9.300  0.1389 -0.0018  0.0585
  396loPI   C3A 6329  17.300   2.195   8.786  0.0960 -0.1915  0.0853
  396loPI   C4A 6330  17.451   2.081   8.421  0.1665 -0.0620 -0.1555
  396loPI   C5A 6331  17.488   2.332   8.196 -0.1765 -0.1544  0.1341
  396loPI   C6A 6332  17.600   2.687   7.982 -0.1689 -0.1588  0.3145
  396loPI   C1B 6333  17.423   1.633   9.638  0.1864  0.1520  0.1279
  396loPI   C2B 6334  17.342   1.743   9.162 -0.1708  0.1403 -0.1508
  396loPI   C3B 6335  17.442   1.591   8.730  0.3123 -0.1819  0.2962
  396loPI   C4B 6336  17.602   1.615   8.319  0.0445 -0.1433  0.4274
  397loPI    C1 6337   1.563   4.843  10.516  0.1266 -0.0293 -0.1233
  397loPI    C2 6338   1.225   4.745  10.706  0.2920 -0.2303  0.0722
  397loPI    C3 6339   1.560   4.539  10.775  0.4902  0.0565 -0.0131
  397loPI   PO4 6340   1.583   4.868  10.296 -0.4603 -0.0902 -0.1440
  397loPI   GL1 6341   1.336   4.819   9.923 -0.5057 -0.0455 -0.0728
  397loPI   GL2 6342   1.637   4.644   9.834 -0.0947 -0.0022 -0.0757
  397loPI   C1A 6343   1.350   5.246   9.743  0.0382 -0.2441 -0.1817
  397loPI   C2A 6344   1.325   5.257   9.274  0.2067  0.0979 -0.0754
  397loPI   C3A 6345   1.387   5.395   8.878 -0.2012  0.0657  0.0561
  397loPI   C4A 6346   1.343   5.410   8.359  0.2694  0.3185  0.0344
  397loPI   C5A 6347   1.348   5.221   7.994  0.0576 -0.5116 -0.0138
  397loPI   C6A 6348   1.340   4.794   7.969 -0.0686  0.0693  0.2312
  397loPI   C1B 6349   1.533   4.817   9.461  0.1512  0.0582  0.0588
  397loPI   C2B 6350   1.493   4.833   9.023  0.1147  0.2213  0.2508
  397loPI   C3B 6351   1.613   5.004   8.547  0.1207 -0.0357  0.0495
  397loPI   C4B 6352   1.913   5.251   8.176  0.1217  0.1991  0.1336
  398loPI    C1 6353   0.110   4.369  10.602  0.0651  0.1568 -0.1318
  398loPI    C2 6354  -0.209   4.472  10.821 -0.0120 -0.0226 -0.1583
  398loPI    C3 6355   0.026   4.170  10.938  0.0664  0.0162 -0.2142
  398loPI   PO4 6356   0.047   4.566  10.339 -0.0289  0.2258  0.0362
  398loPI   GL1 6357  -0.217   4.533  10.067  0.0161  0.1539  0.0599
  398loPI   GL2 6358  -0.469   4.560   9.970  0.0763  0.4218  0.1239
  398loPI   C1A 6359  -0.019   4.773   9.735  0.2523  0.2489  0.2331
  398loPI   C2A 6360   0.110   4.795   9.344  0.0140 -0.2318  0.0188
  398loPI   C3A 6361   0.121   4.827   8.849  0.0891 -0.1792 -0.0559
  398loPI   C4A 6362  -0.018   4.772   8.434  0.0253 -0.1619 -0.2605
  398loPI   C5A 6363   0.023   5.053   8.167  0.1185 -0.0827  0.3082
  398loPI   C6A 6364   0.007   5.465   8.068  0.3029  0.1349 -0.0690
  398loPI   C1B 6365  -0.331   4.471   9.532 -0.2272 -0.1727  0.0364
  398loPI   C2B 6366  -0.412   4.412   9.079 -0.0990  0.1678 -0.0888
  398loPI   C3B 6367  -0.335   4.458   8.659  0.0652 -0.1197 -0.0403
  398loPI   C4B 6368  -0.346   4.451   8.265 -0.2636  0.1755 -0.1881
  399loPI    C1 6369   2.208   0.597  10.826  0.1464 -0.0187 -0.1640
  399loPI    C2 6370   2.370   0.602  11.192 -0.2098 -0.1543 -0.0001
  399loPI    C3 6371   2.061   0.842  11.106 -0.0970 -0.0880 -0.2282
  399loPI   PO4 6372   2.469   0.588  10.619 -0.0928  0.0632  0.2628
  399loPI   GL1 6373   2.722   0.310  10.450 -0.1434  0.0213  0.1416
  399loPI   GL2 6374   3.094   0.323  10.378  0.0810 -0.0011  0.0308
  399loPI   C1A 6375   2.688   0.465   9.984  0.2263  0.0858  0.1380
  399loPI   C2A 6376   2.764   0.479   9.599 -0.2361 -0.2281  0.0122
  399loPI   C3A 6377   2.765   0.473   9.089 -0.1413  0.2412 -0.2700
  399loPI   C4A 6378   2.741   0.420   8.672 -0.0247 -0.1561 -0.0299
  399loPI   C5A 6379   3.058   0.429   8.356  0.0164  0.0237 -0.2537
  399loPI   C6A 6380   3.105   0.712   8.015 -0.1966  0.0415 -0.0302
  399loPI   C1B 6381   3.271   0.340  10.053 -0.0956  0.1761  0.2383
  399loPI   C2B 6382   3.253   0.287   9.582 -0.1472  0.0712  0.1275
  399loPI   C3B 6383   3.302   0.370   9.128  0.1462  0.1437  0.2748
  399loPI   C4B 6384   3.362   0.378   8.716 -0.0473  0.2367  0.0353
  400loPI    C1 6385   0.792   8.561  11.034  0.0628 -0.1641 -0.0296
  400loPI    C2 6386   1.176   8.481  11.116  0.1047 -0.0187 -0.0817
  400loPI    C3 6387   0.951   8.675  11.383  0.0362 -0.2001 -0.0057
  400loPI   PO4 6388   0.779   8.778  10.830 -0.2859 -0.1581  0.2225
  400loPI   GL1 6389   0.782   9.058  10.478 -0.3676  0.0037 -0.0335
  400loPI   GL2 6390   0.540   9.229  10.333 -0.1981 -0.2696 -0.0215
  400loPI   C1A 6391   1.042   9.129  10.144  0.0234  0.2916  0.2086
  400loPI   C2A 6392   0.932   9.156   9.714 -0.0585  0.1012 -0.0642
  400loPI   C3A 6393   1.023   9.239   9.324  0.3828 -0.0269 -0.1987
  400loPI   C4A 6394   1.026   9.245   8.887  0.2951 -0.0754  0.0736
  400loPI   C5A 6395   1.022   9.223   8.495 -0.0671 -0.1188  0.0959
  400loPI   C6A 6396   1.168   9.208   8.038 -0.1962  0.0596 -0.1642
  400loPI   C1B 6397   0.555   9.402   9.923  0.3458  0.0336 -0.1712
  400loPI   C2B 6398   0.499   9.423   9.523 -0.1756  0.2779 -0.2129
  400loPI   C3B 6399   0.539   9.527   9.142 -0.0398 -0.1847  0.0379
  400loPI   C4B 6400   0.548   9.417   8.726 -0.1602 -0.0932 -0.0157
  401loPI    C1 6401  17.334   2.608  10.696  0.0139 -0.0050  0.0862
  401loPI    C2 6402  17.373   2.359  11.007  0.2267 -0.0078  0.0586
  401loPI    C3 6403  17.688   2.441  10.776  0.0294 -0.1480 -0.2661
  401loPI   PO4 6404  17.131   2.499  10.527  0.2991 -0.1666  0.1534
  401loPI   GL1 6405  17.019   2.331  10.141  0.3010 -0.0628 -0.0462
  401loPI   GL2 6406  16.965   2.027  10.152  0.1864 -0.0207  0.0771
  401loPI   C1A 6407  16.833   2.401   9.665 -0.0092  0.0329 -0.0312
  401loPI   C2A 6408  16.745   2.407   9.233  0.1687  0.0074 -0.2406
  401loPI   C3A 6409  16.813   2.380   8.792  0.2619  0.1831 -0.2199
  401loPI   C4A 6410  17.043   2.407   8.365 -0.1114 -0.2130  0.1039
  401loPI   C5A 6411  17.010   2.130   8.085 -0.0704 -0.0533  0.2329
  401loPI   C6A 6412  17.052   1.794   8.018  0.0128  0.2349 -0.0120
  401loPI   C1B 6413  16.872   1.864   9.735 -0.0547 -0.3413 -0.5601
  401loPI   C2B 6414  16.855   1.903   9.375  0.3012  0.1814 -0.2022
  401loPI   C3B 6415  16.832   1.898   8.899 -0.1117  0.2287 -0.1669
  401loPI   C4B 6416  16.953   1.803   8.474 -0.1501 -0.3094 -0.0403
  402loPI    C1 6417  14.881   1.175  10.725  0.2956 -0.0381 -0.1854
  402loPI    C2 6418  15.052   0.846  10.875  0.0251 -0.1017 -0.0090
  402loPI    C3 6419  14.868   1.105  11.118 -0.0502  0.0117 -0.1846
  402loPI   PO4 6420  14.853   1.127  10.489  0.3011  0.2832 -0.1485
  402loPI   GL1 6421  14.778   1.328  10.110 -0.3085 -0.0423 -0.1522
  402loPI   GL2 6422  15.119   1.524  10.053  0.0189  0.0872 -0.0663
  402loPI   C1A 6423  14.676   1.241   9.711 -0.1175 -0.1975 -0.3151
  402loPI   C2A 6424  14.688   1.276   9.343  0.5791 -0.1482  0.0866
  402loPI   C3A 6425  14.661   1.344   9.027 -0.0906 -0.1269 -0.1044
  402loPI   C4A 6426  14.669   1.180   8.676 -0.0225  0.3330 -0.3267
  402loPI   C5A 6427  14.515   1.286   8.237 -0.0876  0.0206  0.2464
  402loPI   C6A 6428  14.117   1.144   8.050  0.1198 -0.3392 -0.2444
  402loPI   C1B 6429  15.059   1.550   9.590 -0.1056 -0.0054  0.1927
  402loPI   C2B 6430  15.073   1.540   9.231 -0.4009 -0.2028 -0.0629
  402loPI   C3B 6431  15.118   1.517   8.786  0.0265 -0.1328  0.4072
  402loPI   C4B 6432  14.928   1.422   8.400  0.0064  0.2451  0.0347
  403loPI    C1 6433  11.754  14.030  10.626  0.0404 -0.1514 -0.0351
  403loPI    C2 6434  11.508  14.239  10.863 -0.0079 -0.0360 -0.1858
  403loPI    C3 6435  11.852  14.097  11.008 -0.0288  0.0496 -0.0513
  403loPI   PO4 6436  11.739  14.169  10.367  0.0995 -0.0038 -0.1310
  403loPI   GL1 6437  11.606  14.301   9.983 -0.0487  0.1631 -0.0398
  403loPI   GL2 6438  11.305  14.350   9.876  0.0396  0.0416  0.1627
  403loPI   C1A 6439  11.845  14.196   9.651  0.0018  0.1282  0.3860
  403loPI   C2A 6440  11.941  14.198   9.174  0.0489 -0.0201  0.0687
  403loPI   C3A 6441  11.905  14.160   8.731  0.1096 -0.1860  0.0527
  403loPI   C4A 6442  11.841  14.107   8.334  0.1062 -0.1323 -0.1405
  403loPI   C5A 6443  11.730  14.069   7.897 -0.0184 -0.0866 -0.1847
  403loPI   C6A 6444  11.749  13.678   7.743  0.3204  0.0329 -0.1342
  403loPI   C1B 6445  11.319  14.411   9.512  0.1158  0.0241  0.4209
  403loPI   C2B 6446  11.384  14.406   9.195 -0.0040  0.0748 -0.2052
  403loPI   C3B 6447  11.375  14.378   8.779  0.3310  0.1301  0.2253
  403loPI   C4B 6448  11.347  14.297   8.299  0.1143 -0.0477 -0.0366
  404loPI    C1 6449  14.738   5.608  10.816 -0.1622  0.2124 -0.0597
  404loPI    C2 6450  14.395   5.413  10.876 -0.0654  0.0740  0.0514
  404loPI    C3 6451  14.538   5.657  11.159 -0.1026  0.1796 -0.0201
  404loPI   PO4 6452  14.800   5.586  10.571  0.0235  0.3523  0.3607
  404loPI   GL1 6453  14.730   5.699  10.176  0.1349  0.0102 -0.0430
  404loPI   GL2 6454  14.836   5.946  10.109  0.5149  0.1518 -0.3165
  404loPI   C1A 6455  14.445   5.650   9.776  0.2253 -0.2975  0.0791
  404loPI   C2A 6456  14.328   5.747   9.381  0.0939  0.1999 -0.1315
  404loPI   C3A 6457  14.406   5.690   8.975 -0.3880  0.1706 -0.2267
  404loPI   C4A 6458  14.325   5.700   8.588  0.0157 -0.0898  0.0534
  404loPI   C5A 6459  14.422   5.568   8.156 -0.1063 -0.2007  0.1335
  404loPI   C6A 6460  14.512   5.700   7.817 -0.0068  0.1051 -0.2059
  404loPI   C1B 6461  14.826   5.992   9.575 -0.0289 -0.1322 -0.1958
  404loPI   C2B 6462  14.722   6.004   9.192 -0.1376 -0.4186  0.0272
  404loPI   C3B 6463  14.712   5.919   8.699 -0.1686  0.1580  0.0323
  404loPI   C4B 6464  14.756   6.001   8.205 -0.1249 -0.0975  0.2570
  405loPI    C1 6465   5.806   8.234  10.711 -0.1261  0.1818 -0.2507
  405loPI    C2 6466   5.958   7.866  10.743  0.0441  0.2578 -0.1731
  405loPI    C3 6467   5.719   8.009  11.030  0.1736  0.2969 -0.0838
  405loPI   PO4 6468   5.670   8.288  10.486 -0.2910  0.0269 -0.1358
  405loPI   GL1 6469   5.628   8.602  10.274 -0.0802 -0.1930 -0.1510
  405loPI   GL2 6470   5.255   8.736  10.330 -0.1176 -0.1438  0.1711
  405loPI   C1A 6471   5.736   8.602   9.778 -0.0184 -0.2911 -0.3612
  405loPI   C2A 6472   5.795   8.694   9.274  0.2308  0.2000  0.0064
  405loPI   C3A 6473   5.894   8.613   8.801  0.0448  0.0991  0.0124
  405loPI   C4A 6474   5.687   8.600   8.403  0.0570 -0.3130 -0.1772
  405loPI   C5A 6475   5.729   8.557   7.943  0.0016  0.3249  0.0173
  405loPI   C6A 6476   5.674   8.867   7.655  0.0247  0.0302  0.2997
  405loPI   C1B 6477   5.286   8.827   9.979 -0.0483  0.0900  0.1221
  405loPI   C2B 6478   5.338   8.778   9.507  0.2062  0.0741 -0.0861
  405loPI   C3B 6479   5.295   8.814   9.083 -0.1300 -0.0601  0.2262
  405loPI   C4B 6480   5.269   8.799   8.635  0.0338  0.0304 -0.1974
  406loPI    C1 6481   8.799   7.332  10.497  0.0396  0.1233 -0.1237
  406loPI    C2 6482   8.729   7.705  10.370 -0.2434  0.1135 -0.0030
  406loPI    C3 6483   8.972   7.642  10.682  0.0549  0.1722 -0.2191
  406loPI   PO4 6484   8.859   7.185  10.164  0.1694  0.2266  0.0041
  406loPI   GL1 6485   9.056   7.201   9.772 -0.0782 -0.1535 -0.2504
  406loPI   GL2 6486   9.237   7.357   9.548 -0.0604 -0.0473 -0.0810
  406loPI   C1A 6487   8.935   7.068   9.326 -0.0918 -0.3072 -0.1620
  406loPI   C2A 6488   9.045   7.024   8.844 -0.1478  0.1042  0.2002
  406loPI   C3A 6489   9.170   7.024   8.463 -0.0744  0.0307  0.0466
  406loPI   C4A 6490   9.122   7.138   8.034 -0.0214  0.0572  0.1398
  406loPI   C5A 6491   9.156   7.164   7.647 -0.0246  0.0770  0.2345
  406loPI   C6A 6492   9.135   7.544   7.313  0.1400 -0.1197 -0.0652
  406loPI   C1B 6493   9.328   7.359   9.102  0.2366 -0.0934  0.1438
  406loPI   C2B 6494   9.459   7.374   8.683 -0.1649 -0.0879 -0.1397
  406loPI   C3B 6495   9.547   7.394   8.307 -0.0441 -0.1426 -0.1402
  406loPI   C4B 6496   9.470   7.466   7.947  0.3105  0.0388  0.0602
  407loPI    C1 6497   5.613   1.754  11.118  0.1458  0.2081 -0.0371
  407loPI    C2 6498   5.985   1.679  11.245  0.1646  0.0999 -0.1538
  407loPI    C3 6499   5.673   1.593  11.479  0.2093  0.1182 -0.0873
  407loPI   PO4 6500   5.647   1.706  10.877 -0.0468  0.0285  0.2693
  407loPI   GL1 6501   5.599   1.877  10.504 -0.5904  0.0131 -0.1448
  407loPI   GL2 6502   5.356   2.030  10.491  0.2240 -0.2802 -0.2185
  407loPI   C1A 6503   5.743   1.943  10.067  0.1858  0.1169 -0.3039
  407loPI   C2A 6504   5.759   1.981   9.603  0.2264 -0.4058 -0.0728
  407loPI   C3A 6505   5.779   1.996   9.207 -0.1490 -0.2402 -0.1249
  407loPI   C4A 6506   5.740   2.023   8.802 -0.4725 -0.0869  0.1801
  407loPI   C5A 6507   5.429   1.751   8.459 -0.3333  0.2769 -0.1704
  407loPI   C6A 6508   5.127   1.500   8.367 -0.4736 -0.0434  0.0747
  407loPI   C1B 6509   5.229   2.022  10.068 -0.2430 -0.1343  0.1142
  407loPI   C2B 6510   5.226   2.089   9.601 -0.3153 -0.1907  0.1109
  407loPI   C3B 6511   5.291   2.138   9.155  0.1654  0.1416 -0.0829
  407loPI   C4B 6512   5.298   2.233   8.735  0.6135  0.0081 -0.1480
  408loPI    C1 6513  13.380   7.230  10.821  0.1033  0.1167  0.1254
  408loPI    C2 6514  13.085   6.981  10.925 -0.1199  0.2697 -0.1273
  408loPI    C3 6515  13.355   7.096  11.197 -0.1588 -0.0495  0.0512
  408loPI   PO4 6516  13.416   7.153  10.585  0.0549  0.5601 -0.0916
  408loPI   GL1 6517  13.459   7.317  10.185 -0.1380 -0.1263  0.3337
  408loPI   GL2 6518  13.162   7.281  10.144  0.0073 -0.3446  0.1022
  408loPI   C1A 6519  13.582   7.317   9.776 -0.2310 -0.1698 -0.0861
  408loPI   C2A 6520  13.537   7.331   9.287  0.0499 -0.1512  0.2322
  408loPI   C3A 6521  13.592   7.278   8.859  0.1866  0.0696  0.0315
  408loPI   C4A 6522  13.548   7.216   8.361  0.0477  0.0825  0.1036
  408loPI   C5A 6523  13.427   7.109   7.958 -0.1892 -0.1358  0.1504
  408loPI   C6A 6524  13.071   7.170   7.698  0.0919  0.2503  0.3783
  408loPI   C1B 6525  13.108   7.475   9.724 -0.1554 -0.0068 -0.1176
  408loPI   C2B 6526  12.992   7.546   9.365 -0.1487 -0.1609 -0.1582
  408loPI   C3B 6527  13.099   7.518   8.976 -0.0037  0.0671  0.3411
  408loPI   C4B 6528  13.172   7.513   8.474 -0.1043 -0.2392  0.0526
  409loPI    C1 6529  17.332   4.343  10.437  0.2799 -0.3518  0.0139
  409loPI    C2 6530  17.044   4.437  10.697  0.1317  0.0341 -0.2786
  409loPI    C3 6531  17.427   4.440  10.813  0.0478 -0.1152  0.0141
  409loPI   PO4 6532  17.241   4.522  10.212  0.1007 -0.2287 -0.0378
  409loPI   GL1 6533  17.258   4.775   9.969  0.0264 -0.0750 -0.0390
  409loPI   GL2 6534  16.931   4.968  10.138 -0.1896 -0.2824  0.1509
  409loPI   C1A 6535  17.358   4.685   9.543 -0.0917  0.1262 -0.1465
  409loPI   C2A 6536  17.292   4.527   9.133  0.0924 -0.2255 -0.2645
  409loPI   C3A 6537  17.338   4.505   8.661  0.1521 -0.0445  0.0666
  409loPI   C4A 6538  17.275   4.593   8.237  0.0152 -0.1724  0.0076
  409loPI   C5A 6539  17.343   4.820   7.910  0.2715 -0.2045  0.3005
  409loPI   C6A 6540  17.320   5.234   7.612  0.1497  0.0951  0.0013
  409loPI   C1B 6541  16.840   5.358   9.885  0.1405  0.0528 -0.0317
  409loPI   C2B 6542  16.771   5.359   9.409 -0.0102 -0.0899 -0.2674
  409loPI   C3B 6543  16.748   5.343   8.980  0.2631 -0.0836 -0.2269
  409loPI   C4B 6544  16.721   5.236   8.628  0.2011  0.1539  0.2234
  410loPI    C1 6545   4.830  17.973  11.345  0.3230 -0.0162  0.2454
  410loPI    C2 6546   4.734  18.063  11.722  0.0432 -0.0924  0.1944
  410loPI    C3 6547   4.446  18.011  11.449  0.2484  0.1164 -0.0663
  410loPI   PO4 6548   4.946  18.087  11.223 -0.2009 -0.1871  0.0724
  410loPI   GL1 6549   5.011  18.161  10.811 -0.1359 -0.1500  0.0699
  410loPI   GL2 6550   5.160  17.898  10.696  0.1705  0.1191  0.0518
  410loPI   C1A 6551   5.134  18.397  10.433  0.2759 -0.0252 -0.3368
  410loPI   C2A 6552   5.163  18.296  10.063 -0.1941 -0.3040  0.0871
  410loPI   C3A 6553   5.190  18.387   9.573 -0.0123 -0.0690 -0.0204
  410loPI   C4A 6554   5.179  18.461   9.144  0.2737 -0.1850 -0.0071
  410loPI   C5A 6555   5.226  18.444   8.802  0.2990  0.0725  0.0632
  410loPI   C6A 6556   5.249  18.111   8.474 -0.1548  0.2952 -0.1371
  410loPI   C1B 6557   5.241  17.782  10.258 -0.4374 -0.0651 -0.0676
  410loPI   C2B 6558   5.154  17.816   9.801 -0.0109 -0.2756 -0.2409
  410loPI   C3B 6559   5.291  17.909   9.386  0.0393 -0.0328  0.1042
  410loPI   C4B 6560   5.361  17.996   8.991 -0.0990 -0.2820  0.0065
  411loPI    C1 6561   6.493  13.382  11.145  0.0556  0.0420 -0.0544
  411loPI    C2 6562   6.357  13.028  11.274  0.1173 -0.0161 -0.1474
  411loPI    C3 6563   6.482  13.302  11.537 -0.2287  0.0598 -0.0568
  411loPI   PO4 6564   6.303  13.441  10.962 -0.0449  0.1201  0.2723
  411loPI   GL1 6565   6.249  13.505  10.564 -0.3252 -0.1115 -0.2198
  411loPI   GL2 6566   6.465  13.432  10.336 -0.1965 -0.1219  0.1197
  411loPI   C1A 6567   5.978  13.627  10.244  0.0655 -0.2337 -0.2400
  411loPI   C2A 6568   6.011  13.759   9.886 -0.0964 -0.1054  0.0039
  411loPI   C3A 6569   6.022  13.743   9.474  0.2073 -0.0496 -0.1610
  411loPI   C4A 6570   6.013  13.858   9.122  0.1252  0.4354 -0.0940
  411loPI   C5A 6571   5.979  13.798   8.722 -0.4001  0.0394  0.0157
  411loPI   C6A 6572   6.124  13.495   8.321 -0.3284 -0.2640  0.3976
  411loPI   C1B 6573   6.465  13.574   9.961  0.1765  0.1795  0.0100
  411loPI   C2B 6574   6.471  13.531   9.492  0.0588  0.0649  0.1562
  411loPI   C3B 6575   6.467  13.608   9.074 -0.0730  0.2474  0.0339
  411loPI   C4B 6576   6.494  13.698   8.586  0.2804  0.0388 -0.1285
  412loPI    C1 6577  14.764   5.020  10.570 -0.2415 -0.1457  0.1114
  412loPI    C2 6578  14.808   5.126  10.953 -0.1324 -0.1567  0.1023
  412loPI    C3 6579  14.832   4.741  10.849 -0.3225 -0.1707  0.1064
  412loPI   PO4 6580  14.955   5.165  10.386  0.1158 -0.1273  0.1847
  412loPI   GL1 6581  14.988   5.282  10.005  0.6073 -0.0776 -0.2241
  412loPI   GL2 6582  15.020   5.000   9.877  0.1860  0.1441  0.0703
  412loPI   C1A 6583  14.931   5.489   9.672 -0.1848  0.0902  0.0755
  412loPI   C2A 6584  14.883   5.552   9.365  0.0262 -0.2981  0.2916
  412loPI   C3A 6585  14.939   5.412   8.952  0.3086 -0.2031 -0.0853
  412loPI   C4A 6586  14.864   5.492   8.525  0.0567 -0.0414 -0.1869
  412loPI   C5A 6587  14.923   5.465   8.139 -0.0862  0.2245 -0.2874
  412loPI   C6A 6588  14.745   5.225   7.760  0.0408 -0.2145  0.1681
  412loPI   C1B 6589  14.990   5.024   9.434 -0.3303  0.1927 -0.1797
  412loPI   C2B 6590  15.028   4.922   9.049 -0.1380 -0.2787 -0.1202
  412loPI   C3B 6591  14.990   4.886   8.570 -0.1398  0.3634 -0.0126
  412loPI   C4B 6592  15.006   4.925   8.143  0.0714  0.2669 -0.1432
  413loPI    C1 6593  12.408  11.942  10.923 -0.0968  0.0225  0.1009
  413loPI    C2 6594  12.178  12.246  10.800 -0.0295  0.1078  0.1850
  413loPI    C3 6595  12.058  12.014  11.104 -0.0399  0.1048  0.1788
  413loPI   PO4 6596  12.521  11.893  10.650 -0.2372 -0.1055  0.3109
  413loPI   GL1 6597  12.495  11.756  10.191 -0.0227  0.1787  0.1742
  413loPI   GL2 6598  12.224  11.670  10.107  0.0445 -0.2532  0.0142
  413loPI   C1A 6599  12.740  11.924   9.882  0.0379 -0.1136  0.1084
  413loPI   C2A 6600  12.730  11.875   9.369 -0.2392 -0.1748 -0.0163
  413loPI   C3A 6601  12.795  11.928   8.916 -0.2077 -0.1575  0.0757
  413loPI   C4A 6602  12.740  12.029   8.561 -0.0675 -0.2443 -0.3391
  413loPI   C5A 6603  12.401  12.044   8.229  0.0287 -0.1947  0.1085
  413loPI   C6A 6604  12.021  12.252   8.161 -0.4783 -0.1633  0.3705
  413loPI   C1B 6605  12.385  11.573   9.723 -0.3276 -0.2102  0.1364
  413loPI   C2B 6606  12.322  11.565   9.319 -0.1762  0.3102  0.1314
  413loPI   C3B 6607  12.440  11.625   8.784  0.0608  0.2437  0.1515
  413loPI   C4B 6608  12.492  11.621   8.409  0.1859  0.0317  0.2091
  414loPI    C1 6609   8.374   7.440  10.198 -0.0456 -0.1097  0.2976
  414loPI    C2 6610   8.272   7.057  10.140 -0.0922 -0.0860  0.2215
  414loPI    C3 6611   8.051   7.289  10.380 -0.0422 -0.1168  0.2976
  414loPI   PO4 6612   8.437   7.517   9.951  0.4247  0.0695 -0.1781
  414loPI   GL1 6613   8.384   7.378   9.609 -0.0249  0.1146  0.1011
  414loPI   GL2 6614   8.644   7.438   9.515 -0.1761  0.0330 -0.1759
  414loPI   C1A 6615   8.393   7.283   9.117  0.1281 -0.0293  0.2935
  414loPI   C2A 6616   8.592   7.235   8.803 -0.2673  0.1393 -0.0179
  414loPI   C3A 6617   8.769   7.288   8.347  0.1324  0.0192 -0.2516
  414loPI   C4A 6618   8.569   7.153   7.878  0.0450 -0.0090  0.0625
  414loPI   C5A 6619   8.338   7.631   7.730  0.1030 -0.0882 -0.1965
  414loPI   C6A 6620   8.376   8.067   7.655 -0.1847 -0.2241 -0.0748
  414loPI   C1B 6621   8.798   7.532   9.123  0.0566  0.0375 -0.1585
  414loPI   C2B 6622   8.881   7.680   8.725  0.1180  0.0073  0.2903
  414loPI   C3B 6623   9.089   7.609   8.288  0.1810 -0.1049  0.2973
  414loPI   C4B 6624   9.007   7.677   7.820  0.3616  0.1193  0.1718
  415loPI    C1 6625  17.141  13.474  11.447 -0.2843  0.1470 -0.0998
  415loPI    C2 6626  17.057  13.793  11.673  0.1464  0.0815  0.1656
  415loPI    C3 6627  17.031  13.426  11.829 -0.1945 -0.0092 -0.0927
  415loPI   PO4 6628  17.240  13.555  11.241  0.1356 -0.2612 -0.0510
  415loPI   GL1 6629  17.388  13.360  10.836 -0.1482  0.0580 -0.0487
  415loPI   GL2 6630  17.592  13.019  10.797  0.0325 -0.3020 -0.0588
  415loPI   C1A 6631  17.309  13.321  10.362  0.0409 -0.0850  0.0391
  415loPI   C2A 6632  17.142  13.324  10.040  0.0877 -0.0049  0.1364
  415loPI   C3A 6633  17.129  13.324   9.643 -0.0028 -0.1973 -0.2794
  415loPI   C4A 6634  17.099  13.313   9.209  0.0174 -0.1163 -0.1628
  415loPI   C5A 6635  17.228  13.329   8.838 -0.0400  0.2147 -0.1820
  415loPI   C6A 6636  17.571  13.162   8.685  0.1506 -0.0179  0.1029
  415loPI   C1B 6637  17.715  13.049  10.410  0.0504  0.0578  0.0640
  415loPI   C2B 6638  17.656  13.115  10.089  0.0778  0.0596 -0.0666
  415loPI   C3B 6639  17.696  13.174   9.666 -0.0271  0.3360  0.0772
  415loPI   C4B 6640  17.615  13.111   9.206 -0.2131 -0.0507 -0.1437
  416loPI    C1 6641   4.840  15.410  11.127  0.2225 -0.1469  0.1589
  416loPI    C2 6642   4.991  15.742  11.293 -0.0775  0.1310 -0.1095
  416loPI    C3 6643   4.666  15.569  11.451  0.0035  0.0360 -0.0451
  416loPI   PO4 6644   4.755  15.484  10.861  0.2739  0.2217 -0.0456
  416loPI   GL1 6645   4.772  15.475  10.519 -0.0890 -0.0670  0.2705
  416loPI   GL2 6646   4.791  15.154  10.383 -0.0830 -0.0346  0.0144
  416loPI   C1A 6647   4.748  15.543  10.063  0.0449 -0.1473 -0.0371
  416loPI   C2A 6648   4.748  15.643   9.587 -0.0949 -0.0077 -0.0459
  416loPI   C3A 6649   4.787  15.669   9.191  0.0925  0.1524 -0.2053
  416loPI   C4A 6650   4.885  15.550   8.869  0.0231 -0.1460  0.1522
  416loPI   C5A 6651   5.339  15.611   8.567  0.3258  0.0967 -0.0409
  416loPI   C6A 6652   5.274  15.777   8.127 -0.5218  0.0504  0.0325
  416loPI   C1B 6653   4.848  15.018   9.991  0.2645  0.0034  0.0273
  416loPI   C2B 6654   4.884  15.124   9.565  0.1384 -0.1734  0.1605
  416loPI   C3B 6655   4.861  15.132   9.141 -0.2861 -0.0849  0.2272
  416loPI   C4B 6656   5.010  15.047   8.723  0.3526  0.3313  0.2675
  417loPI    C1 6657   6.130   5.167  10.925 -0.2716  0.1861  0.0909
  417loPI    C2 6658   6.190   4.836  11.141 -0.2589  0.0749 -0.0817
  417loPI    C3 6659   6.316   5.190  11.279 -0.1748 -0.0069  0.0536
  417loPI   PO4 6660   6.257   5.098  10.709  0.0976  0.1699  0.0811
  417loPI   GL1 6661   6.524   5.180  10.359  0.0665  0.3053 -0.0266
  417loPI   GL2 6662   6.432   5.576  10.207  0.0901 -0.1190 -0.2519
  417loPI   C1A 6663   6.435   5.023  10.000 -0.3709  0.4718  0.0800
  417loPI   C2A 6664   6.505   4.924   9.586  0.3898 -0.1006 -0.0105
  417loPI   C3A 6665   6.589   5.073   9.150 -0.1936  0.1446 -0.3223
  417loPI   C4A 6666   6.563   4.902   8.704  0.0064 -0.0171 -0.2541
  417loPI   C5A 6667   6.641   5.017   8.311  0.0604 -0.0665  0.2635
  417loPI   C6A 6668   6.756   5.229   7.905 -0.0645 -0.1043 -0.1889
  417loPI   C1B 6669   6.413   5.568   9.730  0.4349  0.0946 -0.1319
  417loPI   C2B 6670   6.448   5.592   9.226 -0.1235 -0.0483  0.1854
  417loPI   C3B 6671   6.484   5.556   8.808  0.5261 -0.2173  0.2672
  417loPI   C4B 6672   6.477   5.526   8.292 -0.2677  0.1793  0.0758
  418loPI    C1 6673   3.070   1.434  11.060 -0.1950 -0.1879  0.0431
  418loPI    C2 6674   2.751   1.310  11.268 -0.1529 -0.1463  0.1330
  418loPI    C3 6675   2.763   1.683  11.123 -0.1612 -0.1599  0.0971
  418loPI   PO4 6676   3.092   1.196  10.863  0.0245 -0.3958  0.2870
  418loPI   GL1 6677   3.140   1.224  10.426  0.1832 -0.1002 -0.0070
  418loPI   GL2 6678   3.480   1.179  10.438  0.1703 -0.1100 -0.0354
  418loPI   C1A 6679   3.089   1.291  10.041  0.3758 -0.2060  0.0166
  418loPI   C2A 6680   2.975   1.363   9.653  0.0162 -0.0969 -0.0488
  418loPI   C3A 6681   3.036   1.379   9.132 -0.2886 -0.3843  0.1465
  418loPI   C4A 6682   3.041   1.418   8.752 -0.1997 -0.3460 -0.1255
  418loPI   C5A 6683   3.029   1.397   8.354  0.2844  0.0600 -0.1698
  418loPI   C6A 6684   3.223   1.179   8.051  0.0082  0.0823 -0.1655
  418loPI   C1B 6685   3.613   1.250  10.011 -0.0567  0.1750 -0.1107
  418loPI   C2B 6686   3.449   1.162   9.588 -0.2414 -0.2400  0.1505
  418loPI   C3B 6687   3.490   1.204   9.203 -0.1946 -0.1006 -0.0814
  418loPI   C4B 6688   3.598   1.204   8.742  0.1115  0.0939 -0.3987
  419loPI    C1 6689   3.384   7.006  11.114 -0.0168  0.1611 -0.1993
  419loPI    C2 6690   3.048   7.212  11.182 -0.0778  0.0037 -0.0162
  419loPI    C3 6691   3.112   6.865  11.371  0.1023 -0.0608 -0.1924
  419loPI   PO4 6692   3.397   6.993  10.850  0.0563  0.1185 -0.1632
  419loPI   GL1 6693   3.416   6.980  10.367  0.1259  0.0411 -0.1025
  419loPI   GL2 6694   3.247   7.295  10.376 -0.1793  0.3363 -0.0810
  419loPI   C1A 6695   3.392   7.045   9.898 -0.1011 -0.2090 -0.0269
  419loPI   C2A 6696   3.402   7.078   9.431 -0.2753 -0.1327 -0.1353
  419loPI   C3A 6697   3.436   7.089   9.014  0.1240  0.4546 -0.1487
  419loPI   C4A 6698   3.364   7.091   8.552 -0.2233  0.1357 -0.3514
  419loPI   C5A 6699   3.412   6.979   8.208 -0.1427  0.0724 -0.0439
  419loPI   C6A 6700   3.496   6.846   7.825  0.2589  0.1180 -0.2553
  419loPI   C1B 6701   3.324   7.481  10.072  0.1804 -0.0668 -0.0204
  419loPI   C2B 6702   3.327   7.516   9.654  0.0783 -0.2213 -0.0352
  419loPI   C3B 6703   3.274   7.564   9.215  0.0331  0.1147 -0.2872
  419loPI   C4B 6704   3.261   7.580   8.700  0.1357  0.3056  0.0141
  420loPI    C1 6705  14.004  15.483  10.579  0.2002 -0.0595  0.0039
  420loPI    C2 6706  13.993  15.853  10.427 -0.1312 -0.0691 -0.0037
  420loPI    C3 6707  14.217  15.775  10.750 -0.0389  0.1307 -0.0178
  420loPI   PO4 6708  14.034  15.338  10.369 -0.1718  0.1232  0.1748
  420loPI   GL1 6709  13.936  14.972  10.276  0.1155  0.0962 -0.2256
  420loPI   GL2 6710  13.689  15.004  10.247 -0.0401  0.1595  0.2438
  420loPI   C1A 6711  14.075  14.911   9.812 -0.1878 -0.1250 -0.0308
  420loPI   C2A 6712  14.062  14.796   9.381 -0.1324  0.1048 -0.4963
  420loPI   C3A 6713  14.043  14.779   8.970 -0.1435 -0.4655  0.0115
  420loPI   C4A 6714  14.090  14.740   8.512 -0.1964 -0.1451 -0.2095
  420loPI   C5A 6715  13.874  14.759   7.991  0.4293  0.2730  0.1910
  420loPI   C6A 6716  13.554  14.645   7.727  0.1199 -0.0298 -0.1678
  420loPI   C1B 6717  13.496  15.015   9.824 -0.0807  0.0504 -0.2088
  420loPI   C2B 6718  13.613  14.982   9.459  0.1400 -0.2098 -0.0056
  420loPI   C3B 6719  13.590  15.040   9.017  0.0186  0.0695 -0.0240
  420loPI   C4B 6720  13.637  14.966   8.528 -0.0757  0.0080  0.2836
  421loPI    C1 6721  11.473   0.277  10.968  0.1886 -0.0555  0.0773
  421loPI    C2 6722  11.103   0.406  11.045  0.2348  0.0858  0.0661
  421loPI    C3 6723  11.324   0.248  11.338  0.1074 -0.1508  0.0378
  421loPI   PO4 6724  11.453   0.200  10.731 -0.0634 -0.0429  0.2012
  421loPI   GL1 6725  11.543   0.249  10.296 -0.0127 -0.0197 -0.0680
  421loPI   GL2 6726  11.255   0.006  10.333 -0.2270 -0.0877  0.2226
  421loPI   C1A 6727  11.647   0.408   9.883 -0.1632  0.2010  0.3195
  421loPI   C2A 6728  11.549   0.450   9.339  0.0973  0.0685 -0.1799
  421loPI   C3A 6729  11.562   0.416   8.903 -0.5062  0.2815  0.0170
  421loPI   C4A 6730  11.629   0.310   8.514 -0.1107  0.2213 -0.1821
  421loPI   C5A 6731  11.684   0.255   8.067 -0.1542  0.2078  0.0694
  421loPI   C6A 6732  11.841   0.497   7.769 -0.2177  0.0306  0.1076
  421loPI   C1B 6733  11.179   0.183   9.774 -0.2883  0.0787 -0.1900
  421loPI   C2B 6734  11.165   0.073   9.342 -0.1437  0.3610 -0.1064
  421loPI   C3B 6735  11.228   0.082   8.887  0.1535 -0.0540  0.0624
  421loPI   C4B 6736  11.084  -0.055   8.518 -0.1787 -0.1195  0.2443
  422loPI    C1 6737   0.816   0.454  10.647  0.1992 -0.1005  0.3222
  422loPI    C2 6738   0.496   0.553  10.866 -0.0442 -0.3438  0.0844
  422loPI    C3 6739   0.857   0.535  11.036 -0.1082  0.1969  0.2984
  422loPI   PO4 6740   0.610   0.282  10.430  0.0826  0.1043  0.0829
  422loPI   GL1 6741   0.601   0.009  10.070 -0.0047 -0.3703 -0.0023
  422loPI   GL2 6742   0.968   0.036  10.013  0.2436  0.5316  0.1271
  422loPI   C1A 6743   0.661  -0.256   9.674 -0.0164 -0.0907  0.2364
  422loPI   C2A 6744   0.664  -0.184   9.278 -0.0229 -0.0962 -0.2004
  422loPI   C3A 6745   0.553  -0.059   8.846  0.0529  0.3086  0.0681
  422loPI   C4A 6746   0.692  -0.136   8.506  0.0293 -0.0622  0.0397
  422loPI   C5A 6747   0.511  -0.232   8.057  0.1363  0.0296  0.3291
  422loPI   C6A 6748   0.020  -0.389   7.998 -0.1216 -0.3080 -0.0040
  422loPI   C1B 6749   1.035   0.111   9.608  0.0343  0.1008 -0.2237
  422loPI   C2B 6750   1.043   0.088   9.250  0.0343 -0.0654  0.0640
  422loPI   C3B 6751   0.991   0.180   8.750  0.0632  0.2672 -0.1196
  422loPI   C4B 6752   0.922   0.271   8.265  0.0114 -0.1460 -0.0456
  423loPI    C1 6753  16.822   0.744  10.337 -0.1972  0.1823  0.0222
  423loPI    C2 6754  16.746   1.117  10.212  0.0384  0.2721  0.1420
  423loPI    C3 6755  16.842   1.050  10.594  0.2233  0.1194  0.0703
  423loPI   PO4 6756  16.716   0.596  10.204 -0.2803  0.0453 -0.2218
  423loPI   GL1 6757  16.701   0.411   9.895  0.3754 -0.3434 -0.5826
  423loPI   GL2 6758  16.392   0.166  10.064  0.0625  0.2001 -0.2722
  423loPI   C1A 6759  16.670   0.534   9.504 -0.2777 -0.1502  0.3569
  423loPI   C2A 6760  16.616   0.504   9.005 -0.2207 -0.0875  0.3431
  423loPI   C3A 6761  16.676   0.287   8.554 -0.0177  0.1058 -0.2150
  423loPI   C4A 6762  16.790   0.263   8.119 -0.1369  0.0270  0.0779
  423loPI   C5A 6763  17.047   0.480   7.901  0.3592 -0.3043 -0.1374
  423loPI   C6A 6764  17.432   0.714   7.859 -0.0735 -0.2309  0.3243
  423loPI   C1B 6765  16.402   0.080   9.671  0.0312  0.0500 -0.0520
  423loPI   C2B 6766  16.466   0.007   9.236  0.3906  0.0627  0.0103
  423loPI   C3B 6767  16.359  -0.057   8.812  0.2285 -0.0305 -0.2892
  423loPI   C4B 6768  16.267   0.034   8.324 -0.1920 -0.1592  0.0420
  424loPI    C1 6769   7.081  13.949  10.967  0.0312 -0.3522 -0.0124
  424loPI    C2 6770   7.426  14.069  11.129  0.0065 -0.1027 -0.1403
  424loPI    C3 6771   7.214  13.779  11.304  0.0595  0.0501  0.1858
  424loPI   PO4 6772   7.056  14.128  10.800  0.1233 -0.0518  0.0524
  424loPI   GL1 6773   6.857  14.128  10.444  0.0279 -0.3157 -0.0979
  424loPI   GL2 6774   6.774  13.884  10.297  0.2211  0.0014 -0.0562
  424loPI   C1A 6775   6.773  14.334  10.069  0.0407 -0.2493  0.1911
  424loPI   C2A 6776   6.868  14.486   9.645 -0.4518 -0.1403  0.0021
  424loPI   C3A 6777   6.738  14.466   9.300 -0.1068  0.0589 -0.0383
  424loPI   C4A 6778   6.796  14.599   8.975  0.1459  0.0165 -0.0367
  424loPI   C5A 6779   6.782  14.502   8.557 -0.0623 -0.0339  0.0050
  424loPI   C6A 6780   6.538  14.266   8.387  0.0304 -0.0186 -0.1373
  424loPI   C1B 6781   6.866  13.876   9.903 -0.3081  0.0721 -0.0076
  424loPI   C2B 6782   6.813  13.971   9.407  0.0391 -0.0563 -0.1928
  424loPI   C3B 6783   6.884  13.892   9.014 -0.2167  0.1077  0.0003
  424loPI   C4B 6784   6.882  13.962   8.539  0.1965  0.2253 -0.0681
  425loPI    C1 6785   1.987   6.832  11.099 -0.0809  0.1084  0.2082
  425loPI    C2 6786   2.025   6.437  11.152 -0.0144  0.0634 -0.1493
  425loPI    C3 6787   2.229   6.691  11.384 -0.1230 -0.1079  0.1390
  425loPI   PO4 6788   1.881   6.752  10.813 -0.4089 -0.2813  0.1368
  425loPI   GL1 6789   1.869   6.604  10.396  0.1442 -0.2992 -0.4652
  425loPI   GL2 6790   1.483   6.607  10.165  0.2303  0.2317  0.0531
  425loPI   C1A 6791   2.019   6.520  10.004 -0.0535 -0.0121  0.0259
  425loPI   C2A 6792   2.083   6.575   9.567 -0.0685  0.2436 -0.3903
  425loPI   C3A 6793   2.042   6.649   9.236  0.0485 -0.0333 -0.1797
  425loPI   C4A 6794   2.061   6.512   8.768 -0.1206  0.0265 -0.3200
  425loPI   C5A 6795   2.136   6.740   8.355 -0.0053  0.1185  0.1467
  425loPI   C6A 6796   2.110   6.943   7.917 -0.0975 -0.3303 -0.2219
  425loPI   C1B 6797   1.572   6.734   9.749  0.3245 -0.1388 -0.1176
  425loPI   C2B 6798   1.571   6.769   9.261 -0.0203 -0.0569 -0.2293
  425loPI   C3B 6799   1.589   6.759   8.900  0.1642 -0.0105  0.2480
  425loPI   C4B 6800   1.654   6.792   8.499 -0.2546  0.3126 -0.0226
  426loPI    C1 6801  12.203   4.796  10.493  0.2264 -0.1208  0.0751
  426loPI    C2 6802  12.044   5.130  10.645 -0.0269 -0.1846 -0.0441
  426loPI    C3 6803  11.989   4.780  10.831  0.2531 -0.1601  0.0904
  426loPI   PO4 6804  12.163   4.873  10.147  0.0418 -0.2210 -0.0901
  426loPI   GL1 6805  11.791   4.762   9.826 -0.0776  0.0339  0.1656
  426loPI   GL2 6806  12.012   4.979   9.712  0.2607  0.0762 -0.0898
  426loPI   C1A 6807  11.635   4.767   9.373 -0.0208  0.3438  0.1228
  426loPI   C2A 6808  11.765   4.601   9.022 -0.0899 -0.1064 -0.2661
  426loPI   C3A 6809  11.744   4.698   8.565 -0.2667 -0.0059  0.0833
  426loPI   C4A 6810  11.881   4.662   8.122  0.1114  0.0549 -0.1686
  426loPI   C5A 6811  11.849   4.919   7.817 -0.2054  0.1227  0.2166
  426loPI   C6A 6812  11.994   5.269   7.646 -0.3327  0.0515  0.1428
  426loPI   C1B 6813  12.091   5.033   9.320  0.0340 -0.4436  0.0909
  426loPI   C2B 6814  12.081   4.960   8.893  0.2237  0.2771 -0.0506
  426loPI   C3B 6815  12.147   4.990   8.371  0.1037 -0.0958 -0.0688
  426loPI   C4B 6816  12.467   5.025   8.024 -0.1859 -0.0318  0.0517
  427loPI    C1 6817   5.275  13.753  11.116 -0.0889 -0.0770  0.0032
  427loPI    C2 6818   5.264  13.934  11.472 -0.1290 -0.0698 -0.0017
  427loPI    C3 6819   5.172  13.546  11.443 -0.0060 -0.1007  0.0146
  427loPI   PO4 6820   5.426  13.899  10.946 -0.0315  0.0524  0.0346
  427loPI   GL1 6821   5.521  13.846  10.540  0.3565 -0.1736  0.1480
  427loPI   GL2 6822   5.269  13.539  10.611 -0.1535 -0.1612 -0.2988
  427loPI   C1A 6823   5.543  13.884  10.065  0.2146  0.0366 -0.0930
  427loPI   C2A 6824   5.533  13.924   9.656  0.0119 -0.1339 -0.3705
  427loPI   C3A 6825   5.537  13.923   9.263 -0.0592  0.1379  0.1138
  427loPI   C4A 6826   5.533  13.976   8.845 -0.4065 -0.5104  0.1714
  427loPI   C5A 6827   5.657  13.782   8.380  0.1934  0.1034 -0.1222
  427loPI   C6A 6828   5.897  13.679   7.961  0.1102  0.1068  0.1570
  427loPI   C1B 6829   5.156  13.544  10.196 -0.1393 -0.3183  0.1976
  427loPI   C2B 6830   5.172  13.574   9.724  0.1191  0.1264  0.2314
  427loPI   C3B 6831   5.182  13.559   9.277  0.0415 -0.0763  0.1293
  427loPI   C4B 6832   5.109  13.556   8.860 -0.0913  0.1992  0.0587
  428loPI    C1 6833  16.953   2.851  10.947  0.1112 -0.2067  0.1191
  428loPI    C2 6834  17.309   2.958  11.097  0.0781 -0.0068  0.0583
  428loPI    C3 6835  16.973   3.042  11.298  0.0571 -0.0842  0.0562
  428loPI   PO4 6836  17.020   2.959  10.657  0.1671 -0.4454 -0.1558
  428loPI   GL1 6837  16.941   2.853  10.205  0.2778  0.1147 -0.2506
  428loPI   GL2 6838  16.931   3.191  10.061 -0.3867 -0.2007  0.0736
  428loPI   C1A 6839  16.746   2.902   9.746 -0.0079 -0.2635  0.2364
  428loPI   C2A 6840  16.640   2.931   9.357  0.1701 -0.1328  0.0501
  428loPI   C3A 6841  16.614   2.895   8.920  0.0389  0.1444 -0.2074
  428loPI   C4A 6842  16.784   2.862   8.550  0.0086  0.1914 -0.0859
  428loPI   C5A 6843  17.011   2.906   8.135  0.0534 -0.0130  0.0668
  428loPI   C6A 6844  16.939   2.918   7.656  0.0236  0.3169 -0.0828
  428loPI   C1B 6845  17.202   3.326   9.687  0.1624 -0.1084  0.2320
  428loPI   C2B 6846  17.091   3.261   9.192 -0.0864 -0.0079 -0.2284
  428loPI   C3B 6847  17.086   3.204   8.718  0.1367 -0.2242  0.3498
  428loPI   C4B 6848  17.297   3.260   8.351  0.0902  0.3881 -0.1963
  429loPI    C1 6849  10.571   6.065  10.340 -0.0381  0.1377  0.0010
  429loPI    C2 6850  10.209   6.207  10.434 -0.0629  0.0104  0.1012
  429loPI    C3 6851  10.532   6.341  10.627 -0.0430  0.2009 -0.0600
  429loPI   PO4 6852  10.511   5.954  10.147  0.2691 -0.2678  0.0418
  429loPI   GL1 6853  10.204   6.092   9.928 -0.0631 -0.3290 -0.0067
  429loPI   GL2 6854  10.010   6.223   9.747 -0.1582  0.1115 -0.2912
  429loPI   C1A 6855  10.537   6.092   9.569  0.2228 -0.1501  0.2420
  429loPI   C2A 6856  10.553   6.035   9.124 -0.2833  0.0046  0.6834
  429loPI   C3A 6857  10.610   6.047   8.686  0.0504 -0.4656  0.1371
  429loPI   C4A 6858  10.641   6.071   8.291  0.1636  0.0119 -0.2416
  429loPI   C5A 6859  10.678   5.916   7.905 -0.1899  0.1026  0.2058
  429loPI   C6A 6860  10.657   5.782   7.551 -0.0271 -0.0194  0.1397
  429loPI   C1B 6861  10.060   6.270   9.315  0.0283 -0.0110  0.0653
  429loPI   C2B 6862  10.057   6.202   8.861 -0.2958 -0.2314  0.0259
  429loPI   C3B 6863  10.206   6.254   8.499 -0.0517  0.0910  0.3402
  429loPI   C4B 6864  10.228   6.172   7.984 -0.0197 -0.2758 -0.0864
  430loPI    C1 6865  12.346   4.167  10.466  0.0950 -0.2607 -0.0092
  430loPI    C2 6866  12.492   4.450  10.707  0.0264 -0.1409 -0.1073
  430loPI    C3 6867  12.520   4.065  10.811  0.0102 -0.0913  0.0847
  430loPI   PO4 6868  12.403   4.192  10.218  0.1315 -0.1564 -0.3533
  430loPI   GL1 6869  12.556   4.398   9.867 -0.0946  0.3213 -0.1561
  430loPI   GL2 6870  12.290   4.490   9.781  0.1910  0.0092 -0.2441
  430loPI   C1A 6871  12.542   4.297   9.422  0.0175 -0.2764  0.1547
  430loPI   C2A 6872  12.771   4.312   9.097 -0.0606  0.0552 -0.0714
  430loPI   C3A 6873  12.722   4.396   8.717  0.1462 -0.2279 -0.1796
  430loPI   C4A 6874  12.778   4.326   8.343 -0.0955  0.0625 -0.3415
  430loPI   C5A 6875  12.985   4.462   7.975 -0.2030  0.2814 -0.0480
  430loPI   C6A 6876  13.266   4.535   7.694 -0.1648  0.0932 -0.1895
  430loPI   C1B 6877  12.121   4.477   9.377  0.0223 -0.1314  0.1921
  430loPI   C2B 6878  12.236   4.457   8.884  0.2291 -0.2647 -0.2841
  430loPI   C3B 6879  12.218   4.478   8.434  0.1144  0.3637 -0.1036
  430loPI   C4B 6880  12.300   4.441   7.936  0.0108  0.2221  0.1855
  431loPI    C1 6881   6.328  16.717  11.117  0.1414 -0.1923  0.0549
  431loPI    C2 6882   6.026  16.911  11.293  0.1728 -0.0149 -0.0838
  431loPI    C3 6883   6.161  16.568  11.449 -0.0266 -0.0386  0.0409
  431loPI   PO4 6884   6.247  16.767  10.857  0.1126  0.1557 -0.0115
  431loPI   GL1 6885   6.514  16.814  10.422 -0.4244 -0.1148 -0.0043
  431loPI   GL2 6886   6.734  16.716  10.284 -0.3145 -0.0573  0.2406
  431loPI   C1A 6887   6.306  16.960  10.140  0.1677 -0.0893  0.0269
  431loPI   C2A 6888   6.163  16.906   9.730  0.0449  0.1024 -0.2664
  431loPI   C3A 6889   6.360  17.122   9.250 -0.0652 -0.0544  0.0370
  431loPI   C4A 6890   6.368  17.092   8.813  0.0645  0.0167 -0.1598
  431loPI   C5A 6891   6.240  16.896   8.411 -0.0388 -0.5725 -0.0375
  431loPI   C6A 6892   6.079  16.982   7.986  0.0605 -0.0931  0.0139
  431loPI   C1B 6893   6.678  16.936   9.804  0.2858  0.1799 -0.0898
  431loPI   C2B 6894   6.787  16.905   9.342 -0.1757 -0.3210 -0.2452
  431loPI   C3B 6895   6.852  16.965   8.995  0.1181  0.0634  0.0383
  431loPI   C4B 6896   6.861  17.014   8.573 -0.1469  0.0097  0.1290
  432loPI    C1 6897   5.001  12.255  11.181  0.1245  0.1688 -0.1492
  432loPI    C2 6898   5.043  12.605  11.369 -0.0444  0.0928  0.0347
  432loPI    C3 6899   4.860  12.301  11.553 -0.0551 -0.0384 -0.1894
  432loPI   PO4 6900   4.982  12.361  10.923 -0.3029  0.3003  0.2344
  432loPI   GL1 6901   5.043  12.551  10.502 -0.3064  0.0300 -0.2077
  432loPI   GL2 6902   5.303  12.385  10.426  0.2017  0.2795  0.1203
  432loPI   C1A 6903   4.839  12.669  10.120  0.3024 -0.0067  0.1764
  432loPI   C2A 6904   4.916  12.701   9.692  0.0835  0.0482  0.1705
  432loPI   C3A 6905   4.860  12.666   9.283 -0.1011  0.0064 -0.4728
  432loPI   C4A 6906   4.890  12.721   8.883 -0.3232 -0.1829 -0.0067
  432loPI   C5A 6907   4.650  12.523   8.547 -0.0668  0.1438 -0.0222
  432loPI   C6A 6908   4.414  12.225   8.227 -0.0317 -0.0757 -0.0893
  432loPI   C1B 6909   5.353  12.501   9.929 -0.0948 -0.0208  0.0633
  432loPI   C2B 6910   5.373  12.520   9.532 -0.3043 -0.0408 -0.2047
  432loPI   C3B 6911   5.369  12.575   9.012 -0.1117  0.0426  0.3175
  432loPI   C4B 6912   5.417  12.585   8.615 -0.0456 -0.0858  0.1863
  433loPI    C1 6913   2.874  16.912  10.853 -0.1377 -0.0236  0.1042
  433loPI    C2 6914   2.687  16.583  10.723 -0.1370 -0.0004  0.0444
  433loPI    C3 6915   2.722  16.651  11.116  0.1147 -0.2173  0.0619
  433loPI   PO4 6916   2.716  17.173  10.754  0.1377 -0.2587 -0.0667
  433loPI   GL1 6917   2.712  17.392  10.390  0.3063 -0.4359  0.1048
  433loPI   GL2 6918   2.947  17.591  10.305  0.1316  0.1136 -0.1469
  433loPI   C1A 6919   2.555  17.242  10.089 -0.0154 -0.2478 -0.2226
  433loPI   C2A 6920   2.649  17.287   9.657 -0.2328  0.0806 -0.1590
  433loPI   C3A 6921   2.649  17.378   9.217  0.2000  0.1295  0.2161
  433loPI   C4A 6922   2.596  17.444   8.780  0.0487 -0.0628  0.2482
  433loPI   C5A 6923   2.645  17.112   8.487 -0.2941  0.1307  0.0353
  433loPI   C6A 6924   2.994  17.005   8.253  0.3085  0.1681  0.2214
  433loPI   C1B 6925   2.955  17.601   9.941 -0.3594 -0.0955  0.4371
  433loPI   C2B 6926   3.059  17.677   9.555 -0.0243 -0.0228 -0.2641
  433loPI   C3B 6927   3.038  17.678   9.088  0.1091 -0.2043  0.1339
  433loPI   C4B 6928   3.130  17.701   8.649  0.1532  0.0933 -0.1701
  434loPI    C1 6929   8.626   0.616  11.029 -0.2261  0.1091  0.0031
  434loPI    C2 6930   8.847   0.805  11.304  0.1269 -0.2733 -0.0078
  434loPI    C3 6931   8.517   0.978  11.159  0.4049  0.3046  0.0216
  434loPI   PO4 6932   8.692   0.553  10.809 -0.2916  0.0016  0.0854
  434loPI   GL1 6933   8.807   0.729  10.499  0.1873 -0.1385  0.0886
  434loPI   GL2 6934   9.064   0.678  10.528 -0.0168 -0.2425  0.0900
  434loPI   C1A 6935   8.748   0.466  10.196 -0.1395 -0.1689 -0.0197
  434loPI   C2A 6936   8.760   0.512   9.686 -0.1017 -0.1863  0.2635
  434loPI   C3A 6937   8.777   0.474   9.274 -0.0263  0.1550  0.1542
  434loPI   C4A 6938   8.772   0.496   8.915 -0.2572 -0.1894 -0.0802
  434loPI   C5A 6939   8.872   0.471   8.523  0.0045  0.1393 -0.4057
  434loPI   C6A 6940   8.857   0.316   8.167 -0.3835  0.2440 -0.2385
  434loPI   C1B 6941   9.291   0.375  10.211 -0.0998 -0.0111  0.0461
  434loPI   C2B 6942   9.204   0.298   9.809  0.2766  0.0056 -0.1006
  434loPI   C3B 6943   9.225   0.312   9.368 -0.1277 -0.1496 -0.2085
  434loPI   C4B 6944   9.300   0.374   8.982  0.1653  0.2214  0.1642
  435loPI    C1 6945  10.403  10.272  10.613 -0.0840  0.0587 -0.1880
  435loPI    C2 6946  10.777  10.293  10.472  0.0639  0.0328  0.1906
  435loPI    C3 6947  10.690  10.442  10.833 -0.2958  0.0501  0.1006
  435loPI   PO4 6948  10.250  10.433  10.457  0.0500  0.1767  0.0709
  435loPI   GL1 6949  10.341  10.598  10.072 -0.2656 -0.0444 -0.3441
  435loPI   GL2 6950  10.686  10.597  10.019 -0.2202  0.1564  0.2420
  435loPI   C1A 6951  10.302  10.375   9.654  0.0679  0.0958  0.1771
  435loPI   C2A 6952  10.238  10.498   9.234  0.0166 -0.2682 -0.0563
  435loPI   C3A 6953  10.436  10.476   8.840  0.1383 -0.1247  0.0168
  435loPI   C4A 6954  10.387  10.470   8.355 -0.2329 -0.1067  0.0626
  435loPI   C5A 6955  10.519  10.586   7.923  0.1429  0.1112 -0.2894
  435loPI   C6A 6956  10.705  10.235   7.644  0.1349 -0.2567 -0.2454
  435loPI   C1B 6957  10.695  10.778   9.639 -0.4973  0.2237 -0.1235
  435loPI   C2B 6958  10.830  10.865   9.186  0.2569  0.0404  0.1309
  435loPI   C3B 6959  10.762  10.800   8.742  0.2700 -0.0623 -0.0719
  435loPI   C4B 6960  10.803  10.791   8.345  0.2942  0.3250  0.0574
  436loPI    C1 6961   1.349  18.083  10.595 -0.0947  0.0772 -0.0216
  436loPI    C2 6962   1.255  18.438  10.435  0.1207  0.0366 -0.2452
  436loPI    C3 6963   1.211  18.377  10.828  0.3438  0.4026 -0.1591
  436loPI   PO4 6964   1.532  18.008  10.569 -0.2923 -0.1691  0.2417
  436loPI   GL1 6965   1.708  18.251  10.318 -0.0527  0.1065  0.0562
  436loPI   GL2 6966   1.491  18.096  10.081  0.2098 -0.1646  0.0764
  436loPI   C1A 6967   1.959  17.929  10.152 -0.0343 -0.0830 -0.0271
  436loPI   C2A 6968   2.009  17.980   9.768 -0.0359  0.3491 -0.0598
  436loPI   C3A 6969   2.063  17.982   9.314 -0.0455 -0.1742 -0.0839
  436loPI   C4A 6970   1.983  18.006   8.958  0.1301 -0.1086  0.0694
  436loPI   C5A 6971   1.874  17.997   8.523 -0.1716  0.0897 -0.0094
  436loPI   C6A 6972   1.694  18.033   8.121  0.2405  0.3008 -0.0235
  436loPI   C1B 6973   1.569  18.239   9.705 -0.0886  0.0383  0.1147
  436loPI   C2B 6974   1.514  18.175   9.295 -0.2244  0.2289 -0.2916
  436loPI   C3B 6975   1.520  18.238   8.822 -0.0714 -0.0382  0.0111
  436loPI   C4B 6976   1.367  18.277   8.349  0.1084  0.2971  0.0999
  437loPI    C1 6977   9.601   1.019  10.947 -0.1292 -0.0283  0.1099
  437loPI    C2 6978   9.611   1.344  11.180 -0.0726 -0.1305  0.2520
  437loPI    C3 6979   9.452   1.004  11.318 -0.2020 -0.1429  0.0765
  437loPI   PO4 6980   9.523   1.089  10.764 -0.1002  0.1606  0.1224
  437loPI   GL1 6981   9.294   1.173  10.473 -0.1515  0.3450  0.0153
  437loPI   GL2 6982   9.023   1.204  10.392  0.1673  0.0717  0.3035
  437loPI   C1A 6983   9.226   0.922  10.017  0.2312  0.0586  0.1652
  437loPI   C2A 6984   9.248   0.938   9.673  0.0727 -0.0981 -0.0586
  437loPI   C3A 6985   9.167   0.839   9.226  0.1438 -0.2029  0.1106
  437loPI   C4A 6986   9.229   0.895   8.828  0.2606 -0.2626 -0.0274
  437loPI   C5A 6987   9.304   0.620   8.427  0.3441  0.2983 -0.1822
  437loPI   C6A 6988   9.307   0.213   8.444 -0.1847 -0.3669  0.0657
  437loPI   C1B 6989   9.027   1.422   9.991 -0.3763  0.1731 -0.2156
  437loPI   C2B 6990   9.110   1.421   9.561  0.0151 -0.0515  0.1784
  437loPI   C3B 6991   9.191   1.358   9.111 -0.0441 -0.1013  0.2961
  437loPI   C4B 6992   9.061   1.365   8.746 -0.1178 -0.0595  0.1202
  438loPI    C1 6993   9.974  16.400  10.965  0.1938 -0.3929  0.0006
  438loPI    C2 6994   9.605  16.253  10.918  0.0303  0.0178 -0.0443
  438loPI    C3 6995   9.804  16.188  11.258 -0.1257 -0.1163  0.0225
  438loPI   PO4 6996   9.977  16.523  10.786 -0.1879  0.1494 -0.0345
  438loPI   GL1 6997   9.884  16.405  10.400 -0.1997 -0.0468 -0.4315
  438loPI   GL2 6998   9.696  16.172  10.432  0.1102  0.0546  0.1783
  438loPI   C1A 6999  10.057  16.438   9.959 -0.1773  0.2040 -0.2015
  438loPI   C2A 7000  10.113  16.306   9.476 -0.0701  0.3535  0.2669
  438loPI   C3A 7001  10.283  16.269   8.985  0.2158  0.0508  0.0368
  438loPI   C4A 7002  10.189  16.241   8.560 -0.0943 -0.1253  0.1991
  438loPI   C5A 7003   9.966  16.045   8.355  0.0464 -0.0836 -0.1856
  438loPI   C6A 7004   9.748  15.747   8.372 -0.0347  0.1672  0.0649
  438loPI   C1B 7005   9.692  16.024   9.984  0.1559 -0.2000 -0.1218
  438loPI   C2B 7006   9.732  15.962   9.579 -0.2189 -0.0162 -0.2146
  438loPI   C3B 7007   9.834  15.914   9.167 -0.0698  0.2493 -0.1682
  438loPI   C4B 7008   9.947  15.865   8.858 -0.1327 -0.2872  0.1599
  439loPI    C1 7009   6.361   1.268  11.290  0.0287  0.0392  0.3132
  439loPI    C2 7010   6.020   1.146  11.460 -0.1314 -0.1575 -0.1349
  439loPI    C3 7011   6.335   0.900  11.444 -0.0121 -0.0275  0.1488
  439loPI   PO4 7012   6.287   1.308  10.986  0.3028 -0.0989  0.1440
  439loPI   GL1 7013   6.064   1.382  10.543 -0.1009 -0.1458  0.1000
  439loPI   GL2 7014   5.780   1.391  10.491 -0.2208  0.0336  0.0941
  439loPI   C1A 7015   6.233   1.220  10.130 -0.0873  0.3325 -0.1814
  439loPI   C2A 7016   6.242   1.218   9.597 -0.0917  0.0196  0.3350
  439loPI   C3A 7017   6.341   1.295   9.096 -0.1895 -0.2399  0.1362
  439loPI   C4A 7018   6.389   1.413   8.574  0.3914 -0.2307 -0.1574
  439loPI   C5A 7019   6.441   1.652   8.121  0.1814 -0.0849  0.0506
  439loPI   C6A 7020   6.482   1.327   7.848 -0.1304  0.1195 -0.3121
  439loPI   C1B 7021   5.823   1.454  10.017 -0.0870 -0.2915 -0.2273
  439loPI   C2B 7022   5.837   1.514   9.567  0.1337 -0.1149 -0.0336
  439loPI   C3B 7023   5.816   1.533   9.081  0.1503 -0.0467 -0.2132
  439loPI   C4B 7024   5.874   1.472   8.618  0.0837 -0.0944  0.1364
  440loPI    C1 7025  11.419  11.261  11.053  0.0137 -0.2888  0.1736
  440loPI    C2 7026  11.025  11.307  11.102  0.0407  0.0530  0.0969
  440loPI    C3 7027  11.277  11.424  11.390  0.0960  0.0190  0.0626
  440loPI   PO4 7028  11.526  11.111  10.842 -0.1086 -0.2206  0.1103
  440loPI   GL1 7029  11.590  11.010  10.456 -0.1206 -0.0620  0.2001
  440loPI   GL2 7030  11.836  11.182  10.339  0.0598  0.0703 -0.0661
  440loPI   C1A 7031  11.540  10.933   9.995  0.3164  0.0881 -0.0542
  440loPI   C2A 7032  11.644  10.906   9.667 -0.0756 -0.0664 -0.2140
  440loPI   C3A 7033  11.674  10.934   9.169  0.0887  0.1028 -0.1879
  440loPI   C4A 7034  11.658  10.996   8.824  0.0073 -0.0669 -0.0888
  440loPI   C5A 7035  11.766  11.050   8.394  0.0751  0.3533 -0.1482
  440loPI   C6A 7036  11.814  11.171   8.071 -0.0169  0.2595  0.0883
  440loPI   C1B 7037  11.954  11.209   9.896  0.3387  0.1188  0.0471
  440loPI   C2B 7038  11.989  11.184   9.500 -0.0582 -0.2815  0.0352
  440loPI   C3B 7039  12.078  11.228   9.046 -0.1921  0.0040 -0.1930
  440loPI   C4B 7040  12.068  11.345   8.571  0.1411 -0.0491  0.0201
  441loPI    C1 7041   4.061   9.165  11.124 -0.2557 -0.2984  0.2739
  441loPI    C2 7042   3.714   9.355  11.180 -0.1806 -0.1633  0.2865
  441loPI    C3 7043   3.994   9.362  11.466 -0.0765 -0.0752  0.1832
  441loPI   PO4 7044   4.121   9.144  10.861  0.0872 -0.0720 -0.1361
  441loPI   GL1 7045   4.248   9.225  10.437  0.2839 -0.2383  0.1997
  441loPI   GL2 7046   4.181   9.482  10.486 -0.1826 -0.1149 -0.1720
  441loPI   C1A 7047   4.231   9.215   9.983  0.0812  0.0228  0.1828
  441loPI   C2A 7048   4.232   9.170   9.505  0.3448 -0.3605 -0.1854
  441loPI   C3A 7049   4.242   9.131   9.077 -0.0090  0.0914  0.1880
  441loPI   C4A 7050   4.159   9.234   8.648 -0.2522  0.1167 -0.0748
  441loPI   C5A 7051   3.784   9.224   8.356  0.0362  0.2780 -0.0652
  441loPI   C6A 7052   3.624   9.195   7.930  0.3256  0.2456 -0.1731
  441loPI   C1B 7053   4.145   9.665  10.030 -0.2031  0.0986 -0.2677
  441loPI   C2B 7054   4.122   9.633   9.649 -0.1235  0.4014  0.1714
  441loPI   C3B 7055   4.183   9.598   9.229  0.3797 -0.4018 -0.0969
  441loPI   C4B 7056   4.096   9.675   8.845  0.0675  0.0187 -0.0786
  442loPI    C1 7057   1.096   4.291  10.466  0.1659 -0.0499 -0.0285
  442loPI    C2 7058   1.403   4.051  10.555  0.2128  0.1001  0.2258
  442loPI    C3 7059   1.190   4.219  10.848 -0.1012  0.0142  0.0518
  442loPI   PO4 7060   1.151   4.441  10.239 -0.0070  0.1816  0.3057
  442loPI   GL1 7061   0.868   4.554   9.855 -0.1455  0.1169  0.0197
  442loPI   GL2 7062   0.799   4.229   9.978 -0.0880  0.4052 -0.1423
  442loPI   C1A 7063   1.015   4.914   9.567 -0.2077  0.1374  0.0450
  442loPI   C2A 7064   0.879   5.019   9.182 -0.2517  0.2558 -0.3327
  442loPI   C3A 7065   1.019   5.057   8.821 -0.0347 -0.0607  0.2994
  442loPI   C4A 7066   0.938   4.964   8.327  0.1596  0.1386  0.0501
  442loPI   C5A 7067   0.846   4.626   7.958 -0.2614 -0.0078 -0.3365
  442loPI   C6A 7068   0.586   4.331   7.770  0.3701  0.0193 -0.1215
  442loPI   C1B 7069   0.706   4.177   9.542 -0.0446 -0.1487  0.2835
  442loPI   C2B 7070   0.660   4.027   9.140  0.0019 -0.1621  0.1190
  442loPI   C3B 7071   0.698   4.103   8.682  0.2306 -0.0517  0.0476
  442loPI   C4B 7072   0.621   4.178   8.221 -0.2558 -0.2236  0.1293
  443loPI    C1 7073   5.182   1.560  11.293  0.1956 -0.1100  0.2888
  443loPI    C2 7074   4.894   1.821  11.388  0.2051  0.0333 -0.0615
  443loPI    C3 7075   5.278   1.914  11.451  0.2225  0.2072 -0.4046
  443loPI   PO4 7076   5.166   1.402  11.141 -0.1965 -0.1951 -0.1767
  443loPI   GL1 7077   5.170   1.231  10.729 -0.0577  0.2750 -0.1639
  443loPI   GL2 7078   5.269   1.474  10.627  0.1545  0.1574 -0.0613
  443loPI   C1A 7079   5.403   1.006  10.332 -0.1992 -0.2566  0.2118
  443loPI   C2A 7080   5.520   1.129   9.989  0.3972  0.1089  0.1901
  443loPI   C3A 7081   5.423   1.125   9.587  0.2328  0.1421  0.1177
  443loPI   C4A 7082   5.494   1.165   9.205  0.0668  0.2305  0.1327
  443loPI   C5A 7083   5.469   1.216   8.681 -0.2756  0.0544 -0.1367
  443loPI   C6A 7084   5.545   1.256   8.244 -0.1384 -0.2897  0.1479
  443loPI   C1B 7085   5.353   1.526  10.239 -0.2825 -0.1446  0.0315
  443loPI   C2B 7086   5.375   1.605   9.804 -0.3686 -0.1451  0.0333
  443loPI   C3B 7087   5.370   1.671   9.362  0.3565  0.1200  0.0008
  443loPI   C4B 7088   5.371   1.707   8.938 -0.2002  0.0405 -0.1516
  444loPI    C1 7089  13.413  13.724  10.673 -0.0970 -0.2097  0.0290
  444loPI    C2 7090  13.462  14.058  10.459 -0.0329 -0.2603 -0.0356
  444loPI    C3 7091  13.143  14.018  10.696 -0.0289 -0.1434 -0.0098
  444loPI   PO4 7092  13.482  13.585  10.501 -0.0925  0.1201  0.2925
  444loPI   GL1 7093  13.380  13.566  10.057 -0.0325  0.1178 -0.1421
  444loPI   GL2 7094  13.439  13.902   9.989  0.0182 -0.1293 -0.2312
  444loPI   C1A 7095  13.397  13.619   9.515 -0.3000 -0.1143  0.1760
  444loPI   C2A 7096  13.378  13.648   9.084  0.1828  0.2250 -0.0474
  444loPI   C3A 7097  13.357  13.671   8.661 -0.2561  0.0165 -0.0103
  444loPI   C4A 7098  13.614  13.490   8.286 -0.0621  0.0766 -0.1838
  444loPI   C5A 7099  13.975  13.414   8.124 -0.2203  0.2305  0.2019
  444loPI   C6A 7100  14.197  13.317   7.737  0.1877  0.0392 -0.0895
  444loPI   C1B 7101  13.712  14.012   9.677 -0.0844 -0.1505  0.2909
  444loPI   C2B 7102  13.719  13.961   9.244  0.4380  0.1484  0.0229
  444loPI   C3B 7103  13.757  13.929   8.793  0.3416 -0.0408  0.0630
  444loPI   C4B 7104  13.531  13.968   8.352 -0.2375 -0.0828  0.0996
  445loPI    C1 7105   7.014  17.201  11.204 -0.1204 -0.1378  0.1877
  445loPI    C2 7106   7.217  16.943  11.432 -0.0167 -0.1301  0.1046
  445loPI    C3 7107   7.090  17.289  11.587  0.0560 -0.1239  0.1503
  445loPI   PO4 7108   7.137  17.197  10.959  0.1735 -0.2831 -0.1144
  445loPI   GL1 7109   7.032  17.368  10.617  0.0763  0.2332  0.5853
  445loPI   GL2 7110   6.882  17.177  10.319 -0.2246  0.1612 -0.0381
  445loPI   C1A 7111   7.122  17.650  10.296  0.2574 -0.0509  0.2284
  445loPI   C2A 7112   7.135  17.744   9.845 -0.2486  0.0788  0.1549
  445loPI   C3A 7113   7.063  17.776   9.475 -0.0236  0.1461 -0.0698
  445loPI   C4A 7114   7.111  17.774   9.025 -0.1485 -0.0387 -0.0428
  445loPI   C5A 7115   7.007  17.806   8.561  0.1122 -0.2535 -0.6278
  445loPI   C6A 7116   7.043  17.942   8.106  0.0703 -0.0650 -0.2039
  445loPI   C1B 7117   6.735  17.440  10.035 -0.2914  0.1398 -0.0423
  445loPI   C2B 7118   6.708  17.418   9.600 -0.0527  0.1262  0.5173
  445loPI   C3B 7119   6.781  17.455   9.181  0.2398 -0.2931  0.1009
  445loPI   C4B 7120   6.637  17.516   8.776 -0.2266  0.0102  0.0069
  446loPI    C1 7121   5.103   4.197  10.946  0.0579  0.1724  0.1851
  446loPI    C2 7122   4.766   4.305  11.133 -0.1095  0.1374 -0.0910
  446loPI    C3 7123   5.008   4.033  11.298 -0.3051  0.0336  0.0275
  446loPI   PO4 7124   5.071   4.162  10.701  0.2439  0.2204 -0.0649
  446loPI   GL1 7125   4.843   4.302  10.243 -0.0166 -0.0339 -0.2712
  446loPI   GL2 7126   5.216   4.495  10.221 -0.1548 -0.0872  0.3240
  446loPI   C1A 7127   4.804   4.132   9.885 -0.1078 -0.0215  0.2179
  446loPI   C2A 7128   4.845   4.123   9.361 -0.1610  0.0495  0.0724
  446loPI   C3A 7129   4.858   4.177   8.913 -0.3009  0.0089  0.0501
  446loPI   C4A 7130   4.847   4.160   8.519  0.1044 -0.2251  0.0875
  446loPI   C5A 7131   4.777   4.118   8.121 -0.3803  0.0514 -0.2274
  446loPI   C6A 7132   5.032   4.070   7.636  0.0310 -0.0327  0.1312
  446loPI   C1B 7133   5.093   4.505   9.789 -0.1193 -0.2503  0.1900
  446loPI   C2B 7134   5.211   4.560   9.350 -0.0302 -0.1093 -0.3209
  446loPI   C3B 7135   5.304   4.541   8.954  0.0198 -0.1753  0.1642
  446loPI   C4B 7136   5.317   4.557   8.461  0.3115  0.2596  0.1099
  447loPI    C1 7137   4.119   1.140  11.294  0.1603  0.1278  0.2956
  447loPI    C2 7138   3.808   0.929  11.430  0.1644 -0.1422 -0.0967
  447loPI    C3 7139   4.143   0.953  11.646 -0.0459 -0.0366  0.2247
  447loPI   PO4 7140   4.122   1.024  11.037 -0.0257 -0.0191 -0.1176
  447loPI   GL1 7141   4.008   1.032  10.635  0.1678 -0.2810 -0.1662
  447loPI   GL2 7142   4.359   0.869  10.509 -0.1822 -0.4068 -0.1985
  447loPI   C1A 7143   4.034   1.029  10.156  0.2306 -0.4005 -0.1827
  447loPI   C2A 7144   4.021   1.040   9.692 -0.0644 -0.0931  0.3470
  447loPI   C3A 7145   4.055   1.058   9.357  0.1001  0.1998 -0.0519
  447loPI   C4A 7146   4.109   1.104   8.957 -0.0439  0.0710 -0.1021
  447loPI   C5A 7147   4.094   1.152   8.587 -0.1708  0.0106  0.3030
  447loPI   C6A 7148   4.225   0.840   8.269  0.1684  0.0475  0.1423
  447loPI   C1B 7149   4.521   0.838  10.020 -0.2018  0.4071  0.1571
  447loPI   C2B 7150   4.612   0.887   9.627 -0.1154  0.2173 -0.1367
  447loPI   C3B 7151   4.514   0.915   9.149 -0.1080  0.3043  0.0515
  447loPI   C4B 7152   4.588   0.977   8.747  0.0413  0.3284 -0.0378
  448loPI    C1 7153  13.684   6.180  11.091 -0.0264  0.2569  0.0579
  448loPI    C2 7154  13.765   6.483  11.339  0.0449  0.0540  0.2867
  448loPI    C3 7155  13.820   6.106  11.460  0.1674 -0.0468 -0.0708
  448loPI   PO4 7156  13.793   6.225  10.823  0.1784 -0.1352 -0.2920
  448loPI   GL1 7157  13.853   6.241  10.372 -0.0195 -0.1729 -0.0448
  448loPI   GL2 7158  14.144   6.362  10.490  0.0557  0.0439 -0.0440
  448loPI   C1A 7159  13.781   6.306   9.873  0.1569  0.0440  0.1533
  448loPI   C2A 7160  13.750   6.354   9.438  0.0106  0.1867 -0.1093
  448loPI   C3A 7161  13.724   6.397   8.981  0.0428 -0.3601 -0.0373
  448loPI   C4A 7162  13.755   6.357   8.538 -0.1225  0.2142  0.1922
  448loPI   C5A 7163  13.790   6.162   8.057  0.1719  0.5580  0.1183
  448loPI   C6A 7164  13.766   6.401   7.680  0.2927  0.1098 -0.1803
  448loPI   C1B 7165  14.239   6.547  10.060 -0.0463  0.0605  0.1399
  448loPI   C2B 7166  14.247   6.632   9.631  0.0812 -0.0629  0.2516
  448loPI   C3B 7167  14.250   6.711   9.261  0.0443  0.1308 -0.0201
  448loPI   C4B 7168  14.145   6.665   8.837  0.0256 -0.0803 -0.1831
  449loPI    C1 7169  16.192   4.536  10.528 -0.1312 -0.0391  0.1341
  449loPI    C2 7170  15.819   4.651  10.616 -0.2571 -0.3360  0.0030
  449loPI    C3 7171  16.068   4.537  10.908 -0.1173  0.2857  0.1403
  449loPI   PO4 7172  16.276   4.765  10.378 -0.4860 -0.1166  0.1134
  449loPI   GL1 7173  15.935   4.799  10.090 -0.1572 -0.1692  0.1325
  449loPI   GL2 7174  15.971   5.111  10.026 -0.0632  0.0025 -0.1194
  449loPI   C1A 7175  15.935   4.632   9.653 -0.5571 -0.0643 -0.0798
  449loPI   C2A 7176  15.960   4.729   9.272  0.0763  0.1053 -0.2647
  449loPI   C3A 7177  15.933   4.541   8.895  0.2285  0.3197  0.0786
  449loPI   C4A 7178  16.007   4.579   8.491  0.1963 -0.2426  0.1712
  449loPI   C5A 7179  15.991   4.476   8.202  0.1099 -0.1425 -0.0979
  449loPI   C6A 7180  16.059   4.689   7.925 -0.1764  0.0650  0.0513
  449loPI   C1B 7181  15.956   5.242   9.611  0.2776  0.0451  0.1383
  449loPI   C2B 7182  15.858   5.183   9.153 -0.0835 -0.2674 -0.1598
  449loPI   C3B 7183  15.877   5.058   8.725  0.1452  0.2229  0.0275
  449loPI   C4B 7184  15.847   5.053   8.305 -0.2557  0.0587 -0.0669
  450loPI    C1 7185  13.472  11.298  11.317  0.0609 -0.2022 -0.2527
  450loPI    C2 7186  13.513  11.055  11.632  0.1354 -0.1523 -0.2235
  450loPI    C3 7187  13.522  11.452  11.683 -0.1930 -0.1390 -0.2418
  450loPI   PO4 7188  13.643  11.152  11.102  0.0558  0.2074  0.2479
  450loPI   GL1 7189  13.590  10.962  10.735 -0.2379 -0.2873 -0.2815
  450loPI   GL2 7190  13.807  10.846  10.513 -0.2776  0.0733 -0.3011
  450loPI   C1A 7191  13.325  10.934  10.315  0.1149  0.2506  0.0951
  450loPI   C2A 7192  13.377  10.697   9.917  0.0492  0.1318  0.1500
  450loPI   C3A 7193  13.451  10.671   9.443  0.0035 -0.0990 -0.0396
  450loPI   C4A 7194  13.524  10.704   9.102 -0.4026  0.1089  0.1153
  450loPI   C5A 7195  13.442  10.730   8.679  0.1177  0.2348  0.2239
  450loPI   C6A 7196  13.486  10.930   8.302 -0.0033  0.2587  0.0505
  450loPI   C1B 7197  13.805  11.096  10.141  0.2392  0.0252 -0.0359
  450loPI   C2B 7198  13.741  11.065   9.758 -0.3259  0.1809 -0.0343
  450loPI   C3B 7199  13.863  11.072   9.327 -0.0885 -0.0559  0.0081
  450loPI   C4B 7200  13.827  11.035   8.862  0.1279  0.0303 -0.3682
  451loPI    C1 7201  17.802   7.630  10.878  0.1543  0.0858  0.0814
  451loPI    C2 7202  17.538   7.430  11.103  0.0471  0.0442 -0.0795
  451loPI    C3 7203  17.841   7.626  11.276 -0.1883  0.2379  0.1202
  451loPI   PO4 7204  17.639   7.688  10.718  0.0546 -0.5716  0.1868
  451loPI   GL1 7205  17.623   7.873  10.341 -0.2157  0.0307  0.2584
  451loPI   GL2 7206  17.970   7.925  10.304 -0.0158 -0.1121  0.0965
  451loPI   C1A 7207  17.658   7.783   9.934 -0.1136  0.0645 -0.2720
  451loPI   C2A 7208  17.735   7.891   9.480  0.3592  0.1190  0.2761
  451loPI   C3A 7209  17.727   7.946   9.063 -0.0523  0.3242  0.0085
  451loPI   C4A 7210  17.698   7.965   8.596  0.0267 -0.2298 -0.0182
  451loPI   C5A 7211  17.595   7.829   8.203 -0.2925  0.2737 -0.0408
  451loPI   C6A 7212  17.503   8.004   7.728 -0.1161  0.2482  0.0292
  451loPI   C1B 7213  18.092   8.018   9.883  0.1865  0.2169 -0.0181
  451loPI   C2B 7214  18.136   8.148   9.350 -0.0764 -0.2807  0.1915
  451loPI   C3B 7215  18.182   8.247   8.991  0.0224 -0.0755  0.1182
  451loPI   C4B 7216  18.060   8.256   8.554 -0.0034  0.2253 -0.0105
  452loPI    C1 7217  10.468  18.084  10.961  0.1686 -0.0301 -0.0601
  452loPI    C2 7218  10.781  18.160  11.199  0.1615  0.0366 -0.0722
  452loPI    C3 7219  10.413  18.275  11.309  0.1188 -0.1806  0.0156
  452loPI   PO4 7220  10.562  18.164  10.750  0.0277 -0.1044  0.3351
  452loPI   GL1 7221  10.480  18.427  10.418  0.1852 -0.0467 -0.1193
  452loPI   GL2 7222  10.457  18.750  10.497 -0.0211  0.0746 -0.0738
  452loPI   C1A 7223  10.247  18.322   9.965  0.3414 -0.0677  0.2211
  452loPI   C2A 7224  10.294  18.255   9.443 -0.0700  0.0014  0.0056
  452loPI   C3A 7225  10.249  18.127   9.035  0.1851  0.0128 -0.0709
  452loPI   C4A 7226  10.374  18.095   8.618  0.0720 -0.1407  0.0129
  452loPI   C5A 7227  10.635  18.119   8.256 -0.1597 -0.1280  0.3889
  452loPI   C6A 7228  10.539  18.124   7.807  0.1315  0.1765  0.1649
  452loPI   C1B 7229  10.734  18.614  10.044  0.1152  0.2838  0.1771
  452loPI   C2B 7230  10.710  18.537   9.652  0.0760  0.1479  0.0409
  452loPI   C3B 7231  10.767  18.489   9.164  0.0110 -0.2610 -0.1138
  452loPI   C4B 7232  10.733  18.524   8.716 -0.1925  0.0058  0.2282
  453loPI    C1 7233   8.370   2.923  10.859 -0.0899 -0.4222 -0.0134
  453loPI    C2 7234   8.305   2.707  11.190 -0.1317 -0.1744  0.1430
  453loPI    C3 7235   8.420   3.089  11.220 -0.1994 -0.1305 -0.1295
  453loPI   PO4 7236   8.166   2.798  10.645 -0.0598 -0.2245  0.0810
  453loPI   GL1 7237   8.034   2.926  10.236  0.1276  0.1784  0.0577
  453loPI   GL2 7238   7.925   2.704  10.142 -0.1154  0.4889 -0.3150
  453loPI   C1A 7239   8.228   3.013   9.841  0.1488  0.3093  0.0480
  453loPI   C2A 7240   8.307   3.084   9.409 -0.0239  0.2318  0.1916
  453loPI   C3A 7241   8.335   3.036   8.923  0.0034  0.0835 -0.0377
  453loPI   C4A 7242   8.505   2.996   8.566 -0.0405  0.1404  0.0290
  453loPI   C5A 7243   8.336   3.028   8.190 -0.2618 -0.1562 -0.2980
  453loPI   C6A 7244   8.015   2.899   7.942  0.3343 -0.1924  0.1844
  453loPI   C1B 7245   7.895   2.656   9.710 -0.0380  0.1628 -0.1032
  453loPI   C2B 7246   7.929   2.785   9.266 -0.0813  0.3907  0.0739
  453loPI   C3B 7247   7.889   2.770   8.898 -0.6518 -0.2011  0.4811
  453loPI   C4B 7248   8.001   2.735   8.478  0.2986 -0.3142  0.0558
  454loPI    C1 7249   2.400   3.077  10.518  0.2996  0.1436 -0.0712
  454loPI    C2 7250   2.587   3.258  10.822  0.0856  0.2730 -0.0147
  454loPI    C3 7251   2.191   3.201  10.835  0.1097  0.0579 -0.1614
  454loPI   PO4 7252   2.567   2.815  10.474  0.2588 -0.1181  0.0650
  454loPI   GL1 7253   2.842   2.896  10.173 -0.4855 -0.4033 -0.0219
  454loPI   GL2 7254   3.054   3.170  10.076  0.1736  0.1933  0.1567
  454loPI   C1A 7255   2.709   2.962   9.740  0.0430 -0.0894  0.1995
  454loPI   C2A 7256   2.845   2.996   9.364  0.0270 -0.1180 -0.0669
  454loPI   C3A 7257   2.843   3.042   8.891  0.1334  0.0590  0.2289
  454loPI   C4A 7258   2.812   3.046   8.416  0.2926  0.0506 -0.1827
  454loPI   C5A 7259   2.841   2.943   8.002  0.0807 -0.0104  0.0173
  454loPI   C6A 7260   3.021   2.527   7.959 -0.1622 -0.2196  0.3078
  454loPI   C1B 7261   3.195   3.208   9.644 -0.1648 -0.4184  0.0245
  454loPI   C2B 7262   3.212   3.263   9.181  0.3358 -0.1475  0.0293
  454loPI   C3B 7263   3.248   3.296   8.807 -0.0984  0.2079 -0.0596
  454loPI   C4B 7264   3.300   3.258   8.371  0.1988 -0.0282  0.2315
  455loPI    C1 7265   6.973  13.469  10.997 -0.0191 -0.2158 -0.2677
  455loPI    C2 7266   7.264  13.236  11.142  0.1033  0.1202  0.0409
  455loPI    C3 7267   6.958  13.342  11.376 -0.0538  0.1100 -0.1573
  455loPI   PO4 7268   6.885  13.329  10.791  0.0925 -0.0175  0.3549
  455loPI   GL1 7269   6.894  13.131  10.409  0.2586 -0.0997 -0.0705
  455loPI   GL2 7270   6.660  12.943  10.313 -0.1165 -0.2720  0.1657
  455loPI   C1A 7271   6.983  13.398  10.134 -0.0232  0.4198 -0.2762
  455loPI   C2A 7272   6.955  13.413   9.675  0.0415 -0.0196 -0.2042
  455loPI   C3A 7273   6.933  13.472   9.255 -0.2697  0.2548 -0.0698
  455loPI   C4A 7274   6.999  13.451   8.858  0.1573 -0.0429  0.1869
  455loPI   C5A 7275   7.128  13.423   8.408  0.0567  0.1298 -0.4532
  455loPI   C6A 7276   6.878  13.660   8.086 -0.1712  0.1321  0.1963
  455loPI   C1B 7277   6.627  13.074   9.918 -0.3588 -0.1185 -0.0079
  455loPI   C2B 7278   6.617  13.073   9.453 -0.1418  0.0113  0.3005
  455loPI   C3B 7279   6.615  13.082   8.980  0.0771 -0.0463  0.1341
  455loPI   C4B 7280   6.618  13.206   8.574 -0.2927 -0.0272  0.1923
  456loPI    C1 7281  11.271  15.039  10.811  0.2775  0.0026  0.0092
  456loPI    C2 7282  11.476  14.721  10.939  0.2604  0.0672  0.1997
  456loPI    C3 7283  11.177  14.868  11.160  0.0043 -0.0284 -0.0771
  456loPI   PO4 7284  11.153  15.028  10.582  0.2517 -0.2094  0.3915
  456loPI   GL1 7285  11.242  15.228  10.207 -0.1400 -0.2869  0.3661
  456loPI   GL2 7286  11.247  14.918  10.118 -0.1227 -0.0488  0.5111
  456loPI   C1A 7287  11.085  15.322   9.866 -0.1554 -0.1452  0.2150
  456loPI   C2A 7288  11.216  15.434   9.512  0.1414 -0.0662 -0.2371
  456loPI   C3A 7289  11.210  15.376   9.084 -0.1961  0.0497  0.1996
  456loPI   C4A 7290  11.239  15.374   8.635  0.0919 -0.1030  0.2370
  456loPI   C5A 7291  11.273  15.379   8.174 -0.0078 -0.0358  0.0649
  456loPI   C6A 7292  11.317  15.100   7.740  0.1628  0.1242 -0.0153
  456loPI   C1B 7293  11.220  14.890   9.718 -0.1327 -0.2441 -0.2834
  456loPI   C2B 7294  11.281  14.915   9.310 -0.0603 -0.1405 -0.2843
  456loPI   C3B 7295  11.266  14.882   8.891  0.2135  0.1047 -0.0523
  456loPI   C4B 7296  11.368  14.882   8.601 -0.4332  0.1604 -0.0142
  457loPI    C1 7297  16.033  15.579  10.958  0.0880 -0.0329 -0.1677
  457loPI    C2 7298  15.686  15.636  11.148  0.1390 -0.0713 -0.0620
  457loPI    C3 7299  15.974  15.420  11.321  0.1447 -0.2007 -0.2314
  457loPI   PO4 7300  16.052  15.502  10.729  0.1576 -0.1034 -0.2213
  457loPI   GL1 7301  16.218  15.696  10.428 -0.0479 -0.2867 -0.1453
  457loPI   GL2 7302  16.601  15.713  10.240  0.1406 -0.0363  0.2253
  457loPI   C1A 7303  16.163  15.444  10.035 -0.0090 -0.2518 -0.0891
  457loPI   C2A 7304  16.168  15.495   9.543 -0.0960  0.1773  0.2115
  457loPI   C3A 7305  16.322  15.482   9.130  0.1630  0.0095  0.0180
  457loPI   C4A 7306  16.207  15.422   8.755  0.0844  0.3303 -0.1765
  457loPI   C5A 7307  16.181  15.427   8.350 -0.1728  0.1328 -0.2142
  457loPI   C6A 7308  15.781  15.568   8.092  0.1597  0.4471 -0.2149
  457loPI   C1B 7309  16.623  15.809   9.744 -0.1993 -0.0905 -0.1828
  457loPI   C2B 7310  16.627  15.898   9.272  0.2419  0.0959  0.0475
  457loPI   C3B 7311  16.628  15.818   8.793 -0.1465 -0.0888 -0.1475
  457loPI   C4B 7312  16.808  15.888   8.344  0.3431  0.2965 -0.0845
  458loPI    C1 7313   7.253   1.498  10.792  0.2530  0.0997 -0.0243
  458loPI    C2 7314   7.291   1.524  11.189 -0.1832  0.0782  0.0236
  458loPI    C3 7315   7.224   1.169  11.018 -0.0006  0.0882 -0.0701
  458loPI   PO4 7316   7.390   1.597  10.700  0.1616  0.3914 -0.3556
  458loPI   GL1 7317   7.586   1.566  10.170 -0.5020 -0.2401  0.2064
  458loPI   GL2 7318   7.535   1.318  10.288 -0.0193 -0.1138 -0.0660
  458loPI   C1A 7319   7.484   1.745   9.764  0.0242 -0.3339 -0.0527
  458loPI   C2A 7320   7.618   1.761   9.358  0.0035 -0.1215 -0.3868
  458loPI   C3A 7321   7.653   1.857   8.948 -0.0872 -0.3263  0.0767
  458loPI   C4A 7322   7.606   1.840   8.435 -0.1213 -0.1029 -0.0027
  458loPI   C5A 7323   7.333   1.799   8.159 -0.0117 -0.1164  0.1272
  458loPI   C6A 7324   6.924   2.025   8.060  0.0889 -0.1997 -0.0943
  458loPI   C1B 7325   7.601   1.156   9.927 -0.0257 -0.0185  0.2453
  458loPI   C2B 7326   7.743   1.226   9.569 -0.2713  0.0776  0.2193
  458loPI   C3B 7327   7.734   1.367   9.132 -0.3167  0.2679  0.0837
  458loPI   C4B 7328   7.804   1.426   8.644  0.0391  0.0663 -0.1279
  459loPI    C1 7329   2.808  10.843  11.402  0.2031  0.2465 -0.1354
  459loPI    C2 7330   3.068  10.814  11.704  0.1665 -0.4101 -0.1539
  459loPI    C3 7331   2.689  10.697  11.755 -0.0208  0.1220 -0.2601
  459loPI   PO4 7332   2.824  11.057  11.284 -0.0524  0.1990 -0.2037
  459loPI   GL1 7333   2.761  10.977  10.798  0.3210 -0.3597 -0.0619
  459loPI   GL2 7334   2.922  11.323  10.732 -0.0065 -0.0973  0.2802
  459loPI   C1A 7335   2.592  11.152  10.366  0.0559 -0.0509 -0.1487
  459loPI   C2A 7336   2.539  11.117   9.986 -0.2549 -0.1312  0.0159
  459loPI   C3A 7337   2.460  11.151   9.564  0.4349  0.0153 -0.1402
  459loPI   C4A 7338   2.460  11.028   9.140  0.0804  0.1765 -0.1662
  459loPI   C5A 7339   2.414  10.960   8.651 -0.0736  0.0475  0.2894
  459loPI   C6A 7340   2.237  11.007   8.301 -0.2131  0.2798 -0.2481
  459loPI   C1B 7341   2.938  11.547  10.332  0.0521  0.0439  0.0306
  459loPI   C2B 7342   2.909  11.499   9.891 -0.2937 -0.0047  0.1230
  459loPI   C3B 7343   2.869  11.470   9.473  0.0647 -0.1016  0.2244
  459loPI   C4B 7344   2.908  11.553   9.111  0.3712 -0.3137  0.1253
  460loPI    C1 7345  10.921   7.349  10.681 -0.0732 -0.1625 -0.1010
  460loPI    C2 7346  10.844   7.480  11.051  0.1287 -0.1727 -0.0538
  460loPI    C3 7347  10.852   7.088  10.976 -0.0952 -0.1681 -0.1111
  460loPI   PO4 7348  10.798   7.529  10.505  0.0227 -0.1644  0.1980
  460loPI   GL1 7349  10.654   7.555   9.994  0.0875  0.0418 -0.1194
  460loPI   GL2 7350  10.675   7.303   9.778 -0.4210  0.2233 -0.2493
  460loPI   C1A 7351  10.752   7.819   9.645 -0.2351 -0.1872  0.1572
  460loPI   C2A 7352  10.676   7.896   9.228  0.3191  0.1393  0.3061
  460loPI   C3A 7353  10.723   7.910   8.816  0.1854 -0.0953 -0.1902
  460loPI   C4A 7354  10.794   7.970   8.364  0.2968 -0.2543 -0.2036
  460loPI   C5A 7355  10.861   8.036   7.996  0.2251  0.0196 -0.3606
  460loPI   C6A 7356  10.794   8.189   7.548  0.0689 -0.0818 -0.2456
  460loPI   C1B 7357  10.752   7.373   9.432  0.1080 -0.2669  0.3207
  460loPI   C2B 7358  10.846   7.409   9.010 -0.0779 -0.0277 -0.2971
  460loPI   C3B 7359  10.802   7.479   8.539  0.2276  0.2503 -0.2262
  460loPI   C4B 7360  10.854   7.337   8.114  0.4671 -0.3933 -0.2739
  461loPI    C1 7361  16.349  16.761  10.820 -0.0380  0.0308  0.0122
  461loPI    C2 7362  16.525  16.830  11.173 -0.0443  0.0728  0.0070
  461loPI    C3 7363  16.167  16.989  11.093  0.0151  0.1700 -0.0679
  461loPI   PO4 7364  16.314  16.564  10.805 -0.0607 -0.1415 -0.3285
  461loPI   GL1 7365  16.555  16.340  10.602 -0.0224 -0.2152  0.1821
  461loPI   GL2 7366  16.691  16.601  10.442  0.1244 -0.1255  0.3016
  461loPI   C1A 7367  16.488  16.215  10.211 -0.0192 -0.2875 -0.0573
  461loPI   C2A 7368  16.532  16.329   9.823  0.0612 -0.0320  0.1812
  461loPI   C3A 7369  16.525  16.360   9.368 -0.0857 -0.2789  0.2278
  461loPI   C4A 7370  16.451  16.248   8.932  0.0158  0.4116  0.1733
  461loPI   C5A 7371  16.551  16.328   8.542 -0.0724  0.0130 -0.2087
  461loPI   C6A 7372  16.763  16.743   8.447  0.1958  0.0947 -0.1110
  461loPI   C1B 7373  16.793  16.761  10.114 -0.1293 -0.0416  0.0195
  461loPI   C2B 7374  16.848  16.735   9.721 -0.0239  0.0512 -0.1950
  461loPI   C3B 7375  16.805  16.762   9.291 -0.3426 -0.0181 -0.1544
  461loPI   C4B 7376  16.792  16.610   8.920  0.0307  0.0277 -0.1103
  462loPI    C1 7377   6.355   2.407  10.975 -0.3294 -0.1420 -0.0243
  462loPI    C2 7378   6.567   2.707  11.133 -0.2202 -0.1851 -0.0878
  462loPI    C3 7379   6.345   2.473  11.370 -0.2843 -0.0717 -0.0347
  462loPI   PO4 7380   6.468   2.279  10.847 -0.3482 -0.0291  0.1531
  462loPI   GL1 7381   6.485   2.233  10.523  0.0054  0.2040 -0.2250
  462loPI   GL2 7382   6.459   2.548  10.369  0.1372 -0.1296 -0.0725
  462loPI   C1A 7383   6.561   2.181  10.026 -0.3022  0.0011  0.3081
  462loPI   C2A 7384   6.654   2.162   9.606  0.0945  0.1887 -0.0814
  462loPI   C3A 7385   6.583   2.146   9.165 -0.0182  0.0169 -0.1651
  462loPI   C4A 7386   6.672   2.208   8.698 -0.3143 -0.2739 -0.4421
  462loPI   C5A 7387   6.622   1.997   8.470  0.3718  0.0343  0.2135
  462loPI   C6A 7388   6.842   1.653   8.420  0.2345 -0.2407  0.1613
  462loPI   C1B 7389   6.517   2.620   9.909 -0.1902  0.1478  0.0846
  462loPI   C2B 7390   6.543   2.681   9.452 -0.0752  0.1191  0.2758
  462loPI   C3B 7391   6.544   2.606   9.033  0.1014  0.3027  0.1057
  462loPI   C4B 7392   6.546   2.758   8.540  0.1814  0.0342 -0.1928
  463loPI    C1 7393  16.940  14.531  11.281  0.2234  0.2310  0.1620
  463loPI    C2 7394  16.997  14.246  11.556  0.2835 -0.0219 -0.1077
  463loPI    C3 7395  16.641  14.427  11.527  0.2555 -0.0424  0.0888
  463loPI   PO4 7396  17.188  14.447  11.041 -0.2320 -0.5561 -0.0671
  463loPI   GL1 7397  17.190  14.662  10.694 -0.0602  0.2207 -0.1697
  463loPI   GL2 7398  17.364  14.858  10.681  0.0900 -0.0472 -0.1367
  463loPI   C1A 7399  16.929  14.357  10.382 -0.0413  0.2142  0.2240
  463loPI   C2A 7400  16.982  14.260  10.008  0.1450 -0.0296 -0.1709
  463loPI   C3A 7401  16.968  14.415   9.615  0.0628 -0.3197 -0.0181
  463loPI   C4A 7402  16.838  14.276   9.174 -0.2412  0.1162 -0.1961
  463loPI   C5A 7403  16.968  14.361   8.842 -0.4304 -0.0078  0.2119
  463loPI   C6A 7404  16.815  14.757   8.721  0.0847 -0.1518 -0.2329
  463loPI   C1B 7405  17.383  14.729  10.206 -0.0895 -0.1727 -0.0663
  463loPI   C2B 7406  17.336  14.645   9.876  0.1544  0.0083 -0.4034
  463loPI   C3B 7407  17.354  14.677   9.413  0.0298  0.3884  0.1506
  463loPI   C4B 7408  17.313  14.756   8.972 -0.0406  0.3279  0.0740
  464loPI    C1 7409  15.908  16.083  11.059  0.1821  0.0376  0.2433
  464loPI    C2 7410  15.564  16.263  11.158  0.1004  0.0272 -0.0157
  464loPI    C3 7411  15.779  16.075  11.438 -0.2114 -0.1466  0.1108
  464loPI   PO4 7412  15.804  16.016  10.802  0.1249  0.1401  0.0973
  464loPI   GL1 7413  15.781  16.165  10.307 -0.0360 -0.0566  0.0768
  464loPI   GL2 7414  16.022  16.125  10.251 -0.1186  0.0198 -0.0047
  464loPI   C1A 7415  15.622  16.161   9.854 -0.0913  0.1116 -0.0842
  464loPI   C2A 7416  15.663  16.091   9.414 -0.1342 -0.0711 -0.2480
  464loPI   C3A 7417  15.574  16.046   8.952 -0.0123 -0.0637 -0.1234
  464loPI   C4A 7418  15.679  16.093   8.526 -0.0236  0.0454 -0.2948
  464loPI   C5A 7419  15.943  16.149   8.175 -0.2751 -0.2417  0.1370
  464loPI   C6A 7420  16.308  16.424   8.052  0.0797  0.2354  0.1350
  464loPI   C1B 7421  16.158  15.972   9.829  0.0624  0.1230  0.0762
  464loPI   C2B 7422  16.143  15.994   9.342 -0.1500  0.0631  0.2422
  464loPI   C3B 7423  16.073  15.908   8.875  0.0989 -0.1170  0.1324
  464loPI   C4B 7424  16.260  15.862   8.422 -0.0680  0.1626  0.0062
  465loPI    C1 7425  12.817  17.558  10.973 -0.0585  0.0554  0.1587
  465loPI    C2 7426  12.981  17.199  10.912 -0.0749  0.0772 -0.0179
  465loPI    C3 7427  12.813  17.284  11.264 -0.1105 -0.1038  0.0097
  465loPI   PO4 7428  12.790  17.660  10.631 -0.1883  0.0791 -0.0264
  465loPI   GL1 7429  12.806  17.874  10.167  0.0011  0.0998  0.5078
  465loPI   GL2 7430  13.069  17.607  10.187  0.1010 -0.1660 -0.1836
  465loPI   C1A 7431  12.656  17.806   9.691 -0.0016 -0.3387  0.1780
  465loPI   C2A 7432  12.645  17.839   9.286 -0.0212 -0.1858  0.0552
  465loPI   C3A 7433  12.628  17.673   8.847 -0.0398 -0.0885 -0.0113
  465loPI   C4A 7434  12.669  17.562   8.388  0.1456  0.2158 -0.1519
  465loPI   C5A 7435  12.933  17.455   8.062 -0.0553 -0.1877  0.0477
  465loPI   C6A 7436  13.444  17.423   7.864 -0.0554  0.1328 -0.0920
  465loPI   C1B 7437  13.149  17.615   9.827 -0.1735  0.1771  0.0874
  465loPI   C2B 7438  13.091  17.597   9.468  0.0241  0.0186 -0.2042
  465loPI   C3B 7439  13.107  17.475   9.032 -0.1828  0.0431 -0.0375
  465loPI   C4B 7440  13.070  17.417   8.593  0.1629  0.0071  0.3267
  466loPI    C1 7441  12.528  15.728  10.665  0.1526 -0.0216  0.0948
  466loPI    C2 7442  12.229  15.678  10.926  0.1392  0.2291  0.1302
  466loPI    C3 7443  12.471  15.372  10.838 -0.2315 -0.0256 -0.0300
  466loPI   PO4 7444  12.364  15.756  10.455 -0.0549 -0.1175  0.1444
  466loPI   GL1 7445  12.452  15.925  10.055 -0.1490  0.0506  0.0687
  466loPI   GL2 7446  12.458  15.559   9.973 -0.0583 -0.1392 -0.2087
  466loPI   C1A 7447  12.387  15.929   9.610  0.4491 -0.0265 -0.1262
  466loPI   C2A 7448  12.442  15.889   9.142 -0.0234  0.1832 -0.2083
  466loPI   C3A 7449  12.576  15.787   8.757 -0.0471  0.3351  0.2231
  466loPI   C4A 7450  12.532  15.831   8.399 -0.2020 -0.0403 -0.3373
  466loPI   C5A 7451  12.491  15.935   7.970  0.0935 -0.1353 -0.0371
  466loPI   C6A 7452  12.379  15.777   7.597 -0.0525 -0.0741 -0.0188
  466loPI   C1B 7453  12.529  15.451   9.536  0.0359  0.0840 -0.1487
  466loPI   C2B 7454  12.606  15.376   9.085  0.1567 -0.2273 -0.1042
  466loPI   C3B 7455  12.609  15.286   8.717 -0.1832 -0.0941  0.0785
  466loPI   C4B 7456  12.502  15.321   8.341  0.3334 -0.0135  0.0409
  467loPI    C1 7457   4.198  17.559  11.355 -0.0326 -0.0675  0.0158
  467loPI    C2 7458   3.926  17.413  11.610 -0.0739  0.2434  0.1543
  467loPI    C3 7459   3.949  17.807  11.546  0.1879  0.1999 -0.0376
  467loPI   PO4 7460   4.171  17.433  11.058  0.1468 -0.2802 -0.0871
  467loPI   GL1 7461   4.172  17.222  10.680 -0.0708  0.3667 -0.3830
  467loPI   GL2 7462   4.438  17.433  10.579  0.0018 -0.0604  0.2128
  467loPI   C1A 7463   3.940  17.338  10.330 -0.0744  0.1587  0.0170
  467loPI   C2A 7464   3.973  17.413   9.909  0.2382  0.3769 -0.1507
  467loPI   C3A 7465   4.020  17.413   9.549 -0.0619  0.0126  0.1914
  467loPI   C4A 7466   4.034  17.392   9.074 -0.0641  0.2273 -0.1755
  467loPI   C5A 7467   4.050  17.290   8.729  0.1464  0.1983  0.0825
  467loPI   C6A 7468   4.142  17.250   8.242 -0.0912 -0.0429  0.3115
  467loPI   C1B 7469   4.316  17.631  10.134 -0.0155 -0.0169  0.0353
  467loPI   C2B 7470   4.414  17.760   9.751 -0.1253 -0.4578  0.2950
  467loPI   C3B 7471   4.390  17.783   9.324  0.1217  0.1946  0.2544
  467loPI   C4B 7472   4.352  17.702   8.888  0.2258 -0.1718  0.1299
  468loPI    C1 7473  14.880   9.422  10.811  0.1327 -0.1956 -0.0314
  468loPI    C2 7474  14.899   9.302  11.192 -0.1398  0.3056  0.1501
  468loPI    C3 7475  15.041   9.661  11.089 -0.1499  0.2106 -0.2070
  468loPI   PO4 7476  14.588   9.413  10.700 -0.0101 -0.3348 -0.3203
  468loPI   GL1 7477  14.437   9.307  10.328 -0.1427 -0.3322 -0.0368
  468loPI   GL2 7478  14.111   9.463  10.171  0.0757 -0.2426 -0.0374
  468loPI   C1A 7479  14.612   9.265   9.911 -0.1028  0.0105  0.2336
  468loPI   C2A 7480  14.603   9.309   9.478 -0.3945 -0.1778  0.1297
  468loPI   C3A 7481  14.609   9.398   9.045 -0.1121 -0.1211  0.2459
  468loPI   C4A 7482  14.611   9.320   8.589 -0.2700 -0.0694  0.1885
  468loPI   C5A 7483  14.724   8.965   8.417  0.1001 -0.0917  0.0170
  468loPI   C6A 7484  14.791   8.748   8.095  0.1676  0.1313 -0.3298
  468loPI   C1B 7485  14.128   9.530   9.757  0.0053  0.2777 -0.2152
  468loPI   C2B 7486  14.131   9.555   9.310 -0.2982 -0.2514  0.1092
  468loPI   C3B 7487  14.139   9.581   8.896  0.0622  0.3149 -0.0001
  468loPI   C4B 7488  14.160   9.518   8.560 -0.0964  0.1526 -0.0908
  469loPI    C1 7489   5.760  11.806  11.022 -0.1943  0.0093  0.1461
  469loPI    C2 7490   6.151  11.737  11.071 -0.1178  0.2951 -0.0328
  469loPI    C3 7491   5.926  11.843  11.384 -0.1367 -0.2467  0.1475
  469loPI   PO4 7492   5.755  11.728  10.813  0.1607 -0.0090 -0.0873
  469loPI   GL1 7493   5.696  11.827  10.403  0.2152 -0.1894 -0.1320
  469loPI   GL2 7494   6.017  11.657  10.320 -0.0154 -0.0976 -0.0577
  469loPI   C1A 7495   5.483  11.958  10.163  0.3272  0.0638  0.1993
  469loPI   C2A 7496   5.452  12.081   9.737 -0.0828  0.1628  0.0103
  469loPI   C3A 7497   5.548  11.937   9.278 -0.0486 -0.0504  0.1676
  469loPI   C4A 7498   5.454  12.055   8.920 -0.0957 -0.3948  0.0724
  469loPI   C5A 7499   5.524  12.052   8.447  0.1252  0.1434  0.1593
  469loPI   C6A 7500   5.832  12.272   8.247 -0.2322  0.3120  0.0762
  469loPI   C1B 7501   5.994  11.803   9.954 -0.2433  0.1162  0.1849
  469loPI   C2B 7502   5.968  11.904   9.562 -0.3407  0.1971  0.4308
  469loPI   C3B 7503   5.977  11.821   9.136  0.0442  0.2150  0.1504
  469loPI   C4B 7504   5.996  11.870   8.639 -0.0272  0.0338 -0.0803
  470loPI    C1 7505  15.583   5.735  10.724  0.0452 -0.1508 -0.2223
  470loPI    C2 7506  15.956   5.632  10.824  0.0522 -0.0626 -0.1562
  470loPI    C3 7507  15.703   5.763  11.104  0.0253  0.0435 -0.2292
  470loPI   PO4 7508  15.666   5.929  10.415  0.0667  0.1788 -0.1522
  470loPI   GL1 7509  15.609   6.168  10.006 -0.2936  0.3658 -0.3180
  470loPI   GL2 7510  15.352   5.918   9.902 -0.3278 -0.1881 -0.0260
  470loPI   C1A 7511  15.646   6.163   9.612 -0.2599 -0.2093  0.1094
  470loPI   C2A 7512  15.648   6.199   9.176 -0.1427 -0.1556 -0.0878
  470loPI   C3A 7513  15.654   6.172   8.778 -0.0168 -0.1289  0.0190
  470loPI   C4A 7514  15.692   6.191   8.311 -0.0408  0.1159  0.0908
  470loPI   C5A 7515  15.835   6.049   7.982 -0.0018  0.1939 -0.0334
  470loPI   C6A 7516  16.000   6.326   7.613 -0.0685  0.2097  0.0241
  470loPI   C1B 7517  15.306   5.759   9.458  0.2403 -0.1601  0.2608
  470loPI   C2B 7518  15.214   5.848   9.018 -0.4167  0.1086 -0.1625
  470loPI   C3B 7519  15.299   5.834   8.636  0.2477  0.0406  0.1646
  470loPI   C4B 7520  15.354   5.778   8.238 -0.0052  0.2979  0.3407
  471loPI    C1 7521   1.501  11.608  11.262  0.0825  0.2066  0.2738
  471loPI    C2 7522   1.439  11.970  11.103 -0.1732  0.1102  0.1485
  471loPI    C3 7523   1.496  11.932  11.497  0.1603  0.3178  0.1243
  471loPI   PO4 7524   1.497  11.486  11.121 -0.1044 -0.2342 -0.0621
  471loPI   GL1 7525   1.297  11.336  10.661  0.0131  0.0091 -0.0065
  471loPI   GL2 7526   1.158  11.563  10.419 -0.2260 -0.0258 -0.1011
  471loPI   C1A 7527   1.606  11.475  10.240 -0.0065 -0.0011  0.2817
  471loPI   C2A 7528   1.539  11.369   9.822  0.0323 -0.1238  0.1745
  471loPI   C3A 7529   1.547  11.450   9.401 -0.2079 -0.1061 -0.0033
  471loPI   C4A 7530   1.584  11.451   9.003 -0.0054  0.0924 -0.0424
  471loPI   C5A 7531   1.687  11.424   8.640 -0.0978  0.1087  0.3100
  471loPI   C6A 7532   1.933  11.346   8.290 -0.0610  0.2947 -0.4436
  471loPI   C1B 7533   1.097  11.613  10.009 -0.0471 -0.1938  0.1432
  471loPI   C2B 7534   1.056  11.605   9.572 -0.2902  0.0839  0.3453
  471loPI   C3B 7535   1.102  11.626   9.100  0.0729 -0.1749 -0.2952
  471loPI   C4B 7536   1.123  11.559   8.749 -0.0866 -0.3150 -0.3251
  472loPI    C1 7537  14.709  12.867  10.892 -0.1958 -0.1595  0.1168
  472loPI    C2 7538  15.096  12.839  10.988 -0.1074 -0.0389 -0.1930
  472loPI    C3 7539  14.858  13.092  11.187  0.0187  0.0367 -0.1368
  472loPI   PO4 7540  14.713  12.889  10.630 -0.1130  0.2290  0.1938
  472loPI   GL1 7541  14.797  13.002  10.294 -0.1195 -0.2937 -0.1653
  472loPI   GL2 7542  14.708  13.326  10.309 -0.0637  0.0482  0.0625
  472loPI   C1A 7543  14.915  12.740   9.984  0.1252  0.1209 -0.1500
  472loPI   C2A 7544  14.952  12.706   9.550  0.2083  0.1235  0.2030
  472loPI   C3A 7545  14.927  12.603   9.179 -0.3038 -0.0202  0.1624
  472loPI   C4A 7546  15.026  12.581   8.711  0.2732 -0.1195  0.0462
  472loPI   C5A 7547  15.512  12.504   8.521  0.4082  0.1126 -0.0621
  472loPI   C6A 7548  15.497  12.283   8.100  0.3707  0.0929  0.0604
  472loPI   C1B 7549  14.917  13.271   9.824 -0.1493 -0.2142  0.0707
  472loPI   C2B 7550  14.890  13.179   9.334  0.2375 -0.1261  0.0816
  472loPI   C3B 7551  14.890  13.067   8.900 -0.0791  0.1337  0.0093
  472loPI   C4B 7552  14.711  13.002   8.511 -0.3280 -0.2210  0.1037
  473loPI    C1 7553   7.058   6.637  10.822 -0.3484  0.0816 -0.1487
  473loPI    C2 7554   7.360   6.506  11.049 -0.0679  0.2381 -0.4222
  473loPI    C3 7555   6.983   6.416  11.146  0.0486  0.2470  0.0637
  473loPI   PO4 7556   7.009   6.513  10.536  0.2574 -0.0773 -0.0565
  473loPI   GL1 7557   6.649   6.588  10.227 -0.1385 -0.2132  0.0035
  473loPI   GL2 7558   6.352   6.514  10.290 -0.1414 -0.1450 -0.0743
  473loPI   C1A 7559   6.695   6.398   9.840  0.0559  0.2452 -0.1292
  473loPI   C2A 7560   6.646   6.418   9.360  0.2735  0.0542  0.1645
  473loPI   C3A 7561   6.719   6.385   8.934  0.1063  0.2645 -0.0485
  473loPI   C4A 7562   6.739   6.403   8.527 -0.2887 -0.3770 -0.2257
  473loPI   C5A 7563   6.897   6.347   8.145 -0.1188  0.0431  0.0356
  473loPI   C6A 7564   7.118   6.507   7.740 -0.1022  0.2423 -0.2461
  473loPI   C1B 7565   6.195   6.554   9.933  0.0617  0.0020  0.0386
  473loPI   C2B 7566   6.164   6.599   9.503 -0.2613 -0.1635 -0.0120
  473loPI   C3B 7567   6.147   6.577   9.048  0.0129 -0.0056  0.2977
  473loPI   C4B 7568   6.256   6.528   8.631  0.0719 -0.0528  0.2258
  474loPI    C1 7569   3.223   0.717  10.985  0.0700  0.1313 -0.0066
  474loPI    C2 7570   2.874   0.548  10.885  0.0906  0.0713  0.0221
  474loPI    C3 7571   2.889   0.815  11.182  0.0648  0.0936  0.0035
  474loPI   PO4 7572   3.315   0.768  10.687 -0.2167  0.0928 -0.0938
  474loPI   GL1 7573   3.449   0.670  10.321 -0.0233  0.0994 -0.2008
  474loPI   GL2 7574   3.123   0.808  10.171 -0.0248  0.0062 -0.1914
  474loPI   C1A 7575   3.578   0.740   9.977  0.2484 -0.2658  0.1506
  474loPI   C2A 7576   3.743   0.672   9.482 -0.1181  0.0152  0.1996
  474loPI   C3A 7577   3.721   0.772   9.042  0.0341  0.1530 -0.0696
  474loPI   C4A 7578   3.711   0.710   8.628 -0.0677 -0.1679 -0.1989
  474loPI   C5A 7579   3.878   0.482   8.376 -0.1353  0.0863  0.2228
  474loPI   C6A 7580   3.942   0.490   7.926  0.0912 -0.1236 -0.0118
  474loPI   C1B 7581   3.055   0.869   9.762 -0.1648 -0.3176 -0.1735
  474loPI   C2B 7582   3.146   0.804   9.383  0.2063 -0.2441 -0.4170
  474loPI   C3B 7583   3.205   0.870   8.979 -0.3656  0.0702  0.2730
  474loPI   C4B 7584   3.176   0.936   8.505 -0.1872 -0.0009 -0.0148
  475loPI    C1 7585   6.847   0.754  11.126  0.1119  0.4106 -0.0481
  475loPI    C2 7586   6.906   0.784  11.521 -0.1037 -0.3409  0.0568
  475loPI    C3 7587   7.218   0.744  11.274  0.0258  0.0242  0.1543
  475loPI   PO4 7588   6.729   0.944  11.027 -0.1171 -0.1665  0.1795
  475loPI   GL1 7589   6.825   0.967  10.605  0.2084  0.0552 -0.0976
  475loPI   GL2 7590   6.887   0.598  10.616  0.1638 -0.1513 -0.2361
  475loPI   C1A 7591   6.716   1.062  10.160  0.3914 -0.2049  0.1313
  475loPI   C2A 7592   6.703   1.111   9.709 -0.0740  0.2255  0.0492
  475loPI   C3A 7593   6.821   1.130   9.249  0.0809  0.1230  0.2450
  475loPI   C4A 7594   6.806   1.196   8.892 -0.0564 -0.2212 -0.1122
  475loPI   C5A 7595   7.108   1.152   8.642  0.0448  0.2301  0.1249
  475loPI   C6A 7596   7.406   1.247   8.256  0.0820  0.2747 -0.3360
  475loPI   C1B 7597   6.876   0.568  10.172 -0.1392  0.0440 -0.1277
  475loPI   C2B 7598   6.862   0.553   9.712 -0.1588  0.0659 -0.3465
  475loPI   C3B 7599   6.874   0.631   9.234 -0.2400 -0.3750 -0.1040
  475loPI   C4B 7600   7.016   0.645   8.822 -0.0418 -0.1579  0.2277
  476loPI    C1 7601  11.703   9.779  10.885  0.1973  0.0723 -0.0094
  476loPI    C2 7602  11.497   9.995  11.151  0.1680  0.0116  0.0174
  476loPI    C3 7603  11.606   9.621  11.239 -0.0303 -0.0851 -0.1400
  476loPI   PO4 7604  11.575   9.814  10.681  0.1064 -0.3463 -0.0011
  476loPI   GL1 7605  11.779   9.981  10.364 -0.0807 -0.1885  0.3257
  476loPI   GL2 7606  11.964  10.149  10.152 -0.2102 -0.0395 -0.1403
  476loPI   C1A 7607  11.663   9.865   9.929  0.0060 -0.0855 -0.1421
  476loPI   C2A 7608  11.724   9.943   9.532 -0.0988 -0.0604 -0.3746
  476loPI   C3A 7609  11.739   9.888   9.165  0.0701  0.0176  0.0837
  476loPI   C4A 7610  11.764   9.956   8.779 -0.1411  0.2389 -0.0365
  476loPI   C5A 7611  11.851  10.055   8.318  0.3251 -0.1470  0.2130
  476loPI   C6A 7612  11.979  10.157   7.858  0.1385 -0.2839 -0.0862
  476loPI   C1B 7613  12.118  10.160   9.738 -0.2569  0.2282 -0.3208
  476loPI   C2B 7614  12.185  10.246   9.254  0.1961  0.0269  0.1568
  476loPI   C3B 7615  12.208  10.252   8.755 -0.0644 -0.2335 -0.2315
  476loPI   C4B 7616  12.234  10.358   8.449  0.1957 -0.0273  0.0749
  477loPI    C1 7617   1.136  17.073  11.042  0.0418  0.2927  0.0373
  477loPI    C2 7618   1.330  16.853  11.315 -0.2151 -0.0448 -0.0450
  477loPI    C3 7619   0.972  17.009  11.401 -0.0578  0.3058 -0.0056
  477loPI   PO4 7620   1.165  17.029  10.876 -0.2437  0.0596  0.0179
  477loPI   GL1 7621   0.884  17.105  10.560  0.1759 -0.1365 -0.2912
  477loPI   GL2 7622   0.915  16.753  10.539  0.0382  0.1286  0.1759
  477loPI   C1A 7623   0.838  17.101  10.133 -0.3788 -0.0007 -0.3196
  477loPI   C2A 7624   0.969  16.952   9.757 -0.1165  0.0346  0.0875
  477loPI   C3A 7625   0.864  16.926   9.316  0.0778  0.0693 -0.0123
  477loPI   C4A 7626   0.857  16.981   8.893  0.0794 -0.0809 -0.1888
  477loPI   C5A 7627   0.892  16.830   8.527 -0.1928 -0.1774  0.1214
  477loPI   C6A 7628   0.554  16.644   8.276 -0.2801 -0.0107 -0.3279
  477loPI   C1B 7629   1.006  16.567  10.173 -0.0964 -0.0971  0.1030
  477loPI   C2B 7630   0.963  16.426   9.781  0.0364 -0.0330  0.0094
  477loPI   C3B 7631   1.060  16.449   9.382  0.2079 -0.2560  0.2689
  477loPI   C4B 7632   1.005  16.521   9.001  0.0937  0.1899 -0.0121
  478loPI    C1 7633  17.291  16.756  10.822 -0.2131  0.1702 -0.0368
  478loPI    C2 7634  17.102  16.885  11.150 -0.0573  0.1819  0.0491
  478loPI    C3 7635  17.347  16.569  11.170 -0.2322  0.0339 -0.1064
  478loPI   PO4 7636  17.232  16.964  10.577  0.0798 -0.0263  0.1745
  478loPI   GL1 7637  17.394  17.058  10.196  0.0991 -0.0229  0.0705
  478loPI   GL2 7638  17.665  16.860  10.265 -0.4995  0.3355 -0.0060
  478loPI   C1A 7639  17.185  17.049   9.848 -0.0332 -0.1826 -0.1248
  478loPI   C2A 7640  17.183  17.038   9.460 -0.2078 -0.2173 -0.2024
  478loPI   C3A 7641  17.132  17.062   8.989 -0.0125 -0.0864  0.1247
  478loPI   C4A 7642  17.125  17.128   8.551  0.0317 -0.0471  0.1511
  478loPI   C5A 7643  16.929  17.112   8.133 -0.1881 -0.1583 -0.2076
  478loPI   C6A 7644  16.563  17.163   7.772 -0.0675 -0.0245 -0.4104
  478loPI   C1B 7645  17.649  16.985   9.832 -0.0541  0.0303 -0.0321
  478loPI   C2B 7646  17.747  16.851   9.417 -0.1416 -0.1245  0.1770
  478loPI   C3B 7647  17.755  16.924   8.969 -0.1772 -0.1533  0.2262
  478loPI   C4B 7648  17.565  16.886   8.527  0.1582  0.1411 -0.1262
  479loPI    C1 7649   5.507  12.606  11.331  0.0258  0.0522  0.1080
  479loPI    C2 7650   5.466  12.208  11.348  0.0278  0.0502  0.0694
  479loPI    C3 7651   5.392  12.431  11.672 -0.0466  0.0251  0.0699
  479loPI   PO4 7652   5.530  12.671  11.046  0.3335  0.1565 -0.3229
  479loPI   GL1 7653   5.694  12.567  10.682 -0.2464 -0.4167  0.0528
  479loPI   GL2 7654   5.867  12.385  10.444  0.0625  0.0612 -0.0405
  479loPI   C1A 7655   5.730  12.780  10.248  0.2567 -0.0114  0.2260
  479loPI   C2A 7656   5.735  12.854   9.880  0.1209 -0.0689 -0.0844
  479loPI   C3A 7657   5.720  12.904   9.383  0.0999  0.0590  0.1611
  479loPI   C4A 7658   5.709  12.942   8.920  0.2585 -0.2200 -0.0938
  479loPI   C5A 7659   5.756  12.993   8.480 -0.0395  0.1212 -0.0948
  479loPI   C6A 7660   5.718  13.285   8.187 -0.0938  0.2887 -0.1394
  479loPI   C1B 7661   5.911  12.332   9.985 -0.3854 -0.0716 -0.1478
  479loPI   C2B 7662   5.863  12.396   9.584 -0.0237 -0.2072 -0.2273
  479loPI   C3B 7663   5.858  12.428   9.099  0.0479  0.0447 -0.5895
  479loPI   C4B 7664   5.899  12.492   8.701 -0.0536  0.2114 -0.0620
  480loPI    C1 7665  10.549  11.818  10.870  0.0025 -0.3719 -0.1265
  480loPI    C2 7666  10.193  11.713  11.021 -0.0369  0.0756  0.1072
  480loPI    C3 7667  10.449  11.927  11.242  0.1683  0.1959 -0.2390
  480loPI   PO4 7668  10.463  11.895  10.660 -0.2040  0.1600  0.0241
  480loPI   GL1 7669  10.250  12.105  10.337 -0.0369 -0.1179  0.2284
  480loPI   GL2 7670  10.031  11.957  10.122 -0.0675 -0.1164  0.0855
  480loPI   C1A 7671  10.450  12.221   9.966  0.0025 -0.0997  0.1519
  480loPI   C2A 7672  10.483  12.331   9.569  0.1263 -0.1077  0.0439
  480loPI   C3A 7673  10.487  12.439   9.199  0.0350 -0.1802 -0.3743
  480loPI   C4A 7674  10.475  12.427   8.762 -0.1678 -0.1177  0.1416
  480loPI   C5A 7675  10.397  12.352   8.313 -0.0943 -0.1185 -0.0551
  480loPI   C6A 7676  10.547  12.281   7.956 -0.0974  0.2569  0.0677
  480loPI   C1B 7677  10.037  12.033   9.721 -0.2624  0.2336 -0.1811
  480loPI   C2B 7678  10.095  11.959   9.300 -0.3159 -0.0007  0.0502
  480loPI   C3B 7679  10.123  12.120   8.926  0.2909  0.0553  0.2778
  480loPI   C4B 7680  10.146  11.944   8.560 -0.1300 -0.0979 -0.0562
  481loPI    C1 7681  14.353  13.324  10.942 -0.0517 -0.3909  0.0302
  481loPI    C2 7682  14.511  13.460  11.283  0.0205 -0.1628 -0.0915
  481loPI    C3 7683  14.117  13.396  11.256 -0.0077 -0.0250 -0.0158
  481loPI   PO4 7684  14.560  13.415  10.781  0.1329  0.0292  0.1741
  481loPI   GL1 7685  14.875  13.709  10.564  0.1047 -0.0135 -0.0120
  481loPI   GL2 7686  15.145  13.578  10.386 -0.2906  0.0349 -0.2395
  481loPI   C1A 7687  14.673  13.794  10.179  0.3533  0.0175  0.6032
  481loPI   C2A 7688  14.707  13.751   9.718  0.0345  0.2520 -0.1455
  481loPI   C3A 7689  14.739  13.643   9.293 -0.1497  0.0311  0.0736
  481loPI   C4A 7690  14.716  13.618   8.888 -0.0303  0.0052  0.0254
  481loPI   C5A 7691  14.488  13.476   8.450 -0.0927  0.1264 -0.0720
  481loPI   C6A 7692  14.542  13.539   8.002 -0.1575  0.2090  0.1312
  481loPI   C1B 7693  15.255  13.580   9.966  0.1772 -0.0695 -0.2963
  481loPI   C2B 7694  15.259  13.526   9.518  0.1151 -0.1679  0.0403
  481loPI   C3B 7695  15.300  13.441   9.092  0.1967  0.0843 -0.1409
  481loPI   C4B 7696  15.180  13.396   8.674 -0.2636 -0.0788  0.1432
  482loPI    C1 7697  17.760   6.380  10.803  0.0319  0.2907 -0.0821
  482loPI    C2 7698  17.997   6.684  10.912  0.2605  0.0972 -0.0319
  482loPI    C3 7699  17.905   6.397  11.175 -0.2271  0.2915  0.0207
  482loPI   PO4 7700  17.861   6.268  10.621  0.2394 -0.1105 -0.1888
  482loPI   GL1 7701  18.159   6.431  10.477  0.1923 -0.1781  0.2818
  482loPI   GL2 7702  18.281   6.604  10.220 -0.2491 -0.1204  0.1978
  482loPI   C1A 7703  18.055   6.214  10.010 -0.0049 -0.2379 -0.1522
  482loPI   C2A 7704  17.933   6.311   9.584 -0.0699  0.0569  0.2365
  482loPI   C3A 7705  17.916   6.454   9.092 -0.1961  0.0910  0.2604
  482loPI   C4A 7706  17.913   6.360   8.714  0.0915  0.0244 -0.0681
  482loPI   C5A 7707  18.000   6.342   8.322  0.2326  0.2111  0.0108
  482loPI   C6A 7708  18.403   6.417   8.061  0.1833 -0.2867  0.2104
  482loPI   C1B 7709  18.337   6.592   9.769  0.3261  0.0169  0.0849
  482loPI   C2B 7710  18.417   6.748   9.374 -0.0169  0.1086 -0.0939
  482loPI   C3B 7711  18.350   6.804   9.022 -0.1198 -0.2758 -0.1306
  482loPI   C4B 7712  18.204   6.712   8.653  0.1166  0.3121  0.2450
  483loPI    C1 7713   7.111  16.370  10.839  0.2194  0.1704  0.2246
  483loPI    C2 7714   6.729  16.487  10.817  0.0786 -0.2899  0.1120
  483loPI    C3 7715   6.975  16.658  11.081 -0.1301  0.2006  0.0006
  483loPI   PO4 7716   7.135  16.324  10.590  0.0933 -0.2887  0.0571
  483loPI   GL1 7717   6.822  16.198  10.415 -0.4224  0.0612  0.1590
  483loPI   GL2 7718   6.492  16.265  10.433 -0.2097 -0.2230  0.2672
  483loPI   C1A 7719   6.838  16.311  10.002  0.0330  0.0955  0.1554
  483loPI   C2A 7720   6.912  16.404   9.612  0.2803  0.2332 -0.3418
  483loPI   C3A 7721   6.889  16.375   9.220 -0.1344  0.1564 -0.1500
  483loPI   C4A 7722   6.926  16.422   8.771  0.1011 -0.0213 -0.1326
  483loPI   C5A 7723   6.791  16.593   8.379  0.0362  0.1109 -0.0280
  483loPI   C6A 7724   6.631  16.919   8.126  0.0335  0.1620  0.1823
  483loPI   C1B 7725   6.316  16.464   9.981 -0.2519 -0.1374  0.2593
  483loPI   C2B 7726   6.435  16.505   9.579  0.0137 -0.2748 -0.0604
  483loPI   C3B 7727   6.458  16.585   9.095  0.2375 -0.1013  0.3755
  483loPI   C4B 7728   6.427  16.505   8.677  0.3290 -0.0126 -0.0915
  484loPI    C1 7729  10.784  13.590  10.773 -0.1355 -0.1765 -0.2142
  484loPI    C2 7730  11.056  13.458  11.035  0.0070  0.0099 -0.2660
  484loPI    C3 7731  10.709  13.606  11.166  0.1539  0.2754 -0.1691
  484loPI   PO4 7732  10.903  13.751  10.623 -0.2331  0.1570 -0.2072
  484loPI   GL1 7733  10.794  13.916  10.216  0.0750 -0.0429 -0.2715
  484loPI   GL2 7734  10.958  14.040  10.044  0.1097 -0.0653  0.1416
  484loPI   C1A 7735  10.630  13.689   9.904 -0.0450 -0.0823 -0.0343
  484loPI   C2A 7736  10.604  13.667   9.487 -0.1740 -0.2075 -0.1307
  484loPI   C3A 7737  10.593  13.736   9.053 -0.0634  0.0535 -0.1753
  484loPI   C4A 7738  10.571  13.681   8.683 -0.2002  0.4053 -0.0864
  484loPI   C5A 7739  10.530  13.500   8.358  0.4434 -0.3824  0.2530
  484loPI   C6A 7740  10.842  13.472   8.010  0.0066 -0.4638 -0.0202
  484loPI   C1B 7741  11.026  13.983   9.663 -0.0236 -0.1104  0.0474
  484loPI   C2B 7742  10.981  14.061   9.257 -0.2191 -0.0775  0.2318
  484loPI   C3B 7743  10.983  14.033   8.773 -0.2912  0.0880  0.2151
  484loPI   C4B 7744  10.962  13.970   8.278 -0.1655 -0.0314 -0.3087
  485loPI    C1 7745  16.372   3.633  10.625 -0.0981 -0.0701  0.0073
  485loPI    C2 7746  16.134   3.489  10.913 -0.1652  0.1360  0.0563
  485loPI    C3 7747  16.482   3.663  11.009  0.1213 -0.3704 -0.0282
  485loPI   PO4 7748  16.274   3.465  10.391 -0.1658 -0.0016  0.1990
  485loPI   GL1 7749  16.061   3.614  10.098 -0.2126  0.0283 -0.0439
  485loPI   GL2 7750  15.765   3.724   9.981 -0.2224  0.0320 -0.1518
  485loPI   C1A 7751  16.281   3.571   9.687  0.0319 -0.0574 -0.3638
  485loPI   C2A 7752  16.168   3.614   9.288  0.0629  0.0120 -0.0028
  485loPI   C3A 7753  16.138   3.541   8.907  0.0892 -0.4170  0.1717
  485loPI   C4A 7754  16.139   3.450   8.512 -0.2268  0.0749 -0.0833
  485loPI   C5A 7755  16.335   3.430   8.134  0.1749 -0.0836 -0.1123
  485loPI   C6A 7756  16.567   3.214   7.874 -0.1169  0.0164  0.1844
  485loPI   C1B 7757  15.677   3.777   9.567  0.0151 -0.2925  0.0020
  485loPI   C2B 7758  15.671   3.680   9.132  0.1265  0.0350  0.3510
  485loPI   C3B 7759  15.652   3.636   8.629 -0.2613 -0.1151 -0.4688
  485loPI   C4B 7760  15.694   3.680   8.155  0.1314  0.0758 -0.4094
  486loPI    C1 7761   7.875  10.928  11.070  0.0738  0.0885 -0.0265
  486loPI    C2 7762   7.637  11.138  11.314  0.0645 -0.0658  0.0990
  486loPI    C3 7763   7.942  10.929  11.465  0.1882  0.0088 -0.0455
  486loPI   PO4 7764   7.902  11.158  10.863  0.4524  0.0611  0.0372
  486loPI   GL1 7765   7.851  11.402  10.468  0.0625 -0.0242  0.0058
  486loPI   GL2 7766   7.583  11.376  10.308 -0.0260  0.0366 -0.2450
  486loPI   C1A 7767   7.971  11.253  10.056  0.1397 -0.0280 -0.1628
  486loPI   C2A 7768   7.911  11.266   9.726 -0.1789  0.0233 -0.0040
  486loPI   C3A 7769   7.860  11.324   9.306 -0.2078  0.1588  0.2095
  486loPI   C4A 7770   7.938  11.276   8.898  0.1237  0.0446  0.1355
  486loPI   C5A 7771   7.858  11.311   8.452 -0.0059 -0.1855 -0.2852
  486loPI   C6A 7772   8.094  11.343   8.094 -0.4737  0.2096 -0.1998
  486loPI   C1B 7773   7.431  11.358   9.885 -0.1590 -0.0291  0.1688
  486loPI   C2B 7774   7.393  11.453   9.460 -0.0438  0.0065 -0.0595
  486loPI   C3B 7775   7.507  11.442   9.026  0.1229  0.0987 -0.1671
  486loPI   C4B 7776   7.419  11.398   8.661 -0.0659  0.0458  0.3344
  487loPI    C1 7777  11.480  17.676  10.895  0.0929 -0.1447  0.2130
  487loPI    C2 7778  11.385  17.949  11.171 -0.1022 -0.2001  0.2018
  487loPI    C3 7779  11.427  17.565  11.276  0.2487 -0.1562  0.2321
  487loPI   PO4 7780  11.487  17.855  10.679 -0.0136  0.0335 -0.2663
  487loPI   GL1 7781  11.698  17.927  10.327  0.1084 -0.0156  0.2030
  487loPI   GL2 7782  11.630  17.682  10.155  0.0910 -0.1504  0.0927
  487loPI   C1A 7783  11.762  18.068   9.879 -0.1053  0.0068  0.0789
  487loPI   C2A 7784  11.608  18.129   9.559 -0.1648  0.3467 -0.1848
  487loPI   C3A 7785  11.682  18.137   9.095 -0.2280  0.0968  0.2715
  487loPI   C4A 7786  11.675  18.014   8.677  0.0980  0.0465  0.3891
  487loPI   C5A 7787  11.510  17.955   8.269 -0.2490  0.1909  0.2084
  487loPI   C6A 7788  11.586  17.882   7.810 -0.0001 -0.2858 -0.0637
  487loPI   C1B 7789  11.700  17.491   9.759 -0.0809  0.3359 -0.1404
  487loPI   C2B 7790  11.804  17.657   9.383  0.2284  0.2162  0.4533
  487loPI   C3B 7791  11.737  17.643   8.980 -0.1149  0.4055 -0.3358
  487loPI   C4B 7792  11.708  17.513   8.450 -0.2084 -0.1016 -0.2797
  488loPI    C1 7793  18.050   9.243  11.015  0.1499  0.2831  0.0788
  488loPI    C2 7794  18.254   9.144  11.344 -0.0918  0.1067  0.1787
  488loPI    C3 7795  17.994   9.447  11.353  0.0233  0.2089  0.1031
  488loPI   PO4 7796  18.185   9.277  10.739  0.0872  0.2754 -0.0557
  488loPI   GL1 7797  18.183   9.456  10.430  0.2754  0.0511  0.0850
  488loPI   GL2 7798  17.894   9.313  10.288 -0.0097  0.0381 -0.1434
  488loPI   C1A 7799  18.277   9.585  10.024 -0.0241 -0.1237  0.2255
  488loPI   C2A 7800  18.262   9.640   9.648 -0.0899 -0.0170 -0.1465
  488loPI   C3A 7801  18.257   9.665   9.263 -0.3802 -0.1578 -0.1996
  488loPI   C4A 7802  18.299   9.622   8.873  0.0401  0.1430 -0.0147
  488loPI   C5A 7803  18.244   9.644   8.479  0.1152 -0.0553 -0.0783
  488loPI   C6A 7804  18.285   9.827   8.105  0.0743 -0.1214  0.0207
  488loPI   C1B 7805  17.932   9.299   9.834 -0.2204 -0.2061  0.1702
  488loPI   C2B 7806  17.858   9.370   9.379 -0.0496 -0.2892 -0.2450
  488loPI   C3B 7807  17.944   9.285   8.962  0.1707 -0.2094  0.1984
  488loPI   C4B 7808  17.819   9.262   8.544 -0.2625 -0.2142 -0.3082
  489loPI    C1 7809  10.325   2.587  10.877  0.3448 -0.2510 -0.0318
  489loPI    C2 7810  10.679   2.665  11.046  0.1336  0.0042  0.3084
  489loPI    C3 7811  10.343   2.706  11.259 -0.1268  0.1018 -0.1101
  489loPI   PO4 7812  10.323   2.642  10.646  0.2712 -0.1219 -0.3374
  489loPI   GL1 7813  10.423   2.727  10.298  0.2200  0.3064 -0.3711
  489loPI   GL2 7814  10.155   2.447  10.203 -0.1246 -0.1415 -0.0204
  489loPI   C1A 7815  10.615   2.648   9.890  0.1643  0.0476 -0.1160
  489loPI   C2A 7816  10.638   2.681   9.442  0.0560  0.1059 -0.2580
  489loPI   C3A 7817  10.659   2.706   8.978 -0.2665  0.1747  0.0289
  489loPI   C4A 7818  10.742   2.551   8.578 -0.2122  0.1649  0.4974
  489loPI   C5A 7819  10.878   2.576   8.143 -0.1732 -0.1912  0.1922
  489loPI   C6A 7820  10.928   2.723   7.793 -0.1314  0.4791 -0.1736
  489loPI   C1B 7821  10.232   2.395   9.760 -0.1048  0.2039  0.0996
  489loPI   C2B 7822  10.265   2.377   9.313 -0.5858  0.0228 -0.2150
  489loPI   C3B 7823  10.362   2.315   8.896 -0.1515  0.0050  0.1668
  489loPI   C4B 7824  10.356   2.252   8.417 -0.1515 -0.1522  0.3551
  490loPI    C1 7825   0.205  11.154  11.009 -0.0387 -0.0472  0.1380
  490loPI    C2 7826   0.151  10.780  11.141  0.0723 -0.0513  0.1733
  490loPI    C3 7827   0.135  11.086  11.398 -0.1231 -0.0215  0.1276
  490loPI   PO4 7828   0.284  11.137  10.745  0.1472  0.0081  0.1524
  490loPI   GL1 7829   0.512  11.014  10.320 -0.3632  0.1089 -0.0755
  490loPI   GL2 7830   0.709  11.335  10.183  0.0144 -0.0242 -0.1712
  490loPI   C1A 7831   0.331  10.993   9.923  0.4264  0.1576 -0.1551
  490loPI   C2A 7832   0.245  10.980   9.485  0.0741 -0.0620 -0.1366
  490loPI   C3A 7833   0.271  10.922   9.009 -0.0911  0.1494  0.4520
  490loPI   C4A 7834   0.330  11.121   8.609 -0.0397 -0.3814 -0.1631
  490loPI   C5A 7835   0.331  10.953   8.238  0.1400  0.0816  0.0222
  490loPI   C6A 7836   0.002  10.930   7.955 -0.2524 -0.1414  0.1347
  490loPI   C1B 7837   0.694  11.309   9.730  0.0798 -0.1840 -0.0472
  490loPI   C2B 7838   0.612  11.338   9.348 -0.2168  0.0001 -0.0732
  490loPI   C3B 7839   0.752  11.241   8.985  0.0113  0.0053  0.1521
  490loPI   C4B 7840   0.785  11.224   8.514  0.0357 -0.0001 -0.0132
  491loPI    C1 7841  11.796   4.114  10.466  0.1694  0.2536 -0.1468
  491loPI    C2 7842  12.009   4.308  10.743 -0.0283  0.4124 -0.1030
  491loPI    C3 7843  11.686   4.099  10.850  0.3232 -0.1583 -0.1145
  491loPI   PO4 7844  11.932   3.931  10.293 -0.0746 -0.2337 -0.1510
  491loPI   GL1 7845  12.006   4.009   9.905  0.0602  0.1447  0.0636
  491loPI   GL2 7846  11.782   3.842   9.708 -0.3012  0.4354 -0.2473
  491loPI   C1A 7847  12.272   3.876   9.559  0.2359 -0.2098  0.0745
  491loPI   C2A 7848  12.286   3.945   9.064 -0.1055 -0.3372 -0.2145
  491loPI   C3A 7849  12.358   4.014   8.650 -0.0891 -0.0792 -0.0240
  491loPI   C4A 7850  12.400   3.956   8.287 -0.1806 -0.1498 -0.3780
  491loPI   C5A 7851  12.380   3.761   7.812 -0.3065  0.0782 -0.1082
  491loPI   C6A 7852  12.353   3.466   7.443  0.1631  0.1462  0.0352
  491loPI   C1B 7853  11.873   3.670   9.367  0.0649 -0.0750 -0.0889
  491loPI   C2B 7854  11.869   3.637   8.975  0.0871  0.0531  0.2317
  491loPI   C3B 7855  11.897   3.638   8.534  0.1942 -0.0435  0.3224
  491loPI   C4B 7856  12.028   3.504   8.120  0.0344  0.0253  0.0160
  492loPI    C1 7857   6.414   2.011  11.357  0.2971  0.0524 -0.1061
  492loPI    C2 7858   6.545   1.689  11.554 -0.3298 -0.0746  0.1273
  492loPI    C3 7859   6.657   2.054  11.671  0.0240 -0.1844  0.1437
  492loPI   PO4 7860   6.410   1.889  11.090  0.2406 -0.1656 -0.1430
  492loPI   GL1 7861   6.488   1.722  10.613 -0.2178 -0.2272 -0.0999
  492loPI   GL2 7862   6.556   1.486  10.489 -0.1058 -0.0584  0.1682
  492loPI   C1A 7863   6.248   1.839  10.208  0.1314 -0.0805  0.0261
  492loPI   C2A 7864   6.192   1.844   9.778 -0.1875  0.1845  0.2031
  492loPI   C3A 7865   6.192   1.779   9.337  0.2684  0.3973 -0.0570
  492loPI   C4A 7866   6.247   1.763   8.914  0.2636 -0.4230 -0.0009
  492loPI   C5A 7867   6.141   1.936   8.464  0.0313  0.0738 -0.0579
  492loPI   C6A 7868   5.751   1.900   8.153  0.2784  0.2043  0.0450
  492loPI   C1B 7869   6.606   1.575   9.949 -0.1417 -0.0141  0.1450
  492loPI   C2B 7870   6.655   1.646   9.576 -0.4122  0.0379 -0.1632
  492loPI   C3B 7871   6.742   1.624   9.206 -0.2452  0.1849  0.1726
  492loPI   C4B 7872   6.780   1.775   8.905  0.0550 -0.0912 -0.1358
  493loPI    C1 7873   4.151  14.566  11.408  0.0823  0.1338  0.1359
  493loPI    C2 7874   4.414  14.642  11.699 -0.0860 -0.0608  0.3423
  493loPI    C3 7875   4.024  14.618  11.783 -0.1708  0.1965  0.0437
  493loPI   PO4 7876   4.251  14.571  11.086 -0.0598 -0.0561 -0.2004
  493loPI   GL1 7877   4.394  14.618  10.641 -0.1861  0.1851 -0.1749
  493loPI   GL2 7878   4.779  14.483  10.577 -0.1967 -0.1006 -0.0515
  493loPI   C1A 7879   4.481  14.778  10.233  0.0921  0.0259 -0.0196
  493loPI   C2A 7880   4.440  14.730   9.743  0.1461 -0.1784 -0.1979
  493loPI   C3A 7881   4.527  14.793   9.380 -0.0473  0.1405 -0.0631
  493loPI   C4A 7882   4.547  14.741   8.923 -0.2359  0.0139 -0.1648
  493loPI   C5A 7883   4.474  14.529   8.548 -0.0341 -0.2557 -0.1719
  493loPI   C6A 7884   4.751  14.114   8.485  0.2936  0.0392  0.1124
  493loPI   C1B 7885   4.903  14.484  10.116 -0.0092 -0.0728  0.2889
  493loPI   C2B 7886   4.920  14.537   9.682 -0.2333 -0.0436  0.1132
  493loPI   C3B 7887   4.925  14.536   9.203  0.0683  0.1379 -0.1108
  493loPI   C4B 7888   5.085  14.450   8.718 -0.1275  0.0419 -0.2350
  494loPI    C1 7889   9.778   6.244  10.260 -0.2017  0.4741 -0.1308
  494loPI    C2 7890   9.394   6.288  10.360 -0.1422  0.1069  0.2923
  494loPI    C3 7891   9.679   6.343  10.635  0.0913  0.0626  0.0628
  494loPI   PO4 7892   9.774   5.992  10.125  0.1001 -0.0008 -0.2257
  494loPI   GL1 7893   9.857   5.718   9.838 -0.2132 -0.0437  0.2911
  494loPI   GL2 7894   9.661   5.562   9.947  0.2837 -0.1210  0.0641
  494loPI   C1A 7895  10.021   5.773   9.469  0.3868  0.0130 -0.3158
  494loPI   C2A 7896  10.115   5.792   9.086  0.0472 -0.2103  0.1899
  494loPI   C3A 7897  10.189   5.755   8.642  0.2269 -0.1535 -0.1961
  494loPI   C4A 7898  10.221   5.748   8.238  0.3161 -0.0005  0.0479
  494loPI   C5A 7899  10.138   5.596   7.802  0.1875  0.3964  0.2370
  494loPI   C6A 7900  10.532   5.281   7.681  0.5559  0.0252  0.2669
  494loPI   C1B 7901   9.607   5.385   9.557 -0.2443 -0.3954  0.0677
  494loPI   C2B 7902   9.673   5.473   9.074 -0.0273 -0.2378 -0.0081
  494loPI   C3B 7903   9.798   5.411   8.613  0.3060  0.1959  0.1460
  494loPI   C4B 7904   9.893   5.341   8.236 -0.1990 -0.1979 -0.0611
  495loPI    C1 7905   5.949  16.047  11.417 -0.1938  0.1343  0.3081
  495loPI    C2 7906   6.279  16.023  11.643  0.0983 -0.3029 -0.1438
  495loPI    C3 7907   5.990  15.749  11.681 -0.0550 -0.1240  0.0016
  495loPI   PO4 7908   6.076  16.191  11.160 -0.1333  0.2148  0.0783
  495loPI   GL1 7909   6.047  16.260  10.732 -0.0786 -0.0860  0.1593
  495loPI   GL2 7910   6.019  16.580  10.479 -0.2428  0.0747 -0.2074
  495loPI   C1A 7911   6.043  16.086  10.267 -0.3477  0.0154 -0.0528
  495loPI   C2A 7912   6.000  16.078   9.827  0.2974 -0.1664  0.1036
  495loPI   C3A 7913   5.966  16.181   9.342  0.0527  0.0699  0.3158
  495loPI   C4A 7914   6.073  16.218   8.964 -0.3037  0.1054 -0.3054
  495loPI   C5A 7915   6.147  16.029   8.656 -0.3254  0.1780  0.0232
  495loPI   C6A 7916   6.262  15.617   8.455 -0.2335 -0.0978  0.2895
  495loPI   C1B 7917   5.851  16.519  10.089  0.2767  0.1672  0.0406
  495loPI   C2B 7918   5.823  16.578   9.715  0.0669 -0.0096  0.2831
  495loPI   C3B 7919   6.014  16.703   9.263  0.2207  0.2173  0.1664
  495loPI   C4B 7920   6.004  16.735   8.877  0.3909  0.3152  0.0741
  496loPI    C1 7921   8.240   1.890  11.034  0.0769  0.3390 -0.0611
  496loPI    C2 7922   8.286   2.237  11.229 -0.0362  0.3789 -0.1044
  496loPI    C3 7923   8.443   1.901  11.379 -0.1124  0.4112  0.0501
  496loPI   PO4 7924   8.257   1.943  10.804 -0.1970 -0.0220 -0.1080
  496loPI   GL1 7925   8.463   2.066  10.443 -0.1041  0.3155 -0.1148
  496loPI   GL2 7926   8.840   2.272  10.524 -0.0217 -0.3151 -0.0557
  496loPI   C1A 7927   8.445   2.035  10.013  0.2318  0.3349  0.1723
  496loPI   C2A 7928   8.468   2.064   9.621  0.2675 -0.0172 -0.1112
  496loPI   C3A 7929   8.535   2.021   9.180  0.0640  0.0153  0.1071
  496loPI   C4A 7930   8.633   2.017   8.752 -0.0800 -0.2116  0.3034
  496loPI   C5A 7931   8.739   2.081   8.302  0.3870 -0.2031 -0.0811
  496loPI   C6A 7932   8.972   2.215   8.144  0.0771  0.0139 -0.1373
  496loPI   C1B 7933   8.882   2.442  10.091  0.2941  0.1912  0.0006
  496loPI   C2B 7934   8.871   2.373   9.642 -0.1816 -0.1181 -0.0517
  496loPI   C3B 7935   8.898   2.349   9.182 -0.0031 -0.0379  0.0199
  496loPI   C4B 7936   8.969   2.355   8.754  0.3061  0.3215  0.0413
  497loPI    C1 7937   5.688  18.006  11.153 -0.2666  0.0073  0.1692
  497loPI    C2 7938   5.502  18.132  11.485 -0.1501 -0.0129  0.2428
  497loPI    C3 7939   5.902  18.126  11.469 -0.1549 -0.0120  0.1014
  497loPI   PO4 7940   5.599  18.119  10.965  0.0225 -0.1973  0.1095
  497loPI   GL1 7941   5.671  17.979  10.532  0.0403  0.1834 -0.1304
  497loPI   GL2 7942   5.868  17.721  10.700 -0.3785 -0.0185 -0.0285
  497loPI   C1A 7943   5.656  18.166  10.151  0.2327 -0.4050  0.0367
  497loPI   C2A 7944   5.574  18.155   9.759 -0.2483 -0.0018  0.1678
  497loPI   C3A 7945   5.716  18.253   9.392 -0.0956 -0.1347 -0.3558
  497loPI   C4A 7946   5.695  18.312   9.001  0.4719  0.0861 -0.2803
  497loPI   C5A 7947   5.669  18.437   8.560 -0.0141  0.0602  0.0097
  497loPI   C6A 7948   5.417  18.542   8.264 -0.0252 -0.0141 -0.2799
  497loPI   C1B 7949   5.662  17.535  10.435  0.2460 -0.0174  0.1398
  497loPI   C2B 7950   5.731  17.668  10.082 -0.1072  0.1120  0.0816
  497loPI   C3B 7951   5.714  17.687   9.620  0.1662  0.1548  0.1693
  497loPI   C4B 7952   5.783  17.807   9.155  0.0824 -0.2933 -0.0679
  498loPI    C1 7953  13.309  15.038  10.638 -0.0884 -0.1240  0.1400
  498loPI    C2 7954  13.687  15.151  10.702 -0.1360 -0.0226  0.2455
  498loPI    C3 7955  13.407  15.225  10.978 -0.2504 -0.0162  0.1286
  498loPI   PO4 7956  13.236  15.141  10.385  0.0208  0.0646 -0.3250
  498loPI   GL1 7957  13.058  15.272  10.061 -0.1173 -0.0698 -0.1020
  498loPI   GL2 7958  13.299  15.510   9.896 -0.2889  0.2355  0.0510
  498loPI   C1A 7959  13.013  15.302   9.590  0.0501 -0.2611  0.1214
  498loPI   C2A 7960  13.156  15.232   9.229 -0.0039 -0.0992 -0.3276
  498loPI   C3A 7961  13.134  15.107   8.840  0.2730  0.2349  0.0356
  498loPI   C4A 7962  12.967  15.147   8.402 -0.0299  0.1422  0.0388
  498loPI   C5A 7963  12.741  15.198   7.893  0.1210 -0.2716  0.1318
  498loPI   C6A 7964  12.728  15.440   7.482 -0.2531 -0.0551 -0.0230
  498loPI   C1B 7965  13.460  15.618   9.529  0.6467 -0.0449 -0.3744
  498loPI   C2B 7966  13.466  15.610   9.112  0.3586 -0.1428  0.0529
  498loPI   C3B 7967  13.475  15.489   8.619 -0.2534 -0.1503 -0.1168
  498loPI   C4B 7968  13.437  15.428   8.200  0.1650  0.3307  0.0717
  499loPI    C1 7969  14.313  17.251  10.927 -0.0112  0.2014 -0.1146
  499loPI    C2 7970  14.028  17.499  11.060  0.0354  0.1754  0.0362
  499loPI    C3 7971  14.411  17.570  11.148  0.0234 -0.1166  0.3428
  499loPI   PO4 7972  14.243  17.160  10.726 -0.0033  0.0765  0.0786
  499loPI   GL1 7973  14.149  17.046  10.386  0.3004  0.1365 -0.2490
  499loPI   GL2 7974  13.805  16.829  10.396  0.3901  0.0394  0.3185
  499loPI   C1A 7975  14.138  16.801   9.962  0.1954 -0.0779 -0.6134
  499loPI   C2A 7976  14.155  16.742   9.556  0.1315  0.0243 -0.0141
  499loPI   C3A 7977  14.148  16.607   9.179  0.0428  0.1025  0.2025
  499loPI   C4A 7978  14.118  16.597   8.665  0.2418 -0.1922  0.3750
  499loPI   C5A 7979  13.987  16.599   8.329  0.2522 -0.1316 -0.2097
  499loPI   C6A 7980  14.127  16.433   7.965  0.3427 -0.3875  0.0694
  499loPI   C1B 7981  13.694  17.014   9.955 -0.0874  0.3275 -0.3322
  499loPI   C2B 7982  13.617  16.915   9.515 -0.3668 -0.0035  0.3304
  499loPI   C3B 7983  13.722  16.871   9.111  0.0824 -0.0117  0.0196
  499loPI   C4B 7984  13.615  16.763   8.636 -0.2083  0.0832  0.1029
  500loPI    C1 7985   9.846   4.653  10.504 -0.2471  0.1626 -0.1214
  500loPI    C2 7986  10.121   4.862  10.705 -0.0626  0.0482 -0.2523
  500loPI    C3 7987   9.735   4.894  10.803  0.0082  0.1188  0.0113
  500loPI   PO4 7988   9.876   4.737  10.198 -0.0236 -0.0639 -0.0571
  500loPI   GL1 7989   9.930   4.508   9.806 -0.0800  0.0893 -0.0468
  500loPI   GL2 7990  10.245   4.303   9.733  0.0088 -0.0138 -0.1411
  500loPI   C1A 7991   9.817   4.514   9.445 -0.0556  0.1145 -0.1419
  500loPI   C2A 7992   9.986   4.378   9.049  0.2883  0.1807 -0.1394
  500loPI   C3A 7993  10.052   4.372   8.642 -0.0628  0.1218 -0.0117
  500loPI   C4A 7994   9.996   4.328   8.227 -0.0181 -0.3031  0.0945
  500loPI   C5A 7995   9.949   4.346   7.860 -0.2708  0.0048  0.0605
  500loPI   C6A 7996   9.913   4.058   7.508 -0.2436  0.0156 -0.0337
  500loPI   C1B 7997  10.337   4.163   9.403  0.0640  0.0515  0.0264
  500loPI   C2B 7998  10.424   4.175   8.969  0.0777  0.2544 -0.0019
  500loPI   C3B 7999  10.522   4.128   8.568  0.0388 -0.0467 -0.0529
  500loPI   C4B 8000  10.483   4.150   8.194  0.0451  0.0000 -0.1901
  501loPI    C1 8001   1.579   0.933  11.076 -0.1840 -0.0578 -0.1738
  501loPI    C2 8002   1.376   0.589  11.093  0.0049 -0.1602  0.0755
  501loPI    C3 8003   1.385   0.832  11.411 -0.0830  0.0517 -0.0814
  501loPI   PO4 8004   1.641   0.961  10.828  0.3271  0.2208 -0.0993
  501loPI   GL1 8005   1.771   0.867  10.348  0.2128  0.3857 -0.1973
  501loPI   GL2 8006   1.552   0.599  10.205  0.0034 -0.1391 -0.0735
  501loPI   C1A 8007   1.798   0.828   9.860 -0.1949 -0.2220  0.0650
  501loPI   C2A 8008   1.812   0.707   9.498  0.0461  0.3181 -0.1519
  501loPI   C3A 8009   1.843   0.926   9.129 -0.1045  0.1796  0.4084
  501loPI   C4A 8010   1.893   0.897   8.691 -0.1394 -0.0049 -0.2353
  501loPI   C5A 8011   1.845   0.829   8.281  0.4243  0.1132  0.2053
  501loPI   C6A 8012   1.785   0.432   8.061 -0.1061  0.0554 -0.1440
  501loPI   C1B 8013   1.372   0.446   9.852  0.1662  0.0125  0.1092
  501loPI   C2B 8014   1.403   0.450   9.473 -0.2604  0.0272  0.2980
  501loPI   C3B 8015   1.495   0.598   8.961  0.1598 -0.2867  0.1653
  501loPI   C4B 8016   1.317   0.522   8.581 -0.2104  0.1973 -0.0221
  502loPI    C1 8017   3.722   4.074  11.392  0.0266  0.0245 -0.2753
  502loPI    C2 8018   3.613   3.689  11.405  0.1016  0.0135  0.1852
  502loPI    C3 8019   3.344   3.976  11.479  0.0506  0.0531 -0.1374
  502loPI   PO4 8020   3.826   4.131  11.151 -0.1748  0.1543 -0.0321
  502loPI   GL1 8021   3.877   4.137  10.719 -0.1127 -0.0323  0.0015
  502loPI   GL2 8022   4.192   4.303  10.559 -0.2955 -0.1473  0.2087
  502loPI   C1A 8023   3.962   3.939  10.271 -0.3677 -0.1831 -0.1059
  502loPI   C2A 8024   3.931   3.978   9.797  0.0718  0.0961  0.0863
  502loPI   C3A 8025   3.966   4.063   9.502 -0.2762  0.0831  0.0040
  502loPI   C4A 8026   4.037   3.929   9.067 -0.2071  0.2047 -0.1046
  502loPI   C5A 8027   4.124   4.062   8.584  0.2090  0.0532  0.0273
  502loPI   C6A 8028   4.063   3.964   8.220  0.0225  0.1379  0.2309
  502loPI   C1B 8029   4.342   4.303  10.050  0.1835 -0.3755  0.1204
  502loPI   C2B 8030   4.347   4.360   9.626  0.1228  0.0767 -0.1266
  502loPI   C3B 8031   4.365   4.448   9.152 -0.1014  0.3094 -0.0741
  502loPI   C4B 8032   4.447   4.434   8.752 -0.2935  0.0780  0.0958
  503loPI    C1 8033  16.732   2.311  10.782  0.0843  0.3162  0.0007
  503loPI    C2 8034  16.892   2.064  11.053  0.1667  0.3754  0.0065
  503loPI    C3 8035  16.846   2.452  11.138 -0.1381  0.3286  0.0688
  503loPI   PO4 8036  16.651   2.095  10.549 -0.0486  0.1783  0.1468
  503loPI   GL1 8037  16.522   2.233  10.215  0.1894  0.0188  0.2381
  503loPI   GL2 8038  16.508   2.555  10.025 -0.1542  0.0947 -0.0813
  503loPI   C1A 8039  16.356   2.097   9.827  0.0768 -0.2415  0.0150
  503loPI   C2A 8040  16.362   2.105   9.432 -0.1425  0.0743 -0.2719
  503loPI   C3A 8041  16.354   2.123   9.014 -0.1295 -0.0034  0.2472
  503loPI   C4A 8042  16.476   2.018   8.598 -0.0928  0.0390 -0.2096
  503loPI   C5A 8043  16.399   1.884   8.188 -0.0310  0.0457 -0.0315
  503loPI   C6A 8044  16.549   1.794   7.829 -0.0228  0.2388 -0.1001
  503loPI   C1B 8045  16.366   2.563   9.611  0.2187  0.2988 -0.1946
  503loPI   C2B 8046  16.281   2.622   9.134 -0.0429  0.0942  0.1375
  503loPI   C3B 8047  16.373   2.558   8.709 -0.1661  0.2637 -0.1494
  503loPI   C4B 8048  16.584   2.430   8.204  0.1107 -0.0754  0.4922
  504loPI    C1 8049   8.213   4.232  10.720 -0.1053  0.1524 -0.1164
  504loPI    C2 8050   8.284   4.614  10.817 -0.2617  0.1676 -0.0599
  504loPI    C3 8051   8.573   4.341  10.857 -0.2557  0.2146  0.2416
  504loPI   PO4 8052   8.161   4.239  10.514  0.0999  0.3006  0.1032
  504loPI   GL1 8053   8.327   4.272  10.101  0.1251 -0.0294  0.1605
  504loPI   GL2 8054   8.524   3.960  10.000 -0.1523  0.0467  0.0437
  504loPI   C1A 8055   8.348   4.316   9.657 -0.0527 -0.1483  0.0028
  504loPI   C2A 8056   8.481   4.316   9.293 -0.2189 -0.0003  0.1129
  504loPI   C3A 8057   8.718   4.338   8.925  0.1585 -0.1484  0.3005
  504loPI   C4A 8058   8.668   4.375   8.514 -0.0751 -0.0640 -0.0796
  504loPI   C5A 8059   8.496   4.303   8.124  0.1702 -0.1293  0.1170
  504loPI   C6A 8060   8.159   4.527   7.874  0.0346 -0.0570  0.2209
  504loPI   C1B 8061   8.568   3.833   9.588  0.3958 -0.0368 -0.0789
  504loPI   C2B 8062   8.669   3.882   9.055 -0.1408 -0.0311 -0.0227
  504loPI   C3B 8063   8.763   3.911   8.691 -0.1331  0.0414 -0.0002
  504loPI   C4B 8064   8.721   3.787   8.265  0.3954 -0.0581  0.0999
  505loPI    C1 8065  11.711   6.798  10.728  0.0527 -0.1069  0.0786
  505loPI    C2 8066  11.914   7.059  10.503 -0.0085 -0.1307 -0.0048
  505loPI    C3 8067  12.109   6.766  10.694  0.0660  0.0041  0.1279
  505loPI   PO4 8068  11.575   6.666  10.602  0.1142 -0.2441 -0.0773
  505loPI   GL1 8069  11.515   7.007  10.164  0.2653 -0.0354  0.0640
  505loPI   GL2 8070  11.705   7.107  10.032  0.0756  0.0681 -0.2242
  505loPI   C1A 8071  11.427   6.713   9.841  0.0142  0.1518  0.2072
  505loPI   C2A 8072  11.333   6.673   9.486  0.1526  0.3748 -0.0608
  505loPI   C3A 8073  11.379   6.752   8.941 -0.1454 -0.1564  0.3198
  505loPI   C4A 8074  11.423   6.646   8.591  0.2224 -0.1233  0.3250
  505loPI   C5A 8075  11.384   6.682   8.174  0.2688  0.1350  0.1044
  505loPI   C6A 8076  11.485   6.718   7.689 -0.1641 -0.1946 -0.1889
  505loPI   C1B 8077  11.790   6.984   9.586 -0.2155 -0.1058  0.0027
  505loPI   C2B 8078  11.759   6.990   9.160  0.1547  0.2608  0.1617
  505loPI   C3B 8079  11.827   6.949   8.757  0.0429  0.2995  0.1987
  505loPI   C4B 8080  11.860   7.006   8.319 -0.0121  0.0755  0.0659
  506loPI    C1 8081   7.272  11.833  11.093  0.2306  0.0241 -0.1414
  506loPI    C2 8082   7.575  12.015  11.281 -0.0144  0.0759  0.2149
  506loPI    C3 8083   7.424  11.675  11.428 -0.0233 -0.0390 -0.0533
  506loPI   PO4 8084   7.365  11.895  10.810 -0.1494 -0.0365 -0.1054
  506loPI   GL1 8085   7.335  11.779  10.443  0.0675  0.0772 -0.1288
  506loPI   GL2 8086   7.595  12.002  10.419  0.0580  0.2763 -0.0686
  506loPI   C1A 8087   7.274  11.777  10.054  0.5136 -0.1196  0.0659
  506loPI   C2A 8088   7.333  12.000   9.665 -0.0519 -0.0633  0.1436
  506loPI   C3A 8089   7.321  11.968   9.202 -0.2429  0.1900  0.0672
  506loPI   C4A 8090   7.307  11.899   8.757 -0.0292  0.2304  0.1473
  506loPI   C5A 8091   7.418  11.827   8.307  0.0062 -0.1508  0.0266
  506loPI   C6A 8092   7.789  11.782   8.087 -0.3723  0.2423 -0.3405
  506loPI   C1B 8093   7.787  11.780  10.081 -0.0678 -0.0861 -0.0680
  506loPI   C2B 8094   7.790  11.702   9.594 -0.1860 -0.0625  0.0288
  506loPI   C3B 8095   7.866  11.804   9.118  0.1274  0.0360 -0.3059
  506loPI   C4B 8096   7.833  11.747   8.696  0.1204 -0.3936  0.3065
  507loPI    C1 8097   6.937  11.487  10.893 -0.1418 -0.0763 -0.0927
  507loPI    C2 8098   6.708  11.760  11.075 -0.0407  0.0304 -0.1243
  507loPI    C3 8099   6.929  11.509  11.293 -0.0324  0.0609 -0.0972
  507loPI   PO4 8100   6.967  11.603  10.696 -0.3129  0.2263  0.1927
  507loPI   GL1 8101   6.789  11.753  10.235 -0.3073 -0.2787 -0.0276
  507loPI   GL2 8102   6.513  11.611  10.030 -0.0668  0.0224  0.0527
  507loPI   C1A 8103   6.891  12.043   9.947 -0.1590  0.4047  0.0644
  507loPI   C2A 8104   6.899  12.046   9.473  0.3623 -0.1894  0.1669
  507loPI   C3A 8105   6.867  12.006   9.002 -0.1581 -0.0712 -0.0733
  507loPI   C4A 8106   6.846  12.088   8.583  0.2439  0.2539  0.0603
  507loPI   C5A 8107   7.013  12.009   8.065  0.0809 -0.0478  0.2144
  507loPI   C6A 8108   6.628  12.001   7.836 -0.1616  0.2309  0.0109
  507loPI   C1B 8109   6.432  11.792   9.533  0.1035 -0.2628  0.1856
  507loPI   C2B 8110   6.449  11.724   9.104  0.1805  0.0320 -0.1517
  507loPI   C3B 8111   6.490  11.705   8.731 -0.1708 -0.0475  0.1351
  507loPI   C4B 8112   6.485  11.720   8.239  0.1520 -0.2365  0.0200
  508loPI    C1 8113   0.677   1.330  10.489  0.0488 -0.1078 -0.1544
  508loPI    C2 8114   0.537   1.079  10.768  0.0869 -0.2714 -0.2807
  508loPI    C3 8115   0.733   1.410  10.877 -0.0653 -0.2359 -0.1105
  508loPI   PO4 8116   0.793   1.164  10.336  0.2333  0.0311 -0.1058
  508loPI   GL1 8117   0.686   1.059   9.958  0.2622  0.0058 -0.0322
  508loPI   GL2 8118   0.351   0.889   9.952  0.1955  0.3328 -0.0621
  508loPI   C1A 8119   0.836   1.119   9.560  0.1557 -0.1076 -0.0100
  508loPI   C2A 8120   0.809   1.183   9.112 -0.1879  0.1959  0.2555
  508loPI   C3A 8121   0.821   1.283   8.703  0.2140 -0.0925  0.1413
  508loPI   C4A 8122   0.854   1.164   8.256 -0.0567  0.1594  0.2687
  508loPI   C5A 8123   0.779   1.379   7.834  0.2730 -0.4007  0.1971
  508loPI   C6A 8124   0.487   1.688   7.511 -0.0755  0.0411  0.0686
  508loPI   C1B 8125   0.414   0.879   9.568  0.0339  0.1783 -0.2326
  508loPI   C2B 8126   0.447   0.853   9.128  0.1550 -0.0389  0.1134
  508loPI   C3B 8127   0.340   0.865   8.716 -0.2001 -0.0604  0.0554
  508loPI   C4B 8128   0.333   0.795   8.345 -0.2270 -0.0589  0.4881
  509loPI    C1 8129   2.021   4.492  10.595  0.1806 -0.1603 -0.0313
  509loPI    C2 8130   1.977   4.409  10.984  0.1080 -0.2027 -0.0482
  509loPI    C3 8131   1.896   4.129  10.709  0.0948 -0.1517 -0.0965
  509loPI   PO4 8132   2.017   4.697  10.569  0.0381 -0.3623  0.0096
  509loPI   GL1 8133   2.205   4.846  10.206  0.0091  0.2057  0.1808
  509loPI   GL2 8134   2.061   4.652  10.068 -0.0753 -0.2124  0.3405
  509loPI   C1A 8135   2.415   4.979   9.816 -0.1209  0.1152 -0.0222
  509loPI   C2A 8136   2.379   5.016   9.435  0.2650  0.2135  0.1122
  509loPI   C3A 8137   2.371   5.080   8.990  0.2822  0.0074  0.0957
  509loPI   C4A 8138   2.511   5.013   8.564 -0.0049  0.1313  0.0091
  509loPI   C5A 8139   2.477   5.044   8.182  0.0091  0.2216  0.0516
  509loPI   C6A 8140   2.585   5.313   7.830  0.1488 -0.0680  0.1000
  509loPI   C1B 8141   2.058   4.692   9.650 -0.0504  0.2591  0.1656
  509loPI   C2B 8142   2.012   4.702   9.194 -0.1139  0.0492  0.0471
  509loPI   C3B 8143   1.931   4.679   8.857 -0.0040  0.2151 -0.1324
  509loPI   C4B 8144   2.082   4.757   8.420 -0.3426 -0.0288  0.0509
  510loPI    C1 8145   9.827   9.537  10.739  0.2112  0.1720 -0.0594
  510loPI    C2 8146   9.518   9.405  10.957  0.1714  0.1549 -0.1258
  510loPI    C3 8147   9.862   9.503  11.136  0.2785 -0.2553 -0.0976
  510loPI   PO4 8148   9.744   9.638  10.550  0.6352  0.0887 -0.0993
  510loPI   GL1 8149   9.750   9.567  10.198  0.0100  0.2441  0.1997
  510loPI   GL2 8150   9.930   9.647   9.989  0.2005  0.1098  0.0498
  510loPI   C1A 8151   9.464   9.365   9.899 -0.1967  0.1137 -0.2826
  510loPI   C2A 8152   9.492   9.333   9.542  0.1794 -0.1241  0.3790
  510loPI   C3A 8153   9.472   9.344   9.080 -0.2177  0.1843  0.1429
  510loPI   C4A 8154   9.617   9.310   8.654 -0.2890  0.4551  0.1044
  510loPI   C5A 8155   9.626   9.283   8.251 -0.3139 -0.1106 -0.1563
  510loPI   C6A 8156   9.656   9.294   7.773  0.1203 -0.1908 -0.2416
  510loPI   C1B 8157   9.955   9.568   9.560  0.1145  0.2144 -0.1420
  510loPI   C2B 8158  10.080   9.563   9.198  0.2626  0.1293 -0.0312
  510loPI   C3B 8159  10.038   9.599   8.748 -0.1613  0.0997 -0.0555
  510loPI   C4B 8160  10.090   9.688   8.281  0.0726  0.1681  0.0006
  511loPI    C1 8161   7.632   7.003  10.403  0.0184 -0.0858 -0.0283
  511loPI    C2 8162   7.638   7.299  10.672 -0.1036  0.0336 -0.1553
  511loPI    C3 8163   7.414   6.974  10.737  0.0687 -0.0545  0.0073
  511loPI   PO4 8164   7.576   7.144  10.159 -0.1977 -0.2178 -0.3786
  511loPI   GL1 8165   7.407   7.144   9.788 -0.2478 -0.2093  0.0753
  511loPI   GL2 8166   7.184   7.340   9.823 -0.0250  0.1272 -0.1716
  511loPI   C1A 8167   7.576   7.138   9.456 -0.1510  0.1360 -0.2920
  511loPI   C2A 8168   7.599   7.078   9.059 -0.3296  0.0529  0.2508
  511loPI   C3A 8169   7.598   7.078   8.663  0.1394  0.1250 -0.1583
  511loPI   C4A 8170   7.729   7.152   8.184  0.1492  0.0241  0.0421
  511loPI   C5A 8171   7.920   7.386   7.834 -0.1275  0.2140  0.1684
  511loPI   C6A 8172   8.040   7.455   7.327  0.0377  0.0265 -0.1686
  511loPI   C1B 8173   7.138   7.411   9.401 -0.3092 -0.2064  0.0016
  511loPI   C2B 8174   7.105   7.299   8.949 -0.1431 -0.1770  0.1141
  511loPI   C3B 8175   7.142   7.309   8.514 -0.0530 -0.3501 -0.1627
  511loPI   C4B 8176   7.229   7.296   8.183 -0.0170  0.3086  0.0071
  512loPI    C1 8177  17.852  10.217  10.877  0.0161 -0.0234  0.0405
  512loPI    C2 8178  17.907  10.548  11.094  0.1410 -0.0584  0.0632
  512loPI    C3 8179  17.564  10.344  11.124 -0.0852  0.2679 -0.2202
  512loPI   PO4 8180  17.915  10.261  10.665 -0.0141  0.0670  0.2604
  512loPI   GL1 8181  17.915  10.365  10.321  0.1088 -0.2988  0.1848
  512loPI   GL2 8182  18.068  10.606  10.211 -0.2455  0.1160 -0.2760
  512loPI   C1A 8183  17.740  10.280   9.813  0.0292 -0.0668 -0.0986
  512loPI   C2A 8184  17.685  10.316   9.396 -0.1582 -0.0755 -0.0441
  512loPI   C3A 8185  17.638  10.267   9.051 -0.3852  0.1704  0.3274
  512loPI   C4A 8186  17.648  10.236   8.659  0.0067  0.2165 -0.1899
  512loPI   C5A 8187  17.761  10.107   8.247 -0.1153  0.3655 -0.2600
  512loPI   C6A 8188  17.897  10.142   7.827 -0.2301  0.1150  0.0103
  512loPI   C1B 8189  18.072  10.620   9.734 -0.2611  0.2324  0.0405
  512loPI   C2B 8190  18.114  10.677   9.269  0.1517  0.2857 -0.1317
  512loPI   C3B 8191  18.095  10.602   8.825 -0.3015  0.2193 -0.4445
  512loPI   C4B 8192  18.107  10.620   8.429 -0.0992 -0.0167  0.2424
  513loPI    C1 8193  13.925  13.145  10.669  0.1231  0.0539 -0.0138
  513loPI    C2 8194  14.170  12.839  10.752  0.0973  0.0371  0.0007
  513loPI    C3 8195  14.245  13.076  10.439  0.1436  0.0446  0.0175
  513loPI   PO4 8196  13.741  13.115  10.645 -0.3380  0.1558 -0.3804
  513loPI   GL1 8197  13.565  13.126  10.248  0.4269 -0.1413  0.0736
  513loPI   GL2 8198  13.816  13.418  10.168 -0.1306  0.1208  0.2083
  513loPI   C1A 8199  13.456  13.140   9.801 -0.2651 -0.3109 -0.1207
  513loPI   C2A 8200  13.533  13.165   9.343  0.1086 -0.2932  0.0388
  513loPI   C3A 8201  13.461  13.076   9.042  0.1056 -0.0326 -0.2661
  513loPI   C4A 8202  13.569  13.131   8.699 -0.2856 -0.0958 -0.1349
  513loPI   C5A 8203  13.560  13.015   8.209  0.0519 -0.1736 -0.1956
  513loPI   C6A 8204  13.277  12.977   7.858  0.1618  0.1504  0.4603
  513loPI   C1B 8205  13.846  13.441   9.757  0.1947 -0.0309  0.0139
  513loPI   C2B 8206  13.917  13.445   9.411 -0.1603  0.0484  0.0616
  513loPI   C3B 8207  13.904  13.466   8.974 -0.0273 -0.0892 -0.2219
  513loPI   C4B 8208  13.999  13.417   8.596 -0.1622 -0.0840 -0.0425
  514loPI    C1 8209   1.277   8.037  10.744 -0.0313 -0.2181  0.0376
  514loPI    C2 8210   1.656   8.037  10.871 -0.0212 -0.3697  0.0095
  514loPI    C3 8211   1.359   7.948  11.125 -0.0405 -0.2286  0.0373
  514loPI   PO4 8212   1.226   8.253  10.646  0.2715 -0.2498 -0.1481
  514loPI   GL1 8213   0.981   8.594  10.423 -0.2527 -0.0073  0.1979
  514loPI   GL2 8214   0.965   8.366  10.221 -0.1727  0.0797  0.1699
  514loPI   C1A 8215   1.164   8.697  10.002 -0.0037  0.0731  0.1070
  514loPI   C2A 8216   1.078   8.671   9.647 -0.0655 -0.0140 -0.0103
  514loPI   C3A 8217   1.162   8.680   9.174  0.0035  0.0495  0.0823
  514loPI   C4A 8218   1.208   8.757   8.736 -0.2059  0.1000 -0.2538
  514loPI   C5A 8219   1.102   8.708   8.278 -0.1434  0.1430  0.1736
  514loPI   C6A 8220   0.893   8.755   8.082  0.0350 -0.3041  0.1665
  514loPI   C1B 8221   1.198   8.259   9.802  0.0820  0.2261 -0.3147
  514loPI   C2B 8222   1.239   8.184   9.377 -0.0785 -0.1689  0.1784
  514loPI   C3B 8223   1.258   8.258   8.967  0.1173  0.1397  0.1293
  514loPI   C4B 8224   1.291   8.314   8.518 -0.2811 -0.0014  0.0838
  515loPI    C1 8225   4.038   6.285  10.810 -0.0243 -0.0212  0.0024
  515loPI    C2 8226   4.125   6.047  11.119  0.0509  0.0720  0.0536
  515loPI    C3 8227   4.093   6.442  11.174  0.0920  0.0918 -0.0630
  515loPI   PO4 8228   4.226   6.305  10.650  0.0673  0.0530 -0.5544
  515loPI   GL1 8229   4.097   6.391  10.305 -0.0224 -0.0384 -0.1587
  515loPI   GL2 8230   4.429   6.180  10.212  0.0313 -0.0118 -0.1166
  515loPI   C1A 8231   3.887   6.390   9.840 -0.0502  0.1114 -0.1007
  515loPI   C2A 8232   4.019   6.390   9.428  0.3992  0.0515 -0.1357
  515loPI   C3A 8233   3.978   6.431   9.072 -0.0083  0.0250 -0.0277
  515loPI   C4A 8234   4.016   6.421   8.617  0.0961  0.2886 -0.2018
  515loPI   C5A 8235   3.876   6.513   8.264  0.2168 -0.3325  0.1193
  515loPI   C6A 8236   3.521   6.476   8.165 -0.2747  0.2304  0.1390
  515loPI   C1B 8237   4.447   6.200   9.713 -0.0374 -0.2993  0.1869
  515loPI   C2B 8238   4.451   6.228   9.270  0.3117 -0.1562 -0.1389
  515loPI   C3B 8239   4.473   6.264   8.807 -0.2058  0.3472 -0.0845
  515loPI   C4B 8240   4.441   6.328   8.338  0.1537  0.0658  0.2977
  516loPI    C1 8241   4.718   2.656  11.125  0.0315 -0.2193 -0.0604
  516loPI    C2 8242   4.381   2.725  11.329  0.1470 -0.2099  0.1287
  516loPI    C3 8243   4.682   2.989  11.343  0.0313 -0.0449 -0.3210
  516loPI   PO4 8244   4.640   2.577  10.925  0.2182  0.1811  0.1090
  516loPI   GL1 8245   4.534   2.702  10.581  0.3559  0.0655  0.0677
  516loPI   GL2 8246   4.301   2.451  10.474  0.1525 -0.0261 -0.2137
  516loPI   C1A 8247   4.677   2.688  10.252  0.2748  0.2047  0.0164
  516loPI   C2A 8248   4.631   2.681   9.836  0.1853  0.1649 -0.1721
  516loPI   C3A 8249   4.560   2.716   9.396 -0.1395 -0.1977 -0.1231
  516loPI   C4A 8250   4.625   2.787   8.950 -0.2854  0.3307  0.1054
  516loPI   C5A 8251   4.822   2.751   8.532 -0.0485  0.3506  0.2873
  516loPI   C6A 8252   4.923   2.522   8.129 -0.0172  0.2813  0.0683
  516loPI   C1B 8253   4.258   2.439  10.081 -0.2198  0.0945 -0.0592
  516loPI   C2B 8254   4.221   2.363   9.644  0.1130  0.2366 -0.2621
  516loPI   C3B 8255   4.242   2.380   9.209 -0.1867 -0.2179  0.1790
  516loPI   C4B 8256   4.323   2.385   8.790 -0.1181  0.0136  0.2381
  517loPI    C1 8257   5.733   0.361  11.243 -0.2264 -0.0964  0.1818
  517loPI    C2 8258   5.819   0.714  11.411 -0.3656  0.1173 -0.1853
  517loPI    C3 8259   5.727   0.401  11.641  0.0368  0.2414  0.1571
  517loPI   PO4 8260   5.780   0.437  10.978  0.1194 -0.2563  0.1634
  517loPI   GL1 8261   5.532   0.527  10.676 -0.0157  0.0696  0.3006
  517loPI   GL2 8262   5.720   0.835  10.673  0.3077  0.4372  0.0166
  517loPI   C1A 8263   5.564   0.547  10.259  0.0574  0.0733  0.1385
  517loPI   C2A 8264   5.552   0.499   9.839  0.1972 -0.1643 -0.0025
  517loPI   C3A 8265   5.520   0.520   9.385  0.1926  0.0351  0.0652
  517loPI   C4A 8266   5.545   0.699   9.049  0.2362  0.0711  0.2679
  517loPI   C5A 8267   5.667   0.753   8.589 -0.1849  0.0495  0.4329
  517loPI   C6A 8268   5.957   0.950   8.448  0.3062  0.0365  0.1847
  517loPI   C1B 8269   5.922   0.867  10.338  0.3395  0.0128  0.3338
  517loPI   C2B 8270   5.933   0.903   9.901  0.3925 -0.1037 -0.3871
  517loPI   C3B 8271   5.919   0.896   9.437 -0.0380  0.1507 -0.0885
  517loPI   C4B 8272   5.966   1.008   8.982 -0.0293 -0.1352 -0.0143
  518loPI    C1 8273   7.475  15.650  10.918 -0.4102 -0.1552  0.1757
  518loPI    C2 8274   7.380  15.981  11.121 -0.2724 -0.0381  0.0514
  518loPI    C3 8275   7.374  15.626  11.305 -0.3162  0.0454  0.2138
  518loPI   PO4 8276   7.433  15.705  10.663  0.0405 -0.2071  0.3276
  518loPI   GL1 8277   7.426  15.481  10.265  0.0168  0.1257 -0.0497
  518loPI   GL2 8278   7.052  15.667  10.372 -0.1287 -0.2040  0.2712
  518loPI   C1A 8279   7.482  15.682   9.908  0.1428 -0.1942  0.0580
  518loPI   C2A 8280   7.471  15.666   9.429  0.3405 -0.3215 -0.0061
  518loPI   C3A 8281   7.504  15.771   9.013 -0.0817 -0.0957 -0.0952
  518loPI   C4A 8282   7.649  15.647   8.522 -0.0522  0.0338  0.3047
  518loPI   C5A 8283   7.770  15.632   8.077  0.0866  0.1205  0.2124
  518loPI   C6A 8284   7.427  15.508   7.748 -0.2787 -0.0069  0.0268
  518loPI   C1B 8285   6.946  15.827   9.939 -0.0172  0.3126 -0.0967
  518loPI   C2B 8286   6.966  15.896   9.571  0.3382 -0.0064  0.0434
  518loPI   C3B 8287   7.053  15.884   9.118  0.1123 -0.2271 -0.0650
  518loPI   C4B 8288   7.132  15.881   8.683 -0.1646  0.0234 -0.3760
  519loPI    C1 8289   9.061  12.418  10.657  0.0430 -0.0655  0.1300
  519loPI    C2 8290   9.106  12.108  10.906 -0.2454 -0.1802  0.0436
  519loPI    C3 8291   8.883  12.421  11.015 -0.1750 -0.1229  0.0239
  519loPI   PO4 8292   9.270  12.467  10.595  0.1284 -0.3090 -0.1316
  519loPI   GL1 8293   9.517  12.550  10.192 -0.1597 -0.2587  0.1361
  519loPI   GL2 8294   9.166  12.345  10.138  0.1077 -0.0343  0.0121
  519loPI   C1A 8295   9.469  12.601   9.729  0.0031 -0.0486  0.1130
  519loPI   C2A 8296   9.412  12.682   9.326 -0.0409  0.0224  0.0639
  519loPI   C3A 8297   9.507  12.636   8.856  0.0890 -0.0166  0.2936
  519loPI   C4A 8298   9.526  12.627   8.429 -0.4111  0.1623 -0.1423
  519loPI   C5A 8299   9.482  12.333   8.144 -0.1092 -0.1390 -0.1684
  519loPI   C6A 8300   9.246  11.957   8.006 -0.2745 -0.0330  0.1003
  519loPI   C1B 8301   9.071  12.355   9.786  0.0920  0.0143 -0.1137
  519loPI   C2B 8302   9.071  12.249   9.364 -0.2940  0.0476  0.1027
  519loPI   C3B 8303   9.064  12.290   8.875  0.0758  0.1611  0.0244
  519loPI   C4B 8304   9.107  12.315   8.440  0.3679  0.0514 -0.2201
  520loPI    C1 8305   4.114  16.312  11.012 -0.0548 -0.0780 -0.1007
  520loPI    C2 8306   3.902  16.215  11.337  0.2151 -0.2121  0.0387
  520loPI    C3 8307   3.876  16.584  11.184  0.1331 -0.1287  0.2491
  520loPI   PO4 8308   4.135  16.128  10.858  0.0031 -0.0519  0.0522
  520loPI   GL1 8309   4.203  16.079  10.448 -0.3427 -0.0247 -0.1080
  520loPI   GL2 8310   4.204  16.423  10.364 -0.4662  0.1262  0.1343
  520loPI   C1A 8311   4.267  15.751  10.050  0.0060  0.2216  0.2007
  520loPI   C2A 8312   4.286  15.874   9.660 -0.3270 -0.0338  0.0036
  520loPI   C3A 8313   4.278  15.930   9.238  0.2843  0.1882 -0.0906
  520loPI   C4A 8314   4.390  15.765   8.833 -0.3232  0.2548 -0.2903
  520loPI   C5A 8315   4.523  15.544   8.481  0.0134 -0.1070  0.1840
  520loPI   C6A 8316   4.960  15.427   8.307 -0.0725 -0.3022 -0.2953
  520loPI   C1B 8317   4.255  16.284  10.006 -0.0075 -0.1149 -0.3070
  520loPI   C2B 8318   4.197  16.401   9.609 -0.1978 -0.0807  0.2211
  520loPI   C3B 8319   4.177  16.414   9.019 -0.1560  0.1229  0.0957
  520loPI   C4B 8320   4.323  16.193   8.605  0.1322 -0.0334  0.0625
  521loPI    C1 8321   7.361  18.025  11.229  0.0201  0.1227  0.0013
  521loPI    C2 8322   7.063  17.761  11.266  0.1126 -0.0160 -0.2217
  521loPI    C3 8323   7.421  17.681  11.424  0.1470 -0.0349 -0.3087
  521loPI   PO4 8324   7.509  18.071  11.000 -0.2191  0.0297 -0.0250
  521loPI   GL1 8325   7.525  17.916  10.515  0.0827  0.0135  0.0579
  521loPI   GL2 8326   7.665  17.710  10.454 -0.1492 -0.0690  0.0911
  521loPI   C1A 8327   7.440  18.083  10.202 -0.1986 -0.0475 -0.0385
  521loPI   C2A 8328   7.510  18.119   9.861  0.0745  0.2037  0.1324
  521loPI   C3A 8329   7.609  18.091   9.445  0.2619  0.0239  0.1949
  521loPI   C4A 8330   7.521  18.091   9.022 -0.0634  0.1484  0.1948
  521loPI   C5A 8331   7.592  18.215   8.613  0.3571  0.0475 -0.0383
  521loPI   C6A 8332   7.836  18.245   8.296 -0.3611 -0.0248  0.1592
  521loPI   C1B 8333   7.715  17.674   9.989 -0.0388  0.2174 -0.2755
  521loPI   C2B 8334   7.566  17.585   9.711 -0.3661 -0.0429  0.4987
  521loPI   C3B 8335   7.572  17.582   9.257 -0.1301 -0.2714  0.0691
  521loPI   C4B 8336   7.582  17.608   8.802 -0.0457 -0.1726 -0.2348
  522loPI    C1 8337   0.163   1.248  10.341 -0.1974  0.1911  0.0603
  522loPI    C2 8338  -0.036   0.929  10.207  0.1768 -0.0084 -0.0345
  522loPI    C3 8339   0.054   0.960  10.595 -0.0111  0.0696  0.0042
  522loPI   PO4 8340   0.252   1.381  10.151  0.2578  0.3329  0.0688
  522loPI   GL1 8341   0.204   1.353   9.706 -0.1718 -0.1286  0.1594
  522loPI   GL2 8342   0.501   1.482   9.657 -0.0173 -0.1925 -0.2679
  522loPI   C1A 8343   0.199   1.316   9.215  0.0464  0.0964  0.1235
  522loPI   C2A 8344   0.246   1.377   8.825 -0.0727  0.0131 -0.0552
  522loPI   C3A 8345   0.435   1.386   8.447  0.1359 -0.1770 -0.2174
  522loPI   C4A 8346   0.403   1.616   8.159  0.3439 -0.2257  0.2595
  522loPI   C5A 8347   0.421   1.945   7.955 -0.2731  0.3244 -0.0347
  522loPI   C6A 8348   0.172   2.273   7.987  0.1960  0.5278 -0.0097
  522loPI   C1B 8349   0.661   1.644   9.280  0.1182 -0.2560  0.1701
  522loPI   C2B 8350   0.672   1.664   8.947  0.2040  0.2742 -0.0930
  522loPI   C3B 8351   0.731   1.848   8.620  0.2155  0.2673 -0.0265
  522loPI   C4B 8352   0.911   1.624   8.245  0.0243  0.0004  0.1501
  523loPI    C1 8353   4.587   4.885  10.894  0.0060 -0.0156  0.1042
  523loPI    C2 8354   4.271   5.022  11.098 -0.1286 -0.1930  0.0180
  523loPI    C3 8355   4.577   4.852  11.292 -0.1615 -0.1720  0.0885
  523loPI   PO4 8356   4.469   4.853  10.641  0.1495  0.0472 -0.2718
  523loPI   GL1 8357   4.747   4.834  10.329  0.0369  0.1807 -0.1980
  523loPI   GL2 8358   4.743   5.139  10.235 -0.0866  0.1746 -0.1260
  523loPI   C1A 8359   4.649   4.673   9.983 -0.1907 -0.0813  0.0157
  523loPI   C2A 8360   4.675   4.668   9.514 -0.1823 -0.1604 -0.0706
  523loPI   C3A 8361   4.722   4.816   9.121 -0.2193 -0.3113 -0.2452
  523loPI   C4A 8362   4.878   4.638   8.708 -0.0245 -0.0348 -0.0914
  523loPI   C5A 8363   4.735   4.584   8.283  0.0186 -0.0272  0.0613
  523loPI   C6A 8364   4.316   4.372   8.213  0.0851  0.0437 -0.3073
  523loPI   C1B 8365   4.655   5.207   9.941  0.2168  0.0665 -0.2866
  523loPI   C2B 8366   4.577   5.191   9.520  0.2095 -0.0375 -0.0543
  523loPI   C3B 8367   4.677   5.299   9.051  0.2265 -0.1068  0.0241
  523loPI   C4B 8368   4.676   5.140   8.632 -0.1055  0.0159 -0.1069
  524loPI    C1 8369  13.602   3.406  10.654  0.0798 -0.0457  0.1728
  524loPI    C2 8370  13.539   3.101  10.905  0.1075  0.0007  0.2362
  524loPI    C3 8371  13.743   3.423  11.027 -0.0698  0.1192  0.2231
  524loPI   PO4 8372  13.703   3.219  10.398  0.1344 -0.2106  0.0796
  524loPI   GL1 8373  13.943   3.234  10.145  0.3042 -0.1561 -0.1003
  524loPI   GL2 8374  13.940   3.616   9.949 -0.1154  0.1448  0.0893
  524loPI   C1A 8375  13.895   3.000   9.824  0.4401 -0.1769 -0.1126
  524loPI   C2A 8376  13.916   2.974   9.328 -0.1599  0.2093  0.0744
  524loPI   C3A 8377  13.915   2.979   8.896  0.1152 -0.0938 -0.1636
  524loPI   C4A 8378  14.003   2.948   8.567 -0.2021  0.1696  0.0632
  524loPI   C5A 8379  14.043   2.969   8.082 -0.0502 -0.0465  0.0799
  524loPI   C6A 8380  14.234   3.336   7.889  0.1434 -0.0730  0.0690
  524loPI   C1B 8381  13.878   3.432   9.514 -0.0220 -0.1477  0.2173
  524loPI   C2B 8382  13.783   3.444   9.158  0.1732  0.3771  0.1675
  524loPI   C3B 8383  13.865   3.460   8.716 -0.0776  0.0617 -0.4250
  524loPI   C4B 8384  13.957   3.399   8.358  0.2415  0.0761 -0.4563
  525loPI    C1 8385   1.466  17.656  11.015  0.2470  0.0445 -0.0836
  525loPI    C2 8386   1.154  17.509  11.217  0.3235 -0.0624 -0.0424
  525loPI    C3 8387   1.151  17.890  11.095  0.3016  0.0205  0.2111
  525loPI   PO4 8388   1.470  17.488  10.846  0.1603 -0.0033  0.4988
  525loPI   GL1 8389   1.634  17.340  10.484 -0.0999  0.2687 -0.2764
  525loPI   GL2 8390   1.617  17.586  10.299  0.0361 -0.2812  0.0077
  525loPI   C1A 8391   1.805  17.155  10.133 -0.2179  0.0173  0.1291
  525loPI   C2A 8392   1.768  17.086   9.727  0.0883 -0.2238  0.0856
  525loPI   C3A 8393   1.725  17.144   9.232  0.1845 -0.2367 -0.0678
  525loPI   C4A 8394   1.655  17.180   8.866 -0.1557 -0.2652  0.4200
  525loPI   C5A 8395   1.569  17.082   8.464 -0.1926  0.0313 -0.2199
  525loPI   C6A 8396   1.359  16.730   8.280  0.0643 -0.0114  0.1355
  525loPI   C1B 8397   1.708  17.607   9.839 -0.1210  0.1956 -0.0314
  525loPI   C2B 8398   1.631  17.658   9.494 -0.2563 -0.0781 -0.1081
  525loPI   C3B 8399   1.652  17.672   9.087 -0.2042  0.1824  0.0362
  525loPI   C4B 8400   1.592  17.618   8.690  0.1303  0.3370  0.0073
  526loPI    C1 8401  13.458  16.962  10.847  0.0931  0.0416 -0.0533
  526loPI    C2 8402  13.842  16.861  10.898  0.0656  0.0873  0.2633
  526loPI    C3 8403  13.666  17.116  11.152 -0.1972  0.0036  0.1692
  526loPI   PO4 8404  13.385  17.006  10.557  0.1224 -0.2619 -0.2251
  526loPI   GL1 8405  13.344  16.839  10.221  0.3306 -0.1804  0.0094
  526loPI   GL2 8406  13.154  16.532  10.228  0.3003 -0.0187 -0.1352
  526loPI   C1A 8407  13.220  17.107   9.836 -0.0851  0.0037 -0.3604
  526loPI   C2A 8408  13.112  17.107   9.433  0.0874 -0.2128  0.1650
  526loPI   C3A 8409  13.196  16.989   9.064 -0.0684 -0.2123 -0.2286
  526loPI   C4A 8410  13.175  16.926   8.621 -0.0513  0.0805  0.1252
  526loPI   C5A 8411  13.156  16.971   8.238 -0.1158 -0.1059  0.0632
  526loPI   C6A 8412  13.140  16.897   7.821  0.0268 -0.1032 -0.0866
  526loPI   C1B 8413  13.206  16.547   9.820 -0.3966  0.3656 -0.1020
  526loPI   C2B 8414  13.177  16.535   9.332  0.0938 -0.0850 -0.0072
  526loPI   C3B 8415  13.276  16.474   8.892  0.0857 -0.2421  0.1613
  526loPI   C4B 8416  13.276  16.442   8.525 -0.2802  0.1073  0.1670
  527loPI    C1 8417   9.999   2.985  10.987  0.2995  0.1108  0.0773
  527loPI    C2 8418   9.789   3.294  11.128 -0.1615 -0.1978  0.0874
  527loPI    C3 8419  10.102   3.155  11.334 -0.2170 -0.0141  0.3005
  527loPI   PO4 8420  10.012   3.031  10.732 -0.2297 -0.2479  0.0760
  527loPI   GL1 8421   9.923   3.040  10.336  0.1926  0.0315  0.2345
  527loPI   GL2 8422   9.745   3.226  10.089 -0.0711  0.2771  0.2834
  527loPI   C1A 8423  10.091   2.864   9.920 -0.4077  0.1744 -0.2535
  527loPI   C2A 8424  10.138   2.872   9.455  0.1080  0.1320  0.1279
  527loPI   C3A 8425  10.208   2.862   9.117  0.1501  0.2506 -0.2043
  527loPI   C4A 8426  10.315   2.768   8.710 -0.2107 -0.2066 -0.0562
  527loPI   C5A 8427  10.312   2.817   8.341 -0.1508  0.3415 -0.0754
  527loPI   C6A 8428  10.047   2.702   7.854  0.0762  0.0058 -0.2649
  527loPI   C1B 8429   9.675   3.124   9.658 -0.0814  0.2346 -0.3482
  527loPI   C2B 8430   9.721   2.992   9.156  0.0032  0.3979 -0.2576
  527loPI   C3B 8431   9.825   3.001   8.638  0.0682 -0.0433 -0.2457
  527loPI   C4B 8432   9.780   3.009   8.233 -0.1237  0.1477 -0.2226
  528loPI    C1 8433   1.744  12.942  11.050  0.0648  0.0391 -0.0072
  528loPI    C2 8434   2.015  12.829  11.322 -0.0061 -0.1173 -0.0003
  528loPI    C3 8435   1.662  12.976  11.439  0.1030  0.1580 -0.0093
  528loPI   PO4 8436   1.804  12.786  10.885  0.0591  0.1789 -0.0837
  528loPI   GL1 8437   1.723  12.737  10.537 -0.0263 -0.1421 -0.1907
  528loPI   GL2 8438   2.004  12.721  10.449 -0.1644  0.0245  0.1582
  528loPI   C1A 8439   1.748  12.793  10.072 -0.2987  0.2232  0.2550
  528loPI   C2A 8440   1.744  12.782   9.631  0.2943 -0.1213  0.1159
  528loPI   C3A 8441   1.790  12.721   9.182  0.1052 -0.3289  0.1070
  528loPI   C4A 8442   1.623  12.628   8.828  0.0022 -0.2763  0.1052
  528loPI   C5A 8443   1.354  12.639   8.498 -0.0689 -0.1664 -0.0837
  528loPI   C6A 8444   1.144  12.270   8.401  0.4023  0.0607 -0.0519
  528loPI   C1B 8445   2.239  12.590  10.027 -0.0542  0.0166  0.0767
  528loPI   C2B 8446   2.275  12.654   9.640 -0.2255 -0.3474 -0.1421
  528loPI   C3B 8447   2.273  12.590   9.170  0.0470  0.2025 -0.0794
  528loPI   C4B 8448   2.162  12.454   8.713  0.3862 -0.4514  0.1442
  529loPI    C1 8449   4.054   7.761  10.591  0.0267 -0.0822 -0.1655
  529loPI    C2 8450   4.126   8.000  10.904  0.2069 -0.1439 -0.1584
  529loPI    C3 8451   3.776   7.808  10.874  0.0810  0.0795 -0.1381
  529loPI   PO4 8452   4.046   7.890  10.406 -0.0094 -0.0727 -0.3868
  529loPI   GL1 8453   4.084   7.823   9.939 -0.0891  0.0169 -0.0656
  529loPI   GL2 8454   3.764   7.956  10.037 -0.0168 -0.1406  0.2304
  529loPI   C1A 8455   4.177   7.802   9.483 -0.2072  0.1096  0.0759
  529loPI   C2A 8456   4.269   7.779   8.998 -0.1093  0.2948 -0.2541
  529loPI   C3A 8457   4.161   7.802   8.498  0.1028 -0.0136  0.1964
  529loPI   C4A 8458   4.226   7.595   8.183  0.2666 -0.1660 -0.2274
  529loPI   C5A 8459   4.378   7.165   8.176 -0.1066 -0.2172  0.3245
  529loPI   C6A 8460   4.251   6.796   8.213  0.1350 -0.0279  0.0634
  529loPI   C1B 8461   3.617   7.903   9.606 -0.0398  0.2415 -0.0888
  529loPI   C2B 8462   3.660   7.961   9.095  0.0834 -0.0892  0.0645
  529loPI   C3B 8463   3.711   7.991   8.601 -0.3084 -0.1446 -0.2016
  529loPI   C4B 8464   3.651   8.024   8.142 -0.0144 -0.1791 -0.1691
  530loPI    C1 8465  11.468   2.171  10.788 -0.0648 -0.3545 -0.1156
  530loPI    C2 8466  11.148   2.404  10.845  0.2101  0.0225 -0.0726
  530loPI    C3 8467  11.165   2.042  11.014 -0.2564 -0.0663 -0.2022
  530loPI   PO4 8468  11.566   2.177  10.524 -0.2821  0.1874  0.2846
  530loPI   GL1 8469  11.400   2.034  10.042  0.1491 -0.2285 -0.2056
  530loPI   GL2 8470  11.151   1.811  10.070 -0.0896  0.0001 -0.5403
  530loPI   C1A 8471  11.261   1.970   9.620 -0.0779 -0.3520 -0.3134
  530loPI   C2A 8472  11.379   2.012   9.202  0.0405 -0.1692  0.0261
  530loPI   C3A 8473  11.282   1.926   8.801 -0.1729  0.2709 -0.1630
  530loPI   C4A 8474  11.259   1.941   8.380  0.0063 -0.1222  0.0196
  530loPI   C5A 8475  11.623   1.826   8.114  0.0975  0.2627 -0.0060
  530loPI   C6A 8476  11.977   1.771   7.966 -0.0703 -0.2399 -0.1111
  530loPI   C1B 8477  10.913   1.656   9.777 -0.1726  0.0678  0.0762
  530loPI   C2B 8478  10.938   1.731   9.340 -0.0857 -0.1757 -0.0823
  530loPI   C3B 8479  10.861   1.694   8.965  0.1742 -0.0795  0.2854
  530loPI   C4B 8480  10.877   1.585   8.542 -0.1705 -0.1306 -0.1807
  531loPI    C1 8481  11.327   1.609  11.030 -0.0820 -0.0401 -0.0519
  531loPI    C2 8482  11.640   1.705  11.259  0.0402 -0.0273 -0.2220
  531loPI    C3 8483  11.392   1.411  11.371  0.0116  0.0789  0.0001
  531loPI   PO4 8484  11.464   1.639  10.732 -0.2575  0.2653  0.3331
  531loPI   GL1 8485  11.575   1.571  10.225  0.0998  0.3131 -0.0336
  531loPI   GL2 8486  11.729   1.778  10.264 -0.0781 -0.3154 -0.1875
  531loPI   C1A 8487  11.489   1.416   9.825  0.0202  0.0345 -0.0038
  531loPI   C2A 8488  11.429   1.534   9.437  0.0116 -0.2507 -0.2604
  531loPI   C3A 8489  11.329   1.495   9.020  0.1563  0.2042 -0.1711
  531loPI   C4A 8490  11.381   1.436   8.592  0.0782 -0.2070  0.1326
  531loPI   C5A 8491  11.537   1.343   8.256  0.0014  0.4144  0.0272
  531loPI   C6A 8492  11.381   1.089   7.851 -0.0505  0.0080 -0.0640
  531loPI   C1B 8493  11.804   1.806   9.793 -0.1958 -0.0876 -0.2242
  531loPI   C2B 8494  11.890   1.708   9.352 -0.0100  0.2575 -0.0949
  531loPI   C3B 8495  11.763   1.707   8.974  0.4392  0.0007  0.1603
  531loPI   C4B 8496  11.769   1.745   8.591 -0.0123 -0.1288  0.1910
  532loPI    C1 8497   1.475  14.006  11.404 -0.2094  0.1886  0.1585
  532loPI    C2 8498   1.727  13.712  11.503 -0.1046  0.2122 -0.0342
  532loPI    C3 8499   1.492  13.876  11.782 -0.0393  0.0645  0.1092
  532loPI   PO4 8500   1.285  13.814  11.168  0.1437 -0.1355  0.2231
  532loPI   GL1 8501   1.184  13.909  10.733 -0.1457 -0.0609 -0.4771
  532loPI   GL2 8502   1.037  14.226  10.704  0.1045  0.1481  0.1991
  532loPI   C1A 8503   1.363  13.911  10.444  0.1242  0.0293  0.2580
  532loPI   C2A 8504   1.410  13.930  10.087 -0.2381 -0.2560 -0.0604
  532loPI   C3A 8505   1.566  13.811   9.686 -0.0738 -0.0672 -0.0485
  532loPI   C4A 8506   1.619  13.827   9.186 -0.0606  0.1396  0.1148
  532loPI   C5A 8507   1.636  13.881   8.699  0.0624  0.0604 -0.0163
  532loPI   C6A 8508   1.979  13.839   8.662 -0.0834 -0.1053  0.0745
  532loPI   C1B 8509   1.038  14.213  10.223 -0.1039  0.1449 -0.2881
  532loPI   C2B 8510   1.047  14.037   9.829  0.1649  0.0316 -0.0549
  532loPI   C3B 8511   1.117  13.854   9.415 -0.0499  0.2718  0.3110
  532loPI   C4B 8512   1.167  13.964   9.011 -0.0371 -0.0312  0.1202
  533loPI    C1 8513   4.493   0.242  11.170 -0.0464 -0.2156  0.0488
  533loPI    C2 8514   4.814   0.441  11.302 -0.2039  0.0344  0.0605
  533loPI    C3 8515   4.517   0.351  11.554 -0.2655  0.0443 -0.0083
  533loPI   PO4 8516   4.568   0.096  10.981  0.0085  0.0305 -0.0503
  533loPI   GL1 8517   4.538   0.046  10.626 -0.1908  0.0221  0.1252
  533loPI   GL2 8518   4.700  -0.295  10.475  0.1015 -0.0604  0.0234
  533loPI   C1A 8519   4.322  -0.071  10.288 -0.0085  0.1337 -0.0779
  533loPI   C2A 8520   4.315   0.095   9.838  0.3150  0.2799  0.1865
  533loPI   C3A 8521   4.391   0.074   9.389 -0.1438  0.3836  0.1912
  533loPI   C4A 8522   4.335   0.000   9.006 -0.1302 -0.1650  0.0142
  533loPI   C5A 8523   4.304   0.061   8.553 -0.1795  0.1505  0.2120
  533loPI   C6A 8524   4.377   0.348   8.129  0.0324  0.1568 -0.1079
  533loPI   C1B 8525   4.793  -0.203  10.064  0.0997  0.1542 -0.2714
  533loPI   C2B 8526   4.805  -0.107   9.604 -0.0713  0.1484 -0.1451
  533loPI   C3B 8527   4.830  -0.195   9.258  0.3239  0.1242  0.0162
  533loPI   C4B 8528   4.782  -0.081   8.792  0.1447  0.2396  0.0333
  534loPI    C1 8529   6.342  13.818  11.296 -0.1985  0.0806  0.1381
  534loPI    C2 8530   6.603  14.100  11.184 -0.0432 -0.0369  0.2002
  534loPI    C3 8531   6.734  13.764  11.356 -0.2140 -0.2164 -0.0148
  534loPI   PO4 8532   6.167  13.934  11.100  0.0591 -0.2925 -0.0723
  534loPI   GL1 8533   6.021  13.948  10.675  0.1938  0.2842 -0.1735
  534loPI   GL2 8534   6.295  13.958  10.493  0.0506 -0.2952  0.0220
  534loPI   C1A 8535   5.896  14.206  10.298  0.2023 -0.2232  0.3684
  534loPI   C2A 8536   5.977  14.274   9.786 -0.2555  0.2584 -0.0595
  534loPI   C3A 8537   5.866  14.331   9.403 -0.4339  0.3038 -0.1233
  534loPI   C4A 8538   5.924  14.330   8.925  0.3533  0.0923  0.0275
  534loPI   C5A 8539   6.017  14.240   8.489 -0.0368 -0.1644 -0.2846
  534loPI   C6A 8540   5.883  14.168   8.140 -0.0553  0.0826  0.1032
  534loPI   C1B 8541   6.338  14.057  10.064 -0.4182 -0.2606 -0.4225
  534loPI   C2B 8542   6.405  14.108   9.695 -0.5271  0.1963 -0.3142
  534loPI   C3B 8543   6.344  14.166   9.245 -0.1084 -0.0388  0.0650
  534loPI   C4B 8544   6.367  14.090   8.836 -0.3381 -0.0845  0.1371
  535loPI    C1 8545  14.879   8.907  10.699 -0.1837 -0.2043 -0.2053
  535loPI    C2 8546  14.958   8.785  11.072 -0.0137  0.1950 -0.1059
  535loPI    C3 8547  14.584   8.882  10.968 -0.0383  0.2162  0.0015
  535loPI   PO4 8548  15.106   8.968  10.567 -0.2267 -0.1314  0.0343
  535loPI   GL1 8549  15.176   9.114  10.135 -0.0996  0.1664  0.0619
  535loPI   GL2 8550  14.941   9.366  10.255  0.2124 -0.1295 -0.2187
  535loPI   C1A 8551  15.155   9.145   9.736 -0.0421  0.0287  0.1631
  535loPI   C2A 8552  15.152   9.233   9.252  0.3529 -0.2553 -0.2863
  535loPI   C3A 8553  15.013   9.172   8.863  0.0687  0.0124  0.1351
  535loPI   C4A 8554  15.181   9.212   8.350 -0.2072  0.2661  0.0403
  535loPI   C5A 8555  15.309   8.826   8.127  0.3065 -0.0068 -0.1848
  535loPI   C6A 8556  15.719   8.595   8.222  0.0960  0.0767  0.1266
  535loPI   C1B 8557  15.010   9.577   9.889  0.0809 -0.2639  0.3637
  535loPI   C2B 8558  14.966   9.687   9.513  0.2585 -0.1125  0.0467
  535loPI   C3B 8559  15.054   9.737   9.116 -0.1843 -0.0279  0.1498
  535loPI   C4B 8560  15.023   9.632   8.609 -0.2063  0.0269  0.1262
  536loPI    C1 8561  11.429   9.242  10.790  0.0401 -0.0003  0.1145
  536loPI    C2 8562  11.676   9.101  11.072 -0.0720 -0.0909  0.1683
  536loPI    C3 8563  11.297   9.191  11.164 -0.1245 -0.1715  0.0348
  536loPI   PO4 8564  11.490   9.114  10.567  0.1248 -0.0925  0.0242
  536loPI   GL1 8565  11.293   9.195  10.219  0.2284 -0.0253  0.1942
  536loPI   GL2 8566  11.436   8.849  10.107 -0.0680 -0.0424  0.2504
  536loPI   C1A 8567  11.286   9.430   9.803 -0.0583  0.1015 -0.2404
  536loPI   C2A 8568  11.325   9.550   9.367 -0.1841 -0.1390 -0.1535
  536loPI   C3A 8569  11.367   9.596   8.945  0.0401  0.1522 -0.0583
  536loPI   C4A 8570  11.432   9.616   8.555  0.1928 -0.1338  0.0758
  536loPI   C5A 8571  11.366   9.673   8.066 -0.0300 -0.0159 -0.0502
  536loPI   C6A 8572  11.122   9.464   7.805 -0.0060  0.0531 -0.0447
  536loPI   C1B 8573  11.408   8.962   9.674 -0.3408  0.0736  0.1354
  536loPI   C2B 8574  11.437   9.059   9.149 -0.2979 -0.0822 -0.0562
  536loPI   C3B 8575  11.560   9.009   8.806  0.0602  0.0338 -0.0584
  536loPI   C4B 8576  11.433   9.100   8.361 -0.1561 -0.1648  0.1980
  537loPI    C1 8577  15.840   1.088  10.892 -0.0158  0.0922 -0.0855
  537loPI    C2 8578  15.464   1.208  10.955  0.0186  0.0870  0.1399
  537loPI    C3 8579  15.714   1.166  11.264  0.2520  0.2468 -0.0245
  537loPI   PO4 8580  15.917   1.193  10.636  0.0032  0.0719 -0.2228
  537loPI   GL1 8581  15.682   1.398  10.368  0.0378  0.0485 -0.4021
  537loPI   GL2 8582  15.568   1.719  10.288  0.0503 -0.2915  0.1761
  537loPI   C1A 8583  15.597   1.319   9.934  0.0787 -0.1715 -0.1222
  537loPI   C2A 8584  15.537   1.377   9.530 -0.3402 -0.3508 -0.0758
  537loPI   C3A 8585  15.546   1.362   9.038  0.0263 -0.0487 -0.1125
  537loPI   C4A 8586  15.581   1.348   8.540 -0.0414  0.0114 -0.0469
  537loPI   C5A 8587  15.773   1.320   8.128 -0.1760  0.1111  0.2234
  537loPI   C6A 8588  15.809   1.279   7.754 -0.3154  0.1500 -0.4000
  537loPI   C1B 8589  15.558   1.876   9.729 -0.3007 -0.1954  0.0165
  537loPI   C2B 8590  15.460   1.811   9.294  0.3772  0.1241  0.0868
  537loPI   C3B 8591  15.520   1.929   8.881 -0.1093  0.0042  0.1302
  537loPI   C4B 8592  15.582   1.949   8.518 -0.1741  0.5478  0.0915
  538loPI    C1 8593   6.285   0.333  11.257  0.0739 -0.1326  0.0537
  538loPI    C2 8594   6.601   0.433  11.481 -0.0021  0.2851 -0.0157
  538loPI    C3 8595   6.239   0.399  11.649  0.0321  0.0654  0.0169
  538loPI   PO4 8596   6.365   0.479  10.988 -0.1766 -0.0402 -0.1210
  538loPI   GL1 8597   6.106   0.479  10.642 -0.1366 -0.5103 -0.0364
  538loPI   GL2 8598   5.951   0.281  10.492  0.2159 -0.1931  0.2552
  538loPI   C1A 8599   6.413   0.629  10.324 -0.1758  0.2437  0.1968
  538loPI   C2A 8600   6.383   0.744   9.918 -0.0707  0.1746  0.0837
  538loPI   C3A 8601   6.436   0.723   9.495 -0.2406 -0.0134  0.2318
  538loPI   C4A 8602   6.466   0.805   9.046  0.2058 -0.2150  0.0614
  538loPI   C5A 8603   6.541   0.897   8.587  0.3666  0.2098  0.1258
  538loPI   C6A 8604   6.411   0.995   8.280  0.3633  0.1755  0.3899
  538loPI   C1B 8605   6.077   0.352  10.100  0.2908  0.0542 -0.2237
  538loPI   C2B 8606   6.044   0.438   9.664  0.1738 -0.2191  0.1870
  538loPI   C3B 8607   6.050   0.488   9.227 -0.0408 -0.0272  0.1169
  538loPI   C4B 8608   6.016   0.447   8.791 -0.3884 -0.1869 -0.0240
  539loPI    C1 8609   3.006  14.837  11.276 -0.0036 -0.1231 -0.0885
  539loPI    C2 8610   2.722  14.878  11.555 -0.0156  0.0898 -0.1304
  539loPI    C3 8611   3.045  15.114  11.562  0.2009 -0.2039 -0.0367
  539loPI   PO4 8612   2.845  14.809  11.062  0.0578 -0.0190 -0.0622
  539loPI   GL1 8613   2.926  14.480  10.712 -0.1206 -0.1938  0.1507
  539loPI   GL2 8614   2.976  14.191  10.564 -0.1219  0.0118 -0.1892
  539loPI   C1A 8615   3.148  14.699  10.383  0.1189 -0.3779  0.1706
  539loPI   C2A 8616   3.195  14.730   9.962 -0.3044  0.3403 -0.1054
  539loPI   C3A 8617   3.180  14.779   9.485 -0.0595  0.0008 -0.1692
  539loPI   C4A 8618   3.162  14.741   9.065  0.1161 -0.1076  0.1811
  539loPI   C5A 8619   2.935  14.742   8.614 -0.0352 -0.1135  0.2191
  539loPI   C6A 8620   2.719  14.396   8.348 -0.1895  0.0411  0.1104
  539loPI   C1B 8621   2.757  14.391  10.253 -0.0999  0.0449  0.0384
  539loPI   C2B 8622   2.797  14.426   9.885 -0.1980  0.2179  0.2696
  539loPI   C3B 8623   2.765  14.408   9.399  0.0558  0.1645 -0.0062
  539loPI   C4B 8624   2.814  14.255   8.911  0.2053 -0.3525  0.0270
  540loPI    C1 8625  12.937  14.847  10.938 -0.0435 -0.1497  0.1266
  540loPI    C2 8626  12.704  14.742  11.246  0.2344 -0.1105  0.3540
  540loPI    C3 8627  12.835  15.119  11.214 -0.0342 -0.0409  0.0234
  540loPI   PO4 8628  12.891  14.855  10.663  0.1399  0.0426 -0.0067
  540loPI   GL1 8629  12.810  14.818  10.316  0.0350 -0.1113  0.0710
  540loPI   GL2 8630  12.616  14.687  10.095  0.4718  0.0576  0.0524
  540loPI   C1A 8631  13.011  14.850   9.845 -0.0817 -0.0178  0.0492
  540loPI   C2A 8632  13.146  14.768   9.511  0.2254 -0.0239 -0.2130
  540loPI   C3A 8633  13.243  14.645   9.008 -0.0686  0.0424  0.2103
  540loPI   C4A 8634  13.141  14.675   8.597  0.1012  0.0410 -0.5112
  540loPI   C5A 8635  13.272  14.847   8.155  0.0352  0.2203 -0.5180
  540loPI   C6A 8636  12.964  14.745   7.834  0.0925 -0.0737  0.1664
  540loPI   C1B 8637  12.704  14.448   9.675  0.0309  0.1243  0.0588
  540loPI   C2B 8638  12.807  14.343   9.215 -0.1312  0.1279  0.1328
  540loPI   C3B 8639  12.768  14.372   8.777 -0.0789 -0.0237 -0.1760
  540loPI   C4B 8640  12.702  14.318   8.345 -0.0007 -0.0224  0.0103
  541loPI    C1 8641  10.587  10.836  10.557 -0.1043 -0.2449 -0.0340
  541loPI    C2 8642  10.261  10.786  10.783 -0.1499  0.0937 -0.0203
  541loPI    C3 8643  10.590  10.950  10.940  0.0390 -0.2674 -0.0280
  541loPI   PO4 8644  10.594  10.946  10.397  0.2788 -0.1707 -0.4191
  541loPI   GL1 8645  10.513  11.195  10.086  0.0408 -0.0162 -0.0350
  541loPI   GL2 8646  10.290  11.052   9.889  0.3333  0.3402 -0.4539
  541loPI   C1A 8647  10.672  11.302   9.653  0.1598 -0.2189 -0.1362
  541loPI   C2A 8648  10.722  11.356   9.214 -0.0221 -0.1888 -0.3536
  541loPI   C3A 8649  10.706  11.391   8.747 -0.0737 -0.1649 -0.2349
  541loPI   C4A 8650  10.703  11.356   8.331 -0.0564  0.0365  0.2199
  541loPI   C5A 8651  10.922  11.092   7.981  0.1146 -0.3278 -0.0944
  541loPI   C6A 8652  11.084  10.681   7.734  0.2013  0.0508  0.0213
  541loPI   C1B 8653  10.325  10.955   9.404  0.1217  0.0559  0.3363
  541loPI   C2B 8654  10.314  10.989   8.960 -0.2512  0.3189  0.0217
  541loPI   C3B 8655  10.354  11.051   8.528  0.1549 -0.2338 -0.3678
  541loPI   C4B 8656  10.377  11.091   8.086 -0.0583 -0.0006  0.0345
  542loPI    C1 8657   6.936   6.114  10.766  0.1762 -0.0375  0.0858
  542loPI    C2 8658   6.672   6.122  10.466 -0.1483  0.0618  0.3681
  542loPI    C3 8659   6.676   5.814  10.721  0.0838  0.0082  0.3014
  542loPI   PO4 8660   7.195   6.065  10.659 -0.0116  0.0215 -0.1570
  542loPI   GL1 8661   7.381   6.048  10.294  0.2000  0.1963  0.2727
  542loPI   GL2 8662   7.167   6.271  10.066 -0.4223 -0.3727 -0.0946
  542loPI   C1A 8663   7.606   6.014   9.915  0.0408  0.2851  0.1333
  542loPI   C2A 8664   7.563   6.061   9.515  0.2257 -0.2773  0.0276
  542loPI   C3A 8665   7.710   6.106   9.113  0.1484 -0.2671  0.1245
  542loPI   C4A 8666   7.651   6.019   8.679  0.0822  0.0639  0.0115
  542loPI   C5A 8667   7.867   6.040   8.235 -0.2030 -0.1545 -0.1622
  542loPI   C6A 8668   7.892   6.211   7.872  0.0302  0.0250  0.3853
  542loPI   C1B 8669   7.111   6.273   9.624  0.0759  0.1361 -0.1604
  542loPI   C2B 8670   7.167   6.253   9.245  0.2612 -0.0025 -0.1262
  542loPI   C3B 8671   7.202   6.284   8.845  0.0799 -0.2807 -0.1896
  542loPI   C4B 8672   7.289   6.180   8.431 -0.2354 -0.0145  0.0813
  543loPI    C1 8673   6.507  11.861  10.606  0.3428  0.1535 -0.5167
  543loPI    C2 8674   6.150  12.037  10.645  0.0287 -0.5285 -0.1170
  543loPI    C3 8675   6.460  12.161  10.866 -0.0644 -0.2041 -0.1624
  543loPI   PO4 8676   6.451  11.591  10.546 -0.2987 -0.2330  0.0896
  543loPI   GL1 8677   6.673  11.280  10.428  0.2046 -0.0656  0.0483
  543loPI   GL2 8678   7.085  11.378  10.239  0.1007  0.0554  0.0735
  543loPI   C1A 8679   6.611  11.109  10.005  0.3050  0.0319  0.1449
  543loPI   C2A 8680   6.544  11.245   9.587 -0.0691  0.0013  0.0389
  543loPI   C3A 8681   6.575  11.128   9.236  0.2950  0.2057 -0.1858
  543loPI   C4A 8682   6.594  11.177   8.815  0.1340 -0.1302  0.0779
  543loPI   C5A 8683   6.704  11.174   8.410  0.3676 -0.2731 -0.0644
  543loPI   C6A 8684   6.861  11.062   7.946  0.0616 -0.0663 -0.2368
  543loPI   C1B 8685   6.931  11.478   9.823  0.1304 -0.0080  0.2526
  543loPI   C2B 8686   6.892  11.524   9.386  0.2350  0.0834  0.0935
  543loPI   C3B 8687   6.925  11.541   8.917 -0.0926  0.1943  0.1918
  543loPI   C4B 8688   6.919  11.615   8.440  0.0002 -0.1466  0.0936
  544loPI    C1 8689   8.708  18.007  11.019 -0.0166 -0.1107  0.0830
  544loPI    C2 8690   8.465  18.302  11.138  0.2107  0.0437  0.1720
  544loPI    C3 8691   8.589  18.026  11.400  0.0445 -0.0997  0.1017
  544loPI   PO4 8692   8.913  17.908  10.922  0.1365 -0.1014 -0.3163
  544loPI   GL1 8693   8.916  17.855  10.510  0.2732 -0.0527 -0.0572
  544loPI   GL2 8694   8.694  17.665  10.317 -0.2856 -0.1418  0.0220
  544loPI   C1A 8695   8.870  18.141  10.086 -0.2556  0.1395  0.0103
  544loPI   C2A 8696   8.836  18.192   9.640 -0.1236 -0.0716  0.0277
  544loPI   C3A 8697   8.902  18.179   9.195 -0.0021 -0.0259 -0.2662
  544loPI   C4A 8698   8.962  18.172   8.837 -0.0054 -0.1171  0.4890
  544loPI   C5A 8699   8.907  18.007   8.429 -0.0163  0.2704  0.0366
  544loPI   C6A 8700   8.861  17.646   8.142 -0.1066  0.0205 -0.1337
  544loPI   C1B 8701   8.981  17.665  10.064 -0.0757 -0.2824 -0.0571
  544loPI   C2B 8702   8.987  17.726   9.614  0.2750  0.0852 -0.1940
  544loPI   C3B 8703   8.973  17.605   9.163 -0.0595  0.1227  0.1429
  544loPI   C4B 8704   9.047  17.635   8.759  0.2913 -0.0868 -0.0085
  545loPI    C1 8705  13.969  16.347  11.048  0.2835  0.1374 -0.0146
  545loPI    C2 8706  13.907  15.958  11.118 -0.3432  0.2326  0.0116
  545loPI    C3 8707  14.086  16.185  11.395 -0.1762  0.0119  0.0875
  545loPI   PO4 8708  13.952  16.285  10.692 -0.1504  0.1650  0.2933
  545loPI   GL1 8709  13.940  16.378  10.236  0.0736  0.2208 -0.2227
  545loPI   GL2 8710  13.662  16.347  10.133 -0.0434 -0.3582  0.0516
  545loPI   C1A 8711  14.163  16.251   9.884  0.1702  0.0421 -0.4825
  545loPI   C2A 8712  14.239  16.236   9.448 -0.0612 -0.1684 -0.1753
  545loPI   C3A 8713  14.214  16.148   8.906  0.0354 -0.1072 -0.0214
  545loPI   C4A 8714  14.196  16.183   8.405 -0.1528  0.1760 -0.1628
  545loPI   C5A 8715  14.305  15.826   8.136  0.0284 -0.0584  0.2107
  545loPI   C6A 8716  13.949  15.546   7.990 -0.1546  0.0844 -0.0470
  545loPI   C1B 8717  13.769  16.457   9.749  0.0978 -0.1482  0.1420
  545loPI   C2B 8718  13.742  16.408   9.340  0.0820 -0.1682 -0.1089
  545loPI   C3B 8719  13.792  16.381   8.929  0.3836 -0.1991  0.7623
  545loPI   C4B 8720  13.709  16.221   8.518 -0.0400  0.3392 -0.0037
  546loPI    C1 8721   6.184   2.950  10.933 -0.0250 -0.1039  0.2005
  546loPI    C2 8722   5.946   2.704  11.140 -0.1208 -0.1062  0.0887
  546loPI    C3 8723   6.154   2.988  11.330 -0.1055 -0.1933  0.2035
  546loPI   PO4 8724   6.221   2.788  10.717  0.0393 -0.5336 -0.1044
  546loPI   GL1 8725   6.185   2.952  10.358 -0.2600 -0.0758 -0.1014
  546loPI   GL2 8726   5.944   2.782  10.206  0.1027  0.1908  0.4480
  546loPI   C1A 8727   6.343   3.085   9.882  0.1018  0.0987 -0.1119
  546loPI   C2A 8728   6.447   3.145   9.529 -0.1238 -0.0549 -0.0592
  546loPI   C3A 8729   6.450   3.212   9.096  0.0093  0.1592 -0.2829
  546loPI   C4A 8730   6.367   3.220   8.701 -0.0782 -0.0710  0.1889
  546loPI   C5A 8731   6.266   3.221   8.347 -0.0211  0.1755 -0.0309
  546loPI   C6A 8732   6.147   3.342   8.013  0.0392  0.3544 -0.2215
  546loPI   C1B 8733   5.904   2.820   9.757  0.0281 -0.1501 -0.0884
  546loPI   C2B 8734   6.051   2.825   9.449  0.0733  0.0448  0.1901
  546loPI   C3B 8735   6.093   2.820   9.052  0.2657 -0.0251  0.1144
  546loPI   C4B 8736   6.042   2.837   8.594  0.1699  0.0951 -0.2479
  547loPI    C1 8737  16.326   0.994  10.734 -0.0861  0.0407 -0.0135
  547loPI    C2 8738  16.495   0.669  10.894 -0.2390 -0.1309 -0.1953
  547loPI    C3 8739  16.278   0.915  11.123  0.0928 -0.0117 -0.0010
  547loPI   PO4 8740  16.354   0.886  10.486  0.1826 -0.3254  0.0139
  547loPI   GL1 8741  16.134   1.132  10.177  0.4337  0.0552 -0.2533
  547loPI   GL2 8742  16.079   1.407  10.152 -0.0548  0.0925  0.0424
  547loPI   C1A 8743  16.066   1.137   9.708  0.0927  0.1098  0.3019
  547loPI   C2A 8744  16.079   1.137   9.318  0.1979 -0.0475 -0.0035
  547loPI   C3A 8745  15.997   1.158   8.839  0.0915 -0.1383  0.2166
  547loPI   C4A 8746  16.142   1.072   8.383 -0.1291 -0.1810  0.1233
  547loPI   C5A 8747  16.295   0.728   8.154 -0.2042 -0.1795  0.0937
  547loPI   C6A 8748  16.064   0.398   8.081 -0.3749 -0.2216 -0.1327
  547loPI   C1B 8749  16.037   1.713   9.813  0.2673 -0.1164 -0.4333
  547loPI   C2B 8750  15.974   1.736   9.384  0.0606  0.1094 -0.1281
  547loPI   C3B 8751  16.077   1.759   8.847  0.4834 -0.0343 -0.0177
  547loPI   C4B 8752  16.007   1.642   8.454 -0.0229 -0.0653  0.0438
  548loPI    C1 8753   1.455   6.976  11.099 -0.0125  0.0559  0.0766
  548loPI    C2 8754   1.231   7.298  11.176 -0.3039 -0.1778  0.2290
  548loPI    C3 8755   1.486   7.162  11.452 -0.0136  0.0508  0.0795
  548loPI   PO4 8756   1.604   7.124  10.814  0.1487 -0.0939 -0.1531
  548loPI   GL1 8757   1.644   7.195  10.517  0.2185  0.1122 -0.1925
  548loPI   GL2 8758   1.302   7.105  10.342 -0.2449  0.0143 -0.4787
  548loPI   C1A 8759   1.884   7.076  10.179 -0.0226 -0.0458  0.2760
  548loPI   C2A 8760   1.912   7.058   9.686 -0.0839 -0.1388 -0.0498
  548loPI   C3A 8761   2.031   7.137   9.231  0.0234  0.0162  0.2706
  548loPI   C4A 8762   1.938   7.114   8.828 -0.0762 -0.0333  0.2087
  548loPI   C5A 8763   1.999   7.269   8.305  0.2175  0.2354 -0.1817
  548loPI   C6A 8764   2.438   7.398   8.108  0.4027 -0.2841 -0.0039
  548loPI   C1B 8765   1.440   7.184   9.881  0.0061  0.4347 -0.0825
  548loPI   C2B 8766   1.474   7.199   9.491 -0.2319  0.0882 -0.1242
  548loPI   C3B 8767   1.464   7.210   9.048  0.1353  0.0590  0.0887
  548loPI   C4B 8768   1.574   7.308   8.566  0.0114 -0.0222 -0.0191
  549loPI    C1 8769   9.114   2.097  10.975 -0.1327  0.0169  0.0724
  549loPI    C2 8770   8.722   2.021  10.950 -0.1606  0.1383  0.1325
  549loPI    C3 8771   8.940   1.854  11.241 -0.0731 -0.3075 -0.1800
  549loPI   PO4 8772   9.196   1.933  10.669 -0.2074  0.1154  0.1943
  549loPI   GL1 8773   9.153   1.762  10.306  0.0657  0.0898 -0.1100
  549loPI   GL2 8774   9.460   1.724  10.219  0.0287  0.1696 -0.0179
  549loPI   C1A 8775   8.939   1.928   9.879 -0.0771  0.1132 -0.1099
  549loPI   C2A 8776   8.949   1.860   9.437 -0.0244  0.3469  0.0120
  549loPI   C3A 8777   9.009   1.852   9.099  0.0035 -0.0984  0.3827
  549loPI   C4A 8778   9.113   1.880   8.646  0.3032  0.0799  0.2796
  549loPI   C5A 8779   9.105   1.715   8.288 -0.1656  0.1679 -0.0424
  549loPI   C6A 8780   9.229   1.172   8.259 -0.1059  0.1416 -0.0867
  549loPI   C1B 8781   9.475   1.689   9.752  0.1464 -0.4042  0.1838
  549loPI   C2B 8782   9.506   1.739   9.306  0.0224  0.1258 -0.1771
  549loPI   C3B 8783   9.506   1.687   8.926  0.0754 -0.0151 -0.0553
  549loPI   C4B 8784   9.572   1.620   8.534 -0.2854 -0.1768  0.0667
  550loPI    C1 8785  14.875   1.868  10.724 -0.0662 -0.0646 -0.0486
  550loPI    C2 8786  15.164   1.977  10.470 -0.0981  0.0968 -0.0169
  550loPI    C3 8787  15.227   1.995  10.864 -0.0677 -0.1015 -0.0119
  550loPI   PO4 8788  14.743   1.702  10.518  0.4346 -0.0181  0.2198
  550loPI   GL1 8789  14.539   1.740  10.293 -0.0971  0.2029  0.0792
  550loPI   GL2 8790  14.245   1.862  10.220  0.1496  0.2704  0.2603
  550loPI   C1A 8791  14.666   1.750   9.814  0.1388  0.1649 -0.2639
  550loPI   C2A 8792  14.665   1.791   9.387 -0.0759 -0.0573 -0.2359
  550loPI   C3A 8793  14.593   1.893   8.995 -0.0001 -0.0755  0.0561
  550loPI   C4A 8794  14.582   1.643   8.656 -0.0363 -0.1846  0.1945
  550loPI   C5A 8795  14.748   1.871   8.231  0.0222  0.0858 -0.0774
  550loPI   C6A 8796  14.946   2.243   8.219  0.4857 -0.1722 -0.0878
  550loPI   C1B 8797  14.124   2.007   9.803  0.0471  0.3252 -0.2068
  550loPI   C2B 8798  14.146   1.996   9.322  0.0574 -0.0829 -0.1002
  550loPI   C3B 8799  14.150   1.881   8.856 -0.0040  0.2825  0.0689
  550loPI   C4B 8800  14.144   1.911   8.424  0.1006  0.1154 -0.2570
  551loPI    C1 8801   2.013   2.694  10.676  0.0437  0.0357  0.0958
  551loPI    C2 8802   2.058   2.414  10.959 -0.0520  0.0173  0.0933
  551loPI    C3 8803   2.309   2.725  10.943  0.0264 -0.0441  0.1247
  551loPI   PO4 8804   2.090   2.647  10.462 -0.0705 -0.0801  0.0921
  551loPI   GL1 8805   2.165   2.754  10.066 -0.0412  0.0636  0.1060
  551loPI   GL2 8806   2.381   2.673  10.010 -0.0086  0.2394 -0.1054
  551loPI   C1A 8807   2.119   2.775   9.576 -0.0459 -0.0871 -0.1762
  551loPI   C2A 8808   1.841   2.787   9.220 -0.1701  0.0906 -0.1539
  551loPI   C3A 8809   1.992   2.779   8.747  0.0098  0.3412 -0.0410
  551loPI   C4A 8810   1.999   2.838   8.284 -0.2376  0.2744 -0.1940
  551loPI   C5A 8811   2.164   2.817   7.901  0.2115  0.0941 -0.1399
  551loPI   C6A 8812   2.561   2.719   7.664  0.0524  0.2346  0.0854
  551loPI   C1B 8813   2.519   2.531   9.577 -0.0427 -0.1029 -0.0347
  551loPI   C2B 8814   2.407   2.535   9.124  0.2777  0.0450  0.2663
  551loPI   C3B 8815   2.476   2.720   8.766 -0.2447  0.2659  0.0657
  551loPI   C4B 8816   2.480   2.695   8.288  0.1211 -0.0836  0.0413
  552loPI    C1 8817  14.556  14.969  10.748  0.0780  0.0229 -0.0645
  552loPI    C2 8818  14.156  14.986  10.732  0.0446 -0.0386  0.4931
  552loPI    C3 8819  14.359  15.244  10.962  0.3499  0.1437  0.0350
  552loPI   PO4 8820  14.609  14.937  10.516 -0.0642 -0.0691  0.2299
  552loPI   GL1 8821  14.467  14.939  10.206  0.3309  0.3289 -0.1324
  552loPI   GL2 8822  14.416  15.208  10.025  0.2494  0.2483  0.2221
  552loPI   C1A 8823  14.474  14.691   9.920  0.2833  0.1604 -0.1163
  552loPI   C2A 8824  14.510  14.608   9.425  0.0946  0.2621 -0.0840
  552loPI   C3A 8825  14.516  14.635   9.010 -0.1668 -0.0219 -0.0696
  552loPI   C4A 8826  14.609  14.560   8.658 -0.0907 -0.0745  0.0486
  552loPI   C5A 8827  14.485  14.349   8.271 -0.2025 -0.0815  0.0957
  552loPI   C6A 8828  14.187  14.222   7.971 -0.0419  0.0970  0.0788
  552loPI   C1B 8829  14.504  15.077   9.597 -0.0887  0.0448  0.0925
  552loPI   C2B 8830  14.526  15.069   9.189  0.1409  0.0924  0.0951
  552loPI   C3B 8831  14.443  15.075   8.733  0.0731  0.1572  0.1607
  552loPI   C4B 8832  14.568  14.912   8.356  0.2311  0.1645  0.3091
  553loPI    C1 8833  14.582   8.386  10.901  0.2317  0.1045  0.1546
  553loPI    C2 8834  14.684   8.114  11.176 -0.0041  0.0130  0.1543
  553loPI    C3 8835  14.474   8.438  11.282 -0.1476 -0.0525  0.0736
  553loPI   PO4 8836  14.789   8.396  10.715 -0.2221 -0.1679 -0.1292
  553loPI   GL1 8837  14.673   8.292  10.299  0.3775 -0.0816  0.0483
  553loPI   GL2 8838  15.014   8.571  10.299  0.0340 -0.0452 -0.1043
  553loPI   C1A 8839  14.715   8.361   9.912  0.1664 -0.1353  0.0169
  553loPI   C2A 8840  14.744   8.399   9.449 -0.1147  0.0241  0.3095
  553loPI   C3A 8841  14.792   8.346   9.030  0.1202 -0.0725 -0.1352
  553loPI   C4A 8842  14.883   8.402   8.628  0.0182 -0.1847  0.4139
  553loPI   C5A 8843  15.052   8.317   8.203  0.1912  0.0649  0.2255
  553loPI   C6A 8844  15.363   8.237   7.991  0.2871  0.2869 -0.0406
  553loPI   C1B 8845  15.183   8.645   9.945 -0.3036 -0.0008 -0.1954
  553loPI   C2B 8846  15.169   8.685   9.501 -0.2354 -0.2528  0.2813
  553loPI   C3B 8847  15.189   8.675   9.042  0.0133 -0.1952  0.2516
  553loPI   C4B 8848  15.237   8.715   8.572 -0.1496  0.2537 -0.2323
  554loPI    C1 8849  10.669   9.288  10.533  0.1556 -0.2402 -0.2095
  554loPI    C2 8850  10.930   9.220  10.828  0.0033  0.3252  0.0709
  554loPI    C3 8851  10.579   9.029  10.824  0.2252 -0.0933 -0.0551
  554loPI   PO4 8852  10.761   9.259  10.354  0.0611 -0.3079  0.0913
  554loPI   GL1 8853  10.789   9.191  10.016 -0.4430 -0.0942 -0.2313
  554loPI   GL2 8854  10.846   8.868   9.999 -0.0952  0.0437 -0.0250
  554loPI   C1A 8855  10.915   9.196   9.564 -0.1804 -0.0543  0.1025
  554loPI   C2A 8856  10.973   9.256   9.126 -0.3001  0.1924 -0.3255
  554loPI   C3A 8857  11.074   9.258   8.663  0.3338 -0.1328 -0.1223
  554loPI   C4A 8858  10.869   9.426   8.251 -0.2391  0.0559 -0.1286
  554loPI   C5A 8859  10.533   9.605   8.033 -0.0769  0.2283  0.1691
  554loPI   C6A 8860  10.415  10.065   8.000  0.0092  0.3239  0.0828
  554loPI   C1B 8861  10.530   8.848   9.652 -0.1935  0.1594  0.0716
  554loPI   C2B 8862  10.570   8.931   9.130  0.0359  0.0828 -0.3039
  554loPI   C3B 8863  10.551   8.929   8.713 -0.0716 -0.1796  0.0297
  554loPI   C4B 8864  10.633   8.933   8.286  0.2582 -0.3636  0.1532
  555loPI    C1 8865   0.007   4.897  10.932  0.1891  0.2099 -0.0763
  555loPI    C2 8866   0.279   5.174  11.030  0.4004 -0.0455  0.0701
  555loPI    C3 8867   0.064   4.995  11.316  0.0735  0.1561 -0.0451
  555loPI   PO4 8868  -0.104   4.966  10.679 -0.1969 -0.0124 -0.2410
  555loPI   GL1 8869  -0.288   5.076  10.185 -0.0325 -0.1060  0.1623
  555loPI   GL2 8870  -0.069   5.250  10.148  0.0163 -0.1902  0.3352
  555loPI   C1A 8871  -0.460   4.990   9.789  0.0406  0.0958 -0.2672
  555loPI   C2A 8872  -0.402   4.907   9.328  0.2489 -0.3034  0.3055
  555loPI   C3A 8873  -0.480   4.872   8.924  0.0685  0.1491 -0.0523
  555loPI   C4A 8874  -0.565   4.857   8.447 -0.0657  0.0352  0.0556
  555loPI   C5A 8875  -0.430   5.088   8.039  0.0215  0.2236  0.1487
  555loPI   C6A 8876  -0.478   5.557   7.938  0.1496 -0.1349  0.1237
  555loPI   C1B 8877  -0.023   5.294   9.667  0.0327  0.2195  0.3903
  555loPI   C2B 8878  -0.033   5.290   9.252  0.2390  0.3565  0.0768
  555loPI   C3B 8879  -0.123   5.244   8.922  0.0450 -0.0002  0.2992
  555loPI   C4B 8880   0.024   5.364   8.597 -0.0446  0.0946  0.1600
  556loPI    C1 8881   1.240  14.461  11.125 -0.0389  0.2016  0.0705
  556loPI    C2 8882   1.237  14.455  11.524 -0.1064 -0.0240  0.0681
  556loPI    C3 8883   1.270  14.803  11.330 -0.0739  0.0870  0.2692
  556loPI   PO4 8884   1.456  14.292  11.001  0.2586 -0.0752  0.1885
  556loPI   GL1 8885   1.625  14.264  10.661 -0.3022 -0.2025 -0.1515
  556loPI   GL2 8886   1.479  14.526  10.502 -0.0507  0.0974  0.1202
  556loPI   C1A 8887   1.865  14.278  10.195 -0.1183  0.3690 -0.0893
  556loPI   C2A 8888   1.822  14.185   9.790 -0.1408 -0.2970 -0.0994
  556loPI   C3A 8889   1.832  14.217   9.379  0.2083 -0.0095  0.1489
  556loPI   C4A 8890   1.885  14.220   8.977  0.0196  0.1413 -0.0233
  556loPI   C5A 8891   1.966  14.335   8.579 -0.0877 -0.0603 -0.0547
  556loPI   C6A 8892   2.256  14.462   8.369 -0.1092  0.2291 -0.0027
  556loPI   C1B 8893   1.420  14.489  10.073 -0.2989 -0.1299 -0.1767
  556loPI   C2B 8894   1.342  14.314   9.586 -0.3970 -0.2120  0.1733
  556loPI   C3B 8895   1.464  14.398   9.159  0.0633  0.1942  0.3794
  556loPI   C4B 8896   1.427  14.315   8.707 -0.1683 -0.2454  0.1394
  557loPI    C1 8897   5.277   6.622  10.810  0.1050  0.0271  0.1982
  557loPI    C2 8898   4.961   6.536  11.040  0.0740 -0.1806  0.0802
  557loPI    C3 8899   5.326   6.555  11.201  0.0073  0.0310  0.2115
  557loPI   PO4 8900   5.168   6.607  10.526  0.2799 -0.1038  0.0445
  557loPI   GL1 8901   4.829   6.889  10.245  0.2371  0.1995  0.0406
  557loPI   GL2 8902   5.198   6.960  10.112  0.1763 -0.1664  0.0382
  557loPI   C1A 8903   4.708   6.999   9.849  0.1154  0.1100  0.3189
  557loPI   C2A 8904   4.757   7.049   9.384  0.0502  0.1098 -0.0229
  557loPI   C3A 8905   4.771   7.063   8.932  0.0382  0.0076  0.0958
  557loPI   C4A 8906   4.719   7.030   8.481  0.0669  0.1037 -0.0750
  557loPI   C5A 8907   4.749   6.865   8.086 -0.1639 -0.2126 -0.0367
  557loPI   C6A 8908   4.545   7.009   7.700 -0.1264  0.0381 -0.0012
  557loPI   C1B 8909   5.256   6.863   9.646 -0.0037 -0.1966  0.0731
  557loPI   C2B 8910   5.215   6.855   9.201  0.1116 -0.0380 -0.2293
  557loPI   C3B 8911   5.212   6.873   8.717 -0.2756 -0.0126 -0.1254
  557loPI   C4B 8912   5.335   6.797   8.287 -0.1260  0.1945  0.1307
  558loPI    C1 8913   7.726   5.703  10.951 -0.2075  0.0340  0.2648
  558loPI    C2 8914   8.106   5.823  10.916 -0.1567 -0.1921 -0.0074
  558loPI    C3 8915   7.908   5.881  11.259 -0.0270  0.3419 -0.0131
  558loPI   PO4 8916   7.648   5.761  10.650 -0.0210 -0.0839 -0.1530
  558loPI   GL1 8917   7.431   5.544  10.366 -0.0125 -0.0730  0.1169
  558loPI   GL2 8918   7.431   5.249  10.176  0.0425 -0.1045 -0.0141
  558loPI   C1A 8919   7.235   5.655   9.978  0.0382 -0.1404  0.3959
  558loPI   C2A 8920   7.233   5.617   9.486 -0.2791 -0.1707 -0.4072
  558loPI   C3A 8921   7.284   5.696   8.960 -0.3456  0.1496 -0.3095
  558loPI   C4A 8922   7.306   5.723   8.560 -0.0961 -0.2304 -0.1477
  558loPI   C5A 8923   7.023   5.846   8.192  0.0810 -0.1357 -0.0134
  558loPI   C6A 8924   6.588   5.928   8.044  0.1630  0.3614  0.3389
  558loPI   C1B 8925   7.285   5.187   9.805 -0.1042  0.1597 -0.2920
  558loPI   C2B 8926   7.419   5.165   9.380 -0.2348  0.2815  0.0723
  558loPI   C3B 8927   7.463   5.216   8.933  0.0436  0.1076 -0.2161
  558loPI   C4B 8928   7.610   5.270   8.457  0.0803  0.1505  0.1371
  559loPI    C1 8929  10.649   8.594  10.499  0.2304 -0.1092  0.0596
  559loPI    C2 8930  10.619   8.275  10.738  0.1699 -0.0024  0.1962
  559loPI    C3 8931  10.365   8.581  10.780  0.0640 -0.0449 -0.1032
  559loPI   PO4 8932  10.593   8.499  10.245  0.0542  0.0837  0.0668
  559loPI   GL1 8933  10.353   8.501   9.993  0.3708  0.0321 -0.3412
  559loPI   GL2 8934  10.550   8.250   9.850 -0.0831  0.0078 -0.0675
  559loPI   C1A 8935  10.084   8.656   9.722 -0.1135 -0.0867  0.0242
  559loPI   C2A 8936  10.199   8.635   9.317 -0.0099 -0.0155  0.2555
  559loPI   C3A 8937  10.142   8.595   8.810 -0.3306  0.1937 -0.0102
  559loPI   C4A 8938  10.189   8.661   8.388  0.3010  0.0738  0.0233
  559loPI   C5A 8939  10.172   8.519   7.955 -0.1609 -0.0811 -0.0115
  559loPI   C6A 8940  10.407   8.587   7.586 -0.0004 -0.1947  0.1596
  559loPI   C1B 8941  10.707   8.396   9.432 -0.0363  0.1284  0.1274
  559loPI   C2B 8942  10.686   8.424   9.026  0.0239  0.0377 -0.3557
  559loPI   C3B 8943  10.623   8.428   8.518  0.0850  0.0937  0.0329
  559loPI   C4B 8944  10.702   8.479   8.023 -0.4699  0.1063 -0.0924
  560loPI    C1 8945  16.588  10.358  10.924 -0.4109 -0.0079 -0.1041
  560loPI    C2 8946  16.478  10.077  11.187 -0.1525 -0.1295 -0.1227
  560loPI    C3 8947  16.480  10.462  11.295  0.1435 -0.1954  0.1202
  560loPI   PO4 8948  16.400  10.250  10.621 -0.0924 -0.4071  0.0530
  560loPI   GL1 8949  16.592  10.357  10.175 -0.1456  0.1458  0.3137
  560loPI   GL2 8950  16.727  10.644  10.013  0.2644 -0.1156  0.0231
  560loPI   C1A 8951  16.436  10.317   9.764 -0.0226  0.1935 -0.0849
  560loPI   C2A 8952  16.365  10.199   9.355  0.0231  0.1977  0.2735
  560loPI   C3A 8953  16.233  10.271   8.814 -0.1394 -0.0440  0.0186
  560loPI   C4A 8954  16.142  10.229   8.316  0.0619  0.0520  0.2724
  560loPI   C5A 8955  16.462  10.333   7.993 -0.0500  0.0177 -0.2868
  560loPI   C6A 8956  16.886  10.389   7.955  0.1961  0.1839  0.2665
  560loPI   C1B 8957  16.749  10.586   9.534 -0.1106 -0.2271 -0.2660
  560loPI   C2B 8958  16.664  10.536   9.173 -0.3782 -0.0921  0.0666
  560loPI   C3B 8959  16.664  10.581   8.762 -0.0268  0.0169  0.1383
  560loPI   C4B 8960  16.740  10.604   8.376 -0.3520 -0.3388  0.1058
  561loPI    C1 8961   7.237  12.326  11.112  0.2047 -0.0368  0.2170
  561loPI    C2 8962   6.858  12.212  11.166  0.0252  0.2693 -0.3196
  561loPI    C3 8963   7.001  12.531  11.360  0.1441 -0.0878  0.2017
  561loPI   PO4 8964   7.231  12.391  10.881 -0.0871  0.0482 -0.1258
  561loPI   GL1 8965   7.318  12.469  10.487 -0.0552 -0.1089  0.2086
  561loPI   GL2 8966   7.196  12.725  10.369  0.1292 -0.0640  0.1375
  561loPI   C1A 8967   7.287  12.324  10.093  0.0646  0.4968 -0.2362
  561loPI   C2A 8968   7.157  12.446   9.735  0.0887 -0.0287  0.0875
  561loPI   C3A 8969   7.254  12.469   9.328  0.0451  0.3845  0.0980
  561loPI   C4A 8970   7.245  12.416   8.855  0.1146 -0.1911  0.2303
  561loPI   C5A 8971   7.131  12.447   8.384  0.3510 -0.0225 -0.1061
  561loPI   C6A 8972   7.248  12.801   8.205  0.2519  0.1817  0.1341
  561loPI   C1B 8973   7.144  12.903   9.949 -0.0799 -0.1742  0.3662
  561loPI   C2B 8974   7.086  12.953   9.493 -0.0022  0.0445 -0.1208
  561loPI   C3B 8975   7.172  12.992   9.111  0.0925  0.1446  0.0834
  561loPI   C4B 8976   7.120  12.982   8.642 -0.2940  0.0539  0.1171
  562loPI    C1 8977  12.815   9.325  11.123  0.0901 -0.0911 -0.2462
  562loPI    C2 8978  13.112   9.077  11.224 -0.0327 -0.2046 -0.1617
  562loPI    C3 8979  12.732   8.952  11.241 -0.0975 -0.0006 -0.0865
  562loPI   PO4 8980  12.832   9.426  10.905  0.1753 -0.1845  0.0958
  562loPI   GL1 8981  13.009   9.743  10.571  0.1882  0.1496 -0.2535
  562loPI   GL2 8982  12.949   9.393  10.386 -0.2261  0.1162  0.0720
  562loPI   C1A 8983  12.964   9.866  10.160  0.0046 -0.2513 -0.0931
  562loPI   C2A 8984  13.076   9.896   9.735 -0.0952 -0.2810 -0.0764
  562loPI   C3A 8985  13.185   9.945   9.298 -0.2675  0.1542  0.0511
  562loPI   C4A 8986  13.219   9.906   8.808 -0.0978 -0.2199 -0.0351
  562loPI   C5A 8987  13.181   9.744   8.463 -0.1302 -0.0363 -0.0984
  562loPI   C6A 8988  13.312   9.451   8.130  0.2545  0.0935 -0.0576
  562loPI   C1B 8989  13.117   9.339  10.028 -0.4954 -0.0974  0.0030
  562loPI   C2B 8990  13.223   9.441   9.637  0.0405  0.2848 -0.0264
  562loPI   C3B 8991  13.227   9.485   9.177 -0.1137  0.1336  0.1975
  562loPI   C4B 8992  13.233   9.364   8.750  0.1068  0.3130  0.0697
  563loPI    C1 8993   0.307   6.897  11.071 -0.0997  0.2582 -0.1043
  563loPI    C2 8994   0.288   7.057  11.437  0.1486  0.0114  0.0203
  563loPI    C3 8995   0.123   6.700  11.366  0.0356  0.0924 -0.1288
  563loPI   PO4 8996   0.186   6.979  10.852 -0.2503 -0.0322 -0.0792
  563loPI   GL1 8997   0.186   6.998  10.489  0.0019 -0.1503  0.2032
  563loPI   GL2 8998   0.392   6.924  10.381  0.1429  0.1726 -0.1613
  563loPI   C1A 8999   0.044   7.104  10.098  0.0031 -0.0051  0.0720
  563loPI   C2A 9000   0.086   7.164   9.700  0.1113  0.1558  0.0533
  563loPI   C3A 9001   0.081   7.249   9.205  0.1623  0.0460 -0.0467
  563loPI   C4A 9002   0.126   7.236   8.765  0.0149 -0.0638 -0.3141
  563loPI   C5A 9003   0.022   7.181   8.411  0.0628 -0.0943  0.3340
  563loPI   C6A 9004  -0.047   6.817   8.183 -0.0489 -0.2996 -0.1745
  563loPI   C1B 9005   0.555   6.858   9.958  0.0844  0.2337 -0.0529
  563loPI   C2B 9006   0.598   7.003   9.607 -0.1163  0.2580  0.3242
  563loPI   C3B 9007   0.564   7.094   9.141 -0.0080 -0.1325  0.0404
  563loPI   C4B 9008   0.559   7.066   8.816 -0.2152 -0.1028 -0.2999
  564loPI    C1 9009   7.484  14.909  11.167 -0.0642 -0.3089 -0.1169
  564loPI    C2 9010   7.631  15.165  11.437 -0.0024 -0.0637 -0.3780
  564loPI    C3 9011   7.333  14.918  11.537  0.1146 -0.0762 -0.0469
  564loPI   PO4 9012   7.417  15.152  10.981  0.0417 -0.0261 -0.2987
  564loPI   GL1 9013   7.259  15.029  10.696  0.2549  0.2059 -0.2011
  564loPI   GL2 9014   7.420  14.959  10.447 -0.0307  0.0460  0.0190
  564loPI   C1A 9015   6.979  15.158  10.309  0.1559  0.2175 -0.0457
  564loPI   C2A 9016   7.141  15.312   9.899 -0.0170  0.1883  0.0301
  564loPI   C3A 9017   7.062  15.390   9.519  0.3220 -0.2050  0.2541
  564loPI   C4A 9018   7.161  15.358   9.061 -0.2411  0.4756 -0.0359
  564loPI   C5A 9019   7.192  15.351   8.570  0.3203  0.1073  0.2199
  564loPI   C6A 9020   7.490  15.233   8.245 -0.0239 -0.2570 -0.0080
  564loPI   C1B 9021   7.579  15.025  10.024 -0.0040 -0.3940 -0.0677
  564loPI   C2B 9022   7.545  15.093   9.634 -0.1745 -0.3353 -0.1693
  564loPI   C3B 9023   7.634  15.212   9.257  0.0212  0.0674 -0.0605
  564loPI   C4B 9024   7.615  15.195   8.778  0.0071 -0.3996 -0.2528
  565loPI    C1 9025  15.258  13.869  10.967  0.1590 -0.2479 -0.2499
  565loPI    C2 9026  14.944  13.639  11.059 -0.3212  0.3866 -0.2285
  565loPI    C3 9027  15.148  13.824  11.349  0.2495 -0.2192 -0.2203
  565loPI   PO4 9028  15.366  13.628  10.810  0.0474 -0.0268  0.0997
  565loPI   GL1 9029  15.644  13.741  10.516 -0.0697  0.0143 -0.2962
  565loPI   GL2 9030  15.663  13.487  10.314  0.2368 -0.0852 -0.0590
  565loPI   C1A 9031  15.581  13.923  10.111  0.1556  0.1507  0.2965
  565loPI   C2A 9032  15.630  13.883   9.697  0.1313  0.2680 -0.2630
  565loPI   C3A 9033  15.657  13.793   9.246  0.2152 -0.3379  0.0126
  565loPI   C4A 9034  15.624  13.771   8.801 -0.0771 -0.1192 -0.2109
  565loPI   C5A 9035  15.737  13.778   8.445 -0.0125 -0.1622 -0.3292
  565loPI   C6A 9036  15.919  13.621   8.086  0.0702 -0.2492  0.0037
  565loPI   C1B 9037  15.658  13.388   9.784  0.4208 -0.0973 -0.0122
  565loPI   C2B 9038  15.723  13.307   9.326  0.3164 -0.3389  0.0668
  565loPI   C3B 9039  15.746  13.286   8.832  0.0658 -0.0436  0.0498
  565loPI   C4B 9040  15.888  13.230   8.392  0.0719  0.1491  0.0629
  566loPI    C1 9041  16.880  16.481  10.960 -0.1790 -0.0029  0.0306
  566loPI    C2 9042  16.577  16.320  11.165 -0.1021 -0.0151  0.1353
  566loPI    C3 9043  16.875  16.503  11.359 -0.2684  0.3993  0.0126
  566loPI   PO4 9044  17.039  16.289  10.763  0.0977 -0.1746  0.0627
  566loPI   GL1 9045  16.982  16.011  10.485  0.1737 -0.0059  0.2353
  566loPI   GL2 9046  17.326  15.965  10.522  0.4099 -0.0670  0.2489
  566loPI   C1A 9047  16.929  16.048  10.023 -0.0548  0.0134  0.0657
  566loPI   C2A 9048  16.963  16.185   9.581 -0.3374 -0.0297 -0.0167
  566loPI   C3A 9049  17.046  16.216   9.171  0.1285 -0.2105 -0.1728
  566loPI   C4A 9050  16.959  16.162   8.738 -0.1288 -0.0359 -0.0675
  566loPI   C5A 9051  17.241  16.153   8.496  0.2179 -0.1462  0.1711
  566loPI   C6A 9052  17.391  15.843   8.453  0.1320  0.1834  0.0130
  566loPI   C1B 9053  17.445  16.083  10.151  0.1400  0.0241 -0.0157
  566loPI   C2B 9054  17.506  16.016   9.776  0.4345  0.0723 -0.2536
  566loPI   C3B 9055  17.467  16.005   9.341  0.0824 -0.1577 -0.3617
  566loPI   C4B 9056  17.510  16.097   8.932  0.1232  0.2616  0.1548
  567loPI    C1 9057  11.803  10.764  11.027  0.1993 -0.0976  0.0413
  567loPI    C2 9058  11.790  10.447  11.271  0.0345  0.0950  0.2895
  567loPI    C3 9059  11.503  10.725  11.289  0.0941  0.1825 -0.0333
  567loPI   PO4 9060  11.827  10.686  10.826  0.0703  0.2374 -0.0187
  567loPI   GL1 9061  11.707  10.519  10.340  0.0852 -0.0165 -0.0551
  567loPI   GL2 9062  11.965  10.677  10.316 -0.2120 -0.0628 -0.2417
  567loPI   C1A 9063  11.576  10.347   9.932 -0.0282  0.2314  0.0957
  567loPI   C2A 9064  11.728  10.417   9.491 -0.0615  0.0310  0.1344
  567loPI   C3A 9065  11.681  10.377   9.077  0.2154  0.0176 -0.1738
  567loPI   C4A 9066  11.678  10.439   8.685  0.3620  0.1890  0.0041
  567loPI   C5A 9067  11.786  10.579   8.237  0.2815  0.1469 -0.1568
  567loPI   C6A 9068  11.717  10.707   7.814  0.0528 -0.2192  0.2524
  567loPI   C1B 9069  12.096  10.679   9.838  0.1692  0.0769  0.0968
  567loPI   C2B 9070  12.116  10.739   9.418  0.2247 -0.1558  0.4742
  567loPI   C3B 9071  12.136  10.734   8.959  0.2730 -0.1041 -0.0679
  567loPI   C4B 9072  12.098  10.811   8.635 -0.0008 -0.0736  0.1413
  568loPI    C1 9073  16.859  17.422  10.820  0.0536 -0.2386  0.1199
  568loPI    C2 9074  16.524  17.370  11.033 -0.0364  0.1718  0.0885
  568loPI    C3 9075  16.882  17.335  11.210 -0.0994 -0.0108  0.1822
  568loPI   PO4 9076  16.743  17.644  10.650 -0.3811  0.1003 -0.2281
  568loPI   GL1 9077  16.804  17.758  10.303 -0.0785  0.0005  0.1026
  568loPI   GL2 9078  16.649  17.951  10.004 -0.2552  0.1376 -0.4203
  568loPI   C1A 9079  17.006  17.484  10.026  0.2902 -0.0436  0.0110
  568loPI   C2A 9080  17.114  17.505   9.625 -0.4238 -0.3997  0.3616
  568loPI   C3A 9081  16.996  17.507   9.239 -0.1195  0.2533 -0.2716
  568loPI   C4A 9082  17.115  17.564   8.803  0.1802  0.2278  0.1188
  568loPI   C5A 9083  17.048  17.566   8.301  0.2498  0.1672  0.0074
  568loPI   C6A 9084  17.204  17.663   7.977  0.2085  0.2180  0.3466
  568loPI   C1B 9085  16.753  17.862   9.540 -0.1255  0.3483 -0.0019
  568loPI   C2B 9086  16.678  17.801   9.060 -0.3949  0.0311 -0.0615
  568loPI   C3B 9087  16.664  17.631   8.602 -0.0132 -0.0878 -0.1755
  568loPI   C4B 9088  16.314  17.752   8.249  0.1253  0.3741  0.1124
  569loPI    C1 9089   6.785   5.270  11.004 -0.0020 -0.2463  0.3148
  569loPI    C2 9090   6.770   5.389  11.386  0.0735 -0.0611  0.2611
  569loPI    C3 9091   7.120   5.285  11.222  0.0767  0.0785  0.1775
  569loPI   PO4 9092   6.683   5.356  10.820  0.0017  0.0792 -0.0122
  569loPI   GL1 9093   6.927   5.489  10.353  0.0544 -0.3196 -0.0555
  569loPI   GL2 9094   6.957   5.730  10.351  0.1600  0.1367  0.0319
  569loPI   C1A 9095   6.823   5.345   9.984 -0.2010 -0.1841  0.2362
  569loPI   C2A 9096   6.848   5.306   9.510 -0.2653  0.0572  0.0469
  569loPI   C3A 9097   6.991   5.349   9.137 -0.0704  0.2521 -0.0239
  569loPI   C4A 9098   6.959   5.442   8.708 -0.0599 -0.1574  0.0160
  569loPI   C5A 9099   7.127   5.288   8.274 -0.0440 -0.1933 -0.0316
  569loPI   C6A 9100   7.284   5.383   7.851  0.4141 -0.0242 -0.0736
  569loPI   C1B 9101   6.766   5.888  10.070  0.1819  0.1509 -0.2738
  569loPI   C2B 9102   6.757   5.897   9.587 -0.2042 -0.0882  0.0502
  569loPI   C3B 9103   6.842   5.862   9.125  0.1660  0.2431 -0.0404
  569loPI   C4B 9104   6.831   5.900   8.663  0.3177  0.0379 -0.3399
  570loPI    C1 9105  10.587   7.122  10.234 -0.0264  0.0374  0.1290
  570loPI    C2 9106  10.675   6.811  10.469  0.0597  0.0641  0.1324
  570loPI    C3 9107  10.459   7.115  10.613 -0.0060  0.0162  0.1354
  570loPI   PO4 9108  10.466   6.945  10.049 -0.1789 -0.0880 -0.1808
  570loPI   GL1 9109  10.477   6.756   9.720 -0.0782 -0.1426  0.0216
  570loPI   GL2 9110  10.269   6.608   9.656 -0.1898 -0.2605 -0.2610
  570loPI   C1A 9111  10.859   6.907   9.416  0.2470  0.0587  0.4755
  570loPI   C2A 9112  10.917   6.902   8.965 -0.1187  0.2548 -0.1328
  570loPI   C3A 9113  10.925   6.970   8.441  0.2505  0.2620  0.0882
  570loPI   C4A 9114  10.941   6.857   8.059  0.0445 -0.2067  0.1029
  570loPI   C5A 9115  10.898   7.017   7.668 -0.1956 -0.0051  0.0311
  570loPI   C6A 9116  10.801   7.259   7.360  0.0539 -0.1947 -0.1955
  570loPI   C1B 9117  10.414   6.581   9.269  0.0687 -0.1013 -0.2461
  570loPI   C2B 9118  10.451   6.506   8.882 -0.1113 -0.1837 -0.0458
  570loPI   C3B 9119  10.574   6.573   8.480  0.0173 -0.1281 -0.0219
  570loPI   C4B 9120  10.494   6.570   8.125  0.0602 -0.1609 -0.0999
  571loPI    C1 9121   2.461  14.070  11.154  0.0907 -0.0231  0.0290
  571loPI    C2 9122   2.535  13.680  11.202  0.1288  0.0230  0.3687
  571loPI    C3 9123   2.169  13.825  11.274 -0.0556 -0.0444 -0.3574
  571loPI   PO4 9124   2.605  14.143  10.924 -0.0479 -0.1657 -0.1509
  571loPI   GL1 9125   2.572  13.880  10.551  0.1019 -0.0484 -0.2136
  571loPI   GL2 9126   2.352  13.687  10.730  0.0351 -0.4509  0.0690
  571loPI   C1A 9127   2.746  13.887  10.184  0.0544 -0.0593 -0.6045
  571loPI   C2A 9128   2.895  13.941   9.748  0.0299  0.0281 -0.0390
  571loPI   C3A 9129   2.909  13.855   9.311  0.4209  0.0342 -0.1730
  571loPI   C4A 9130   2.832  13.790   8.883  0.0610  0.0184 -0.1802
  571loPI   C5A 9131   2.919  13.916   8.411  0.0967  0.0274 -0.2027
  571loPI   C6A 9132   3.027  13.652   8.092 -0.1442 -0.1328 -0.2473
  571loPI   C1B 9133   2.111  13.652  10.378  0.1826  0.1231  0.3484
  571loPI   C2B 9134   2.090  13.777   9.895 -0.1590  0.2277 -0.4477
  571loPI   C3B 9135   2.042  13.562   9.499 -0.0896  0.0326  0.3486
  571loPI   C4B 9136   1.998  13.506   9.093  0.3766  0.0162 -0.1246
  572loPI    C1 9137   2.471  16.195  11.323  0.1167 -0.1731 -0.0220
  572loPI    C2 9138   2.383  15.820  11.429 -0.1147 -0.0984  0.0568
  572loPI    C3 9139   2.570  16.062  11.687  0.1507 -0.1967 -0.0399
  572loPI   PO4 9140   2.586  16.175  11.040  0.0631  0.1480  0.1257
  572loPI   GL1 9141   2.317  16.226  10.689  0.0267 -0.1389  0.2922
  572loPI   GL2 9142   2.267  15.946  10.618 -0.1505  0.1948 -0.0138
  572loPI   C1A 9143   2.433  16.453  10.291  0.2514 -0.1250 -0.2492
  572loPI   C2A 9144   2.325  16.399   9.891 -0.1657  0.0564  0.1677
  572loPI   C3A 9145   2.357  16.507   9.578 -0.1458  0.0125  0.0517
  572loPI   C4A 9146   2.325  16.523   9.096 -0.3902  0.0446 -0.0867
  572loPI   C5A 9147   2.242  16.437   8.658 -0.4433 -0.2568 -0.1541
  572loPI   C6A 9148   2.494  16.045   8.524  0.2032 -0.2178  0.0645
  572loPI   C1B 9149   2.393  15.950  10.183  0.2503 -0.0616 -0.1058
  572loPI   C2B 9150   2.487  15.907   9.799  0.1844  0.3861  0.2413
  572loPI   C3B 9151   2.476  16.025   9.384  0.2181  0.0089  0.1431
  572loPI   C4B 9152   2.613  15.955   8.982  0.0423  0.4452  0.0400
  573loPI    C1 9153   3.621   3.621  10.516 -0.1388  0.1516 -0.0332
  573loPI    C2 9154   3.765   3.271  10.645 -0.0990  0.1606 -0.0529
  573loPI    C3 9155   3.839   3.606  10.851 -0.0251  0.1768 -0.1053
  573loPI   PO4 9156   3.365   3.492  10.464  0.1617  0.0694  0.0243
  573loPI   GL1 9157   3.120   3.733  10.066  0.0703  0.2029 -0.0274
  573loPI   GL2 9158   3.430   3.554   9.984  0.1871 -0.0758  0.2784
  573loPI   C1A 9159   3.076   3.819   9.686 -0.2914  0.1421 -0.0442
  573loPI   C2A 9160   3.136   3.856   9.236  0.0044 -0.0333  0.0832
  573loPI   C3A 9161   3.194   3.905   8.858  0.1258 -0.2393  0.1469
  573loPI   C4A 9162   3.232   3.778   8.455  0.2444  0.0145  0.1395
  573loPI   C5A 9163   3.299   3.860   8.027 -0.1993  0.1934  0.1681
  573loPI   C6A 9164   3.408   4.084   7.814 -0.1128 -0.1816  0.1764
  573loPI   C1B 9165   3.601   3.667   9.591 -0.1960  0.0604 -0.0718
  573loPI   C2B 9166   3.595   3.628   9.125  0.5279 -0.0545 -0.3445
  573loPI   C3B 9167   3.639   3.598   8.743 -0.2076 -0.1956 -0.0462
  573loPI   C4B 9168   3.674   3.596   8.262 -0.1937  0.1070 -0.1530
  574loPI    C1 9169  15.257   3.106  10.906 -0.1393 -0.0071 -0.1142
  574loPI    C2 9170  15.389   2.754  11.043  0.0641  0.1148  0.0082
  574loPI    C3 9171  15.009   2.861  11.102 -0.0202 -0.1182 -0.1008
  574loPI   PO4 9172  15.465   3.112  10.709 -0.2247  0.0943  0.4038
  574loPI   GL1 9173  15.654   3.262  10.297  0.1300 -0.5236 -0.0853
  574loPI   GL2 9174  15.425   3.515  10.219  0.4184  0.3272  0.1305
  574loPI   C1A 9175  15.716   3.206   9.851 -0.2573  0.2309 -0.1642
  574loPI   C2A 9176  15.741   3.239   9.423 -0.1104 -0.0124 -0.1424
  574loPI   C3A 9177  15.740   3.215   8.887  0.1782  0.0703  0.0536
  574loPI   C4A 9178  15.750   3.173   8.420 -0.1846 -0.2364 -0.1261
  574loPI   C5A 9179  15.846   3.164   8.071  0.0238 -0.0918 -0.0418
  574loPI   C6A 9180  16.064   3.116   7.599  0.1041  0.1147 -0.0417
  574loPI   C1B 9181  15.309   3.469   9.758  0.0308  0.0697  0.1406
  574loPI   C2B 9182  15.256   3.371   9.298  0.1425  0.3944 -0.2598
  574loPI   C3B 9183  15.266   3.358   8.852 -0.2244  0.1964 -0.0047
  574loPI   C4B 9184  15.304   3.381   8.437  0.2627  0.0178 -0.1166
  575loPI    C1 9185   0.118   7.966  10.693  0.0996 -0.0168  0.1036
  575loPI    C2 9186   0.250   8.212  10.981  0.0399  0.0797  0.0490
  575loPI    C3 9187  -0.106   8.033  11.017  0.0733  0.0192  0.0780
  575loPI   PO4 9188   0.319   7.863  10.601  0.0336  0.2321  0.3473
  575loPI   GL1 9189   0.391   7.913  10.108  0.0317  0.0817  0.1277
  575loPI   GL2 9190   0.519   8.134  10.182 -0.1924 -0.1807  0.0511
  575loPI   C1A 9191   0.408   7.942   9.695 -0.2122  0.2326  0.2334
  575loPI   C2A 9192   0.414   8.055   9.230  0.0868 -0.0421 -0.0282
  575loPI   C3A 9193   0.469   8.075   8.767 -0.0183  0.1693 -0.2359
  575loPI   C4A 9194   0.314   8.093   8.410 -0.0101 -0.1958  0.0375
  575loPI   C5A 9195   0.277   7.765   7.965  0.0749 -0.0210 -0.1296
  575loPI   C6A 9196   0.433   7.350   7.967  0.0744  0.1957 -0.2894
  575loPI   C1B 9197   0.717   8.326   9.809 -0.0876  0.2809  0.1656
  575loPI   C2B 9198   0.788   8.399   9.354 -0.2660 -0.3075 -0.1990
  575loPI   C3B 9199   0.751   8.411   8.975  0.1317 -0.0682  0.1240
  575loPI   C4B 9200   0.737   8.424   8.455 -0.0744 -0.0526  0.1309
  576loPI    C1 9201   2.417   5.004  10.689 -0.0178  0.1676 -0.0083
  576loPI    C2 9202   2.518   5.070  11.071  0.3736 -0.1588 -0.0486
  576loPI    C3 9203   2.468   4.695  10.939  0.1222 -0.0434 -0.2918
  576loPI   PO4 9204   2.492   5.077  10.575  0.1934 -0.4043 -0.1812
  576loPI   GL1 9205   2.374   5.310  10.194  0.1757  0.2228  0.1778
  576loPI   GL2 9206   2.143   5.577  10.195  0.2277 -0.2473  0.3719
  576loPI   C1A 9207   2.742   5.393   9.944 -0.2121  0.0160 -0.2558
  576loPI   C2A 9208   2.735   5.358   9.576  0.0913  0.2378  0.0966
  576loPI   C3A 9209   2.764   5.354   9.151 -0.0663 -0.1072  0.0186
  576loPI   C4A 9210   2.834   5.414   8.735 -0.4041 -0.0664  0.0103
  576loPI   C5A 9211   2.984   5.338   8.219 -0.2015  0.1339  0.1269
  576loPI   C6A 9212   3.200   5.322   7.980 -0.2689  0.1432 -0.0619
  576loPI   C1B 9213   2.288   5.514   9.709 -0.1986 -0.1498 -0.3688
  576loPI   C2B 9214   2.199   5.475   9.221 -0.2497 -0.0277 -0.0167
  576loPI   C3B 9215   2.368   5.560   8.808  0.0847 -0.3441 -0.2530
  576loPI   C4B 9216   2.387   5.553   8.270  0.0413 -0.0548 -0.0654
  577loPI    C1 9217   2.340   5.674  10.635  0.1545  0.1955 -0.2228
  577loPI    C2 9218   2.208   5.836  10.976  0.1018 -0.1412 -0.0793
  577loPI    C3 9219   2.220   5.438  10.935  0.3771 -0.1071 -0.3662
  577loPI   PO4 9220   2.478   5.829  10.506 -0.4013 -0.0027 -0.0391
  577loPI   GL1 9221   2.709   6.060  10.172  0.0757 -0.2672  0.1005
  577loPI   GL2 9222   2.422   6.247  10.178  0.2330 -0.2212 -0.1809
  577loPI   C1A 9223   2.593   5.876   9.820 -0.0860  0.0765 -0.1738
  577loPI   C2A 9224   2.560   5.751   9.324 -0.3221 -0.1126 -0.1302
  577loPI   C3A 9225   2.719   5.917   8.899 -0.0155  0.2115 -0.0276
  577loPI   C4A 9226   2.760   5.925   8.444  0.0379 -0.0709  0.0297
  577loPI   C5A 9227   2.515   5.981   8.043  0.1319 -0.2886  0.2104
  577loPI   C6A 9228   2.520   5.913   7.576 -0.0287  0.1942  0.0250
  577loPI   C1B 9229   2.541   6.437   9.747 -0.2018 -0.1292 -0.0793
  577loPI   C2B 9230   2.590   6.410   9.236 -0.0132  0.0640 -0.1093
  577loPI   C3B 9231   2.664   6.479   8.744  0.0240  0.1481  0.0564
  577loPI   C4B 9232   2.679   6.431   8.235  0.2161 -0.1640  0.2130
  578loPI    C1 9233  13.942   1.026  10.565  0.0288  0.0815  0.2297
  578loPI    C2 9234  13.814   1.404  10.537  0.0908  0.0981  0.1675
  578loPI    C3 9235  14.009   1.283  10.864  0.0719  0.1204  0.1870
  578loPI   PO4 9236  13.773   0.881  10.566  0.1403  0.1087  0.2156
  578loPI   GL1 9237  13.681   0.705  10.259  0.0729  0.4904 -0.0837
  578loPI   GL2 9238  13.379   0.560  10.058  0.0583  0.0038 -0.0603
  578loPI   C1A 9239  13.839   0.564   9.827 -0.1207 -0.1737  0.0410
  578loPI   C2A 9240  13.865   0.558   9.436 -0.1931 -0.1397 -0.0362
  578loPI   C3A 9241  13.915   0.596   9.017  0.1030 -0.1984 -0.0741
  578loPI   C4A 9242  13.914   0.516   8.629 -0.1587  0.1405  0.0350
  578loPI   C5A 9243  13.931   0.552   8.182 -0.0913 -0.1831  0.2931
  578loPI   C6A 9244  14.155   0.706   7.767  0.2980 -0.1116  0.1533
  578loPI   C1B 9245  13.377   0.828   9.750  0.0229  0.3449 -0.1563
  578loPI   C2B 9246  13.318   0.801   9.296 -0.3192  0.1287  0.2249
  578loPI   C3B 9247  13.436   0.712   8.763 -0.0458  0.1560 -0.0967
  578loPI   C4B 9248  13.463   0.684   8.378 -0.1696 -0.1941  0.1795
  579loPI    C1 9249  11.689  16.845  10.807 -0.0852  0.1382  0.0163
  579loPI    C2 9250  11.435  17.100  10.983 -0.2481 -0.1216  0.1640
  579loPI    C3 9251  11.393  16.706  11.038 -0.0161 -0.1839 -0.0846
  579loPI   PO4 9252  11.706  16.871  10.538 -0.1721  0.2118  0.0469
  579loPI   GL1 9253  11.756  17.040  10.123  0.1854  0.3419 -0.1258
  579loPI   GL2 9254  11.412  17.037  10.163 -0.5885  0.3899  0.0938
  579loPI   C1A 9255  11.917  17.087   9.660  0.1350  0.1057  0.0939
  579loPI   C2A 9256  11.766  17.162   9.257  0.2185 -0.1359 -0.0629
  579loPI   C3A 9257  11.805  17.080   8.804 -0.0080  0.0586 -0.0800
  579loPI   C4A 9258  11.831  17.032   8.388 -0.0916 -0.1101 -0.1747
  579loPI   C5A 9259  11.649  17.147   8.043 -0.0486 -0.0448  0.0009
  579loPI   C6A 9260  11.306  17.092   7.724  0.2678  0.1327  0.0834
  579loPI   C1B 9261  11.256  17.320   9.886 -0.0587 -0.2231 -0.0611
  579loPI   C2B 9262  11.312  17.291   9.379 -0.0011 -0.1614  0.2795
  579loPI   C3B 9263  11.392  17.257   8.936  0.0616 -0.2494  0.1470
  579loPI   C4B 9264  11.317  17.200   8.522  0.4498  0.2708  0.1332
  580loPI    C1 9265  11.439   7.267  10.648  0.0828 -0.0481 -0.0235
  580loPI    C2 9266  11.702   7.295  10.949 -0.1477 -0.3143  0.2085
  580loPI    C3 9267  11.332   7.443  10.991 -0.1096 -0.1439 -0.0330
  580loPI   PO4 9268  11.585   7.422  10.455  0.0553  0.3627  0.0219
  580loPI   GL1 9269  11.698   7.600  10.184 -0.0533  0.0303  0.1221
  580loPI   GL2 9270  11.585   7.927  10.005  0.0976  0.1773  0.2032
  580loPI   C1A 9271  11.710   7.450   9.754  0.1369 -0.3004 -0.0349
  580loPI   C2A 9272  11.723   7.489   9.304  0.1400 -0.0783 -0.0834
  580loPI   C3A 9273  11.676   7.558   8.946  0.3117  0.0139 -0.2058
  580loPI   C4A 9274  11.727   7.537   8.535 -0.0393  0.1080  0.1104
  580loPI   C5A 9275  11.774   7.521   8.053  0.0718  0.0750 -0.0738
  580loPI   C6A 9276  11.750   7.165   7.816 -0.0291 -0.0231  0.1939
  580loPI   C1B 9277  11.597   7.972   9.608 -0.1838 -0.6198 -0.3171
  580loPI   C2B 9278  11.630   8.079   9.164 -0.1294  0.0714  0.0237
  580loPI   C3B 9279  11.635   8.016   8.722  0.0268  0.1075 -0.4238
  580loPI   C4B 9280  11.622   8.059   8.226  0.2171 -0.1537 -0.0726
  581loPI    C1 9281   0.845  18.058  10.699 -0.0500  0.0190 -0.1097
  581loPI    C2 9282   0.576  17.885  10.940  0.1764 -0.0445  0.1006
  581loPI    C3 9283   0.708  18.254  11.021  0.2268 -0.0523  0.0542
  581loPI   PO4 9284   0.803  17.971  10.482  0.0145 -0.1287 -0.0439
  581loPI   GL1 9285   1.131  17.779  10.276 -0.2358  0.0753  0.0726
  581loPI   GL2 9286   1.142  17.478  10.282 -0.1021 -0.2576  0.1126
  581loPI   C1A 9287   1.230  17.745   9.851  0.0717  0.1284 -0.0508
  581loPI   C2A 9288   1.106  17.737   9.488  0.1412  0.2269  0.0567
  581loPI   C3A 9289   1.116  17.820   9.003 -0.2327  0.0792 -0.4589
  581loPI   C4A 9290   1.158  17.850   8.596  0.0761 -0.3226 -0.0358
  581loPI   C5A 9291   1.383  17.679   8.233  0.6592  0.2699  0.1370
  581loPI   C6A 9292   1.352  17.745   7.766 -0.0472 -0.1756 -0.1801
  581loPI   C1B 9293   1.287  17.249   9.961  0.0167  0.0156 -0.0645
  581loPI   C2B 9294   1.314  17.258   9.579  0.1426 -0.0165  0.1861
  581loPI   C3B 9295   1.193  17.315   9.194  0.1589 -0.0216  0.0873
  581loPI   C4B 9296   1.178  17.377   8.779  0.4188 -0.0262  0.2477
  582loPI    C1 9297   1.887  12.329  11.432 -0.1262 -0.1624 -0.1619
  582loPI    C2 9298   1.648  12.308  11.752 -0.1129 -0.1571 -0.1516
  582loPI    C3 9299   2.008  12.482  11.781 -0.1449 -0.0840 -0.1894
  582loPI   PO4 9300   1.659  12.398  11.246  0.2249 -0.0907 -0.1042
  582loPI   GL1 9301   1.748  12.308  10.788  0.2746 -0.1219 -0.1527
  582loPI   GL2 9302   1.473  12.386  10.747 -0.0256  0.0089  0.2943
  582loPI   C1A 9303   1.850  12.266  10.328 -0.3189 -0.2062 -0.0696
  582loPI   C2A 9304   1.885  12.294   9.926  0.1229 -0.0632 -0.1552
  582loPI   C3A 9305   1.750  12.269   9.535 -0.0385  0.0558  0.1407
  582loPI   C4A 9306   1.834  12.239   9.017  0.4114  0.0177 -0.1419
  582loPI   C5A 9307   1.659  12.197   8.552 -0.2097  0.2220  0.1606
  582loPI   C6A 9308   1.387  11.839   8.424 -0.1812  0.0981 -0.0445
  582loPI   C1B 9309   1.382  12.421  10.286  0.0841 -0.4219 -0.0429
  582loPI   C2B 9310   1.402  12.495   9.836  0.1774 -0.2736  0.2090
  582loPI   C3B 9311   1.354  12.513   9.384  0.1877 -0.1746 -0.0957
  582loPI   C4B 9312   1.233  12.375   8.922  0.1550 -0.0917  0.0452
  583loPI    C1 9313   3.528  11.616  11.123 -0.0390 -0.0072 -0.0175
  583loPI    C2 9314   3.740  11.885  11.331 -0.2108  0.0741  0.0539
  583loPI    C3 9315   3.494  11.633  11.521  0.0934 -0.2668  0.0075
  583loPI   PO4 9316   3.705  11.486  11.006 -0.2416  0.0474 -0.1007
  583loPI   GL1 9317   3.780  11.431  10.622 -0.3288  0.1666  0.1421
  583loPI   GL2 9318   3.457  11.222  10.532 -0.1272 -0.3877  0.2049
  583loPI   C1A 9319   3.819  11.598  10.171  0.0726  0.3013 -0.0957
  583loPI   C2A 9320   3.774  11.636   9.757  0.1459 -0.1848  0.1392
  583loPI   C3A 9321   3.740  11.680   9.246  0.3083 -0.1980  0.1073
  583loPI   C4A 9322   3.847  11.728   8.828  0.1775  0.2009 -0.0300
  583loPI   C5A 9323   3.549  11.682   8.552 -0.1817 -0.0232  0.2390
  583loPI   C6A 9324   3.376  11.769   8.224  0.1272  0.0242 -0.1297
  583loPI   C1B 9325   3.388  11.342  10.120 -0.2758 -0.0328  0.1764
  583loPI   C2B 9326   3.390  11.303   9.719  0.4059  0.0658  0.0878
  583loPI   C3B 9327   3.389  11.380   9.289 -0.1988  0.0164  0.0611
  583loPI   C4B 9328   3.334  11.309   8.945  0.0575 -0.0177 -0.0574
  584loPI    C1 9329  15.889  14.082  11.327  0.0208  0.1432 -0.1474
  584loPI    C2 9330  15.809  13.955  10.956  0.2657 -0.0950 -0.1214
  584loPI    C3 9331  15.627  13.786  11.270 -0.2977  0.4197 -0.1524
  584loPI   PO4 9332  16.122  14.201  11.243 -0.5128 -0.0117  0.1161
  584loPI   GL1 9333  16.147  14.273  10.749 -0.0570  0.0082  0.2220
  584loPI   GL2 9334  16.412  14.275  10.558  0.0991 -0.0696  0.0275
  584loPI   C1A 9335  15.996  14.176  10.340 -0.1051 -0.2134 -0.1326
  584loPI   C2A 9336  16.147  14.212   9.983  0.1950 -0.0493  0.0770
  584loPI   C3A 9337  16.043  14.124   9.550  0.0404  0.2160  0.3264
  584loPI   C4A 9338  16.097  14.159   9.067 -0.0632  0.4785  0.1479
  584loPI   C5A 9339  16.114  14.122   8.582  0.1648  0.1735  0.0794
  584loPI   C6A 9340  16.256  13.654   8.509 -0.1116 -0.3240 -0.2552
  584loPI   C1B 9341  16.525  14.489  10.173 -0.2332  0.0201  0.1729
  584loPI   C2B 9342  16.469  14.526   9.820  0.0996  0.1710 -0.1485
  584loPI   C3B 9343  16.407  14.490   9.390  0.1879 -0.0167 -0.1154
  584loPI   C4B 9344  16.483  14.474   8.922 -0.1069 -0.0135  0.3165
  585loPI    C1 9345  12.623   6.579  10.545 -0.2664  0.2012  0.2165
  585loPI    C2 9346  12.853   6.264  10.631 -0.1531  0.1596 -0.2139
  585loPI    C3 9347  12.806   6.557  10.900  0.2599  0.0850 -0.0522
  585loPI   PO4 9348  12.468   6.444  10.431 -0.0685 -0.1487 -0.3103
  585loPI   GL1 9349  12.339   6.295  10.067 -0.1815 -0.2672 -0.1061
  585loPI   GL2 9350  12.022   6.176   9.976  0.2053 -0.1438  0.0906
  585loPI   C1A 9351  12.347   6.366   9.627 -0.0528  0.0042  0.0905
  585loPI   C2A 9352  12.266   6.334   9.135  0.3659 -0.0476 -0.2568
  585loPI   C3A 9353  12.360   6.363   8.698 -0.1698  0.1386 -0.0768
  585loPI   C4A 9354  12.338   6.287   8.255 -0.0743 -0.1901 -0.0071
  585loPI   C5A 9355  12.413   6.074   7.933  0.0942 -0.2752 -0.2181
  585loPI   C6A 9356  12.307   5.690   7.698 -0.0498  0.0644  0.0530
  585loPI   C1B 9357  11.827   6.464   9.699  0.0192 -0.0076 -0.0150
  585loPI   C2B 9358  11.761   6.465   9.201 -0.0086  0.0544 -0.2529
  585loPI   C3B 9359  11.885   6.474   8.707  0.0750  0.2825 -0.1877
  585loPI   C4B 9360  11.839   6.424   8.356 -0.0638 -0.2113 -0.2015
  586loPI    C1 9361  12.284   0.957  10.513  0.0131 -0.0074 -0.1298
  586loPI    C2 9362  12.269   0.740  10.848  0.1816  0.2561  0.0527
  586loPI    C3 9363  11.936   0.909  10.704  0.0484 -0.1184 -0.0927
  586loPI   PO4 9364  12.453   1.087  10.470  0.1136  0.0928 -0.1242
  586loPI   GL1 9365  12.721   0.918  10.176  0.0729  0.0641  0.3152
  586loPI   GL2 9366  12.990   1.013  10.086  0.0042 -0.0868  0.0231
  586loPI   C1A 9367  12.402   0.677   9.891  0.0768  0.2944 -0.0469
  586loPI   C2A 9368  12.453   0.670   9.469  0.1506  0.2002 -0.1950
  586loPI   C3A 9369  12.513   0.592   8.992 -0.3301  0.1150  0.2618
  586loPI   C4A 9370  12.518   0.521   8.538 -0.0181 -0.0262 -0.3801
  586loPI   C5A 9371  12.386   0.760   8.072 -0.1288 -0.1891  0.0740
  586loPI   C6A 9372  12.692   0.604   7.791 -0.0180 -0.1005  0.3085
  586loPI   C1B 9373  12.915   1.013   9.589 -0.4992 -0.1670 -0.1834
  586loPI   C2B 9374  12.921   0.960   9.075 -0.2311 -0.0511  0.0413
  586loPI   C3B 9375  12.974   0.918   8.715 -0.0863  0.1355 -0.0790
  586loPI   C4B 9376  13.034   0.872   8.258  0.0823 -0.2301  0.1230
  587loPI    C1 9377  17.380   8.449  11.060  0.0315  0.1143 -0.1158
  587loPI    C2 9378  17.042   8.662  11.037 -0.0509  0.0105  0.1089
  587loPI    C3 9379  17.177   8.538  11.393 -0.1087 -0.4798 -0.0318
  587loPI   PO4 9380  17.453   8.523  10.855  0.2280  0.4674  0.0234
  587loPI   GL1 9381  17.420   8.632  10.404 -0.0461 -0.1139 -0.0690
  587loPI   GL2 9382  17.501   8.921  10.229 -0.1199 -0.0720 -0.0100
  587loPI   C1A 9383  17.579   8.386  10.095  0.3207 -0.0614  0.0683
  587loPI   C2A 9384  17.682   8.370   9.624 -0.0579 -0.3302  0.2317
  587loPI   C3A 9385  17.638   8.448   9.302  0.1833 -0.2057  0.0041
  587loPI   C4A 9386  17.581   8.443   8.903 -0.1731  0.1098  0.2733
  587loPI   C5A 9387  17.585   8.484   8.510  0.2898  0.2778  0.2186
  587loPI   C6A 9388  17.744   8.378   8.156 -0.4139  0.0355  0.3346
  587loPI   C1B 9389  17.522   8.950   9.709 -0.1000  0.1644  0.1191
  587loPI   C2B 9390  17.596   8.951   9.307  0.1001 -0.1135 -0.0980
  587loPI   C3B 9391  17.585   8.939   8.950 -0.0728 -0.0111  0.2307
  587loPI   C4B 9392  17.452   8.934   8.454 -0.2942  0.2044  0.1808
  588loPI    C1 9393   8.569   8.577  10.182  0.1230 -0.0099 -0.0228
  588loPI    C2 9394   8.502   8.244  10.393  0.0328 -0.0615 -0.1321
  588loPI    C3 9395   8.673   8.560  10.568 -0.0325 -0.1070  0.0155
  588loPI   PO4 9396   8.612   8.464   9.974 -0.0211  0.0610  0.2001
  588loPI   GL1 9397   8.462   8.317   9.571 -0.0303 -0.1158 -0.0962
  588loPI   GL2 9398   8.219   8.534   9.611  0.1449 -0.2380 -0.4944
  588loPI   C1A 9399   8.646   8.456   9.296 -0.2155 -0.3546 -0.2282
  588loPI   C2A 9400   8.706   8.717   9.055 -0.0336  0.0337 -0.5139
  588loPI   C3A 9401   8.823   8.726   8.695 -0.0206 -0.0871 -0.0469
  588loPI   C4A 9402   8.771   8.710   8.301 -0.0835 -0.1818 -0.0419
  588loPI   C5A 9403   8.382   8.874   8.076  0.1294 -0.3110 -0.1401
  588loPI   C6A 9404   8.376   9.024   7.653 -0.2892  0.1869 -0.0584
  588loPI   C1B 9405   8.193   8.488   9.184 -0.0163 -0.0056  0.2093
  588loPI   C2B 9406   8.402   8.419   8.738 -0.0816  0.0180 -0.0695
  588loPI   C3B 9407   8.360   8.292   8.399 -0.2873  0.1207  0.1453
  588loPI   C4B 9408   8.227   8.421   7.914 -0.2425  0.0475  0.2976
  589loPI    C1 9409  14.342   5.953  10.779  0.1678 -0.0054  0.1030
  589loPI    C2 9410  14.104   5.770  11.043  0.2362  0.0470  0.2018
  589loPI    C3 9411  14.221   6.147  11.108  0.2874  0.0457  0.1175
  589loPI   PO4 9412  14.265   5.900  10.568 -0.1415 -0.0358 -0.0882
  589loPI   GL1 9413  14.259   5.974  10.208  0.2267 -0.1139 -0.1006
  589loPI   GL2 9414  14.060   5.716  10.123  0.1480 -0.0095  0.0840
  589loPI   C1A 9415  14.298   6.131   9.743 -0.2444  0.0791  0.0391
  589loPI   C2A 9416  14.202   6.238   9.235  0.3871  0.0741  0.0624
  589loPI   C3A 9417  14.201   6.145   8.810 -0.1825 -0.2157  0.0115
  589loPI   C4A 9418  14.258   6.083   8.272  0.2986  0.1549 -0.0370
  589loPI   C5A 9419  14.279   6.090   7.828 -0.0275 -0.0324 -0.2042
  589loPI   C6A 9420  14.216   6.252   7.452 -0.1933  0.3704 -0.1071
  589loPI   C1B 9421  13.903   5.783   9.649 -0.0413 -0.0076 -0.2762
  589loPI   C2B 9422  13.828   5.874   9.242  0.2025  0.1590  0.1175
  589loPI   C3B 9423  13.773   5.917   8.806  0.1525 -0.0188  0.0845
  589loPI   C4B 9424  13.837   5.818   8.469 -0.0494  0.2427 -0.2425
  590loPI    C1 9425  14.883  15.267  10.987  0.2608 -0.0187  0.2204
  590loPI    C2 9426  14.707  15.624  10.952 -0.0596 -0.1915  0.0169
  590loPI    C3 9427  14.706  15.434  11.304  0.1842  0.0406  0.1467
  590loPI   PO4 9428  14.969  15.234  10.722 -0.0530  0.2730  0.0982
  590loPI   GL1 9429  15.199  15.204  10.376  0.0516  0.1321 -0.0401
  590loPI   GL2 9430  14.878  15.212  10.200 -0.1278  0.3137 -0.2754
  590loPI   C1A 9431  15.355  15.375  10.029  0.1421 -0.0693  0.1649
  590loPI   C2A 9432  15.313  15.237   9.618  0.2414  0.0891 -0.1670
  590loPI   C3A 9433  15.323  15.219   9.128 -0.2929 -0.3268 -0.0991
  590loPI   C4A 9434  15.434  15.235   8.751 -0.0343  0.2684 -0.0007
  590loPI   C5A 9435  15.472  15.077   8.339  0.0386 -0.0076 -0.0898
  590loPI   C6A 9436  15.539  14.726   8.344 -0.2105 -0.1793  0.0852
  590loPI   C1B 9437  14.964  14.981   9.919 -0.2962 -0.0933 -0.1860
  590loPI   C2B 9438  14.956  14.922   9.448  0.0576  0.0308 -0.1701
  590loPI   C3B 9439  14.943  14.915   8.934  0.0494  0.0095 -0.1537
  590loPI   C4B 9440  15.082  14.848   8.528 -0.4800 -0.0411 -0.1437
  591loPI    C1 9441   0.847   2.390  10.707  0.2326  0.0770 -0.1094
  591loPI    C2 9442   1.128   2.596  10.903  0.3736 -0.0363 -0.1907
  591loPI    C3 9443   1.163   2.200  10.861  0.1377 -0.0692 -0.0930
  591loPI   PO4 9444   0.817   2.515  10.461  0.3336  0.1857 -0.0744
  591loPI   GL1 9445   0.709   2.459  10.050  0.1316  0.1034 -0.2059
  591loPI   GL2 9446   0.535   2.218   9.977  0.2095 -0.1337  0.0514
  591loPI   C1A 9447   0.939   2.390   9.721  0.0255 -0.1319  0.2037
  591loPI   C2A 9448   1.015   2.501   9.214 -0.1590 -0.0344 -0.3669
  591loPI   C3A 9449   0.995   2.526   8.738  0.2481  0.2331 -0.2066
  591loPI   C4A 9450   0.822   2.312   8.355 -0.3734  0.1691  0.1085
  591loPI   C5A 9451   0.898   2.018   7.926 -0.6311  0.0137 -0.1720
  591loPI   C6A 9452   1.197   1.764   7.727 -0.0500  0.1013 -0.2394
  591loPI   C1B 9453   0.582   2.054   9.670 -0.1568  0.1751  0.2927
  591loPI   C2B 9454   0.630   2.150   9.230 -0.0020  0.0476 -0.0357
  591loPI   C3B 9455   0.497   2.262   8.757 -0.1045 -0.2537 -0.3095
  591loPI   C4B 9456   0.083   2.407   8.650  0.4054 -0.1614  0.0710
  592loPI    C1 9457   3.302   9.017  11.355 -0.0233 -0.0058 -0.2268
  592loPI    C2 9458   3.141   9.108  11.710  0.0865  0.0424 -0.1892
  592loPI    C3 9459   3.264   8.735  11.636 -0.1572 -0.0249 -0.2633
  592loPI   PO4 9460   3.212   9.283  11.249 -0.0502  0.0910 -0.0099
  592loPI   GL1 9461   2.984   9.333  10.890  0.0096  0.2695 -0.0113
  592loPI   GL2 9462   3.149   9.500  10.695  0.0498  0.1924 -0.0043
  592loPI   C1A 9463   2.832   9.117  10.575 -0.0108  0.1031  0.1677
  592loPI   C2A 9464   2.925   9.080  10.057  0.0291 -0.0859  0.0197
  592loPI   C3A 9465   2.868   9.150   9.543  0.0308  0.0537 -0.1010
  592loPI   C4A 9466   2.927   9.118   9.137 -0.1998 -0.0713 -0.1607
  592loPI   C5A 9467   2.926   9.094   8.744 -0.2829  0.1516  0.3261
  592loPI   C6A 9468   2.942   9.287   8.336 -0.0690  0.1446 -0.3130
  592loPI   C1B 9469   3.284   9.399  10.355  0.1362  0.2978 -0.0300
  592loPI   C2B 9470   3.299   9.412   9.892 -0.0030 -0.3556 -0.0396
  592loPI   C3B 9471   3.264   9.479   9.467  0.1010 -0.1252 -0.1094
  592loPI   C4B 9472   3.233   9.510   9.085  0.0387 -0.1530  0.2632
  593loPI    C1 9473   0.730  12.756  11.515 -0.1874 -0.1446  0.1171
  593loPI    C2 9474   0.627  13.138  11.571 -0.1721 -0.1169 -0.0386
  593loPI    C3 9475   0.585  12.874  11.868  0.1967  0.0881  0.2039
  593loPI   PO4 9476   0.795  12.792  11.193  0.2296 -0.1879 -0.1015
  593loPI   GL1 9477   0.660  12.820  10.775 -0.1838  0.0820 -0.2028
  593loPI   GL2 9478   0.435  12.853  10.531  0.1100 -0.1344  0.0979
  593loPI   C1A 9479   0.832  13.089  10.383  0.3844  0.1728  0.0310
  593loPI   C2A 9480   0.845  13.172   9.924 -0.0036  0.2068 -0.0926
  593loPI   C3A 9481   0.762  13.127   9.526 -0.1495  0.2781  0.0612
  593loPI   C4A 9482   0.841  13.176   8.998  0.3035  0.2718 -0.2122
  593loPI   C5A 9483   0.875  13.466   8.624 -0.1064  0.0439 -0.2465
  593loPI   C6A 9484   0.952  13.578   8.163  0.2659 -0.0332  0.0808
  593loPI   C1B 9485   0.444  12.949  10.084 -0.0848  0.0497 -0.1112
  593loPI   C2B 9486   0.389  12.773   9.651 -0.1427 -0.2116 -0.0016
  593loPI   C3B 9487   0.411  12.736   9.249  0.1857  0.1229 -0.0259
  593loPI   C4B 9488   0.342  12.857   8.730 -0.1812 -0.0155 -0.3655
  594loPI    C1 9489  16.816   0.113  10.370 -0.0506 -0.1756 -0.0022
  594loPI    C2 9490  16.827  -0.051  10.735 -0.3318 -0.0277  0.0763
  594loPI    C3 9491  16.756   0.340  10.694 -0.3932 -0.0604 -0.1424
  594loPI   PO4 9492  17.024   0.044  10.218 -0.1195 -0.3147 -0.1981
  594loPI   GL1 9493  16.991   0.041   9.778  0.0097 -0.0600  0.0244
  594loPI   GL2 9494  17.115   0.300   9.704  0.4508 -0.1270 -0.0917
  594loPI   C1A 9495  16.894   0.134   9.309  0.1558  0.0017  0.0022
  594loPI   C2A 9496  16.889   0.038   8.949 -0.0824 -0.1535 -0.0937
  594loPI   C3A 9497  16.992  -0.107   8.674 -0.0566  0.0168  0.0807
  594loPI   C4A 9498  16.756  -0.205   8.250  0.0872  0.0733 -0.0552
  594loPI   C5A 9499  16.685  -0.475   7.972 -0.0785  0.1597 -0.0430
  594loPI   C6A 9500  16.743  -0.393   7.527  0.0090  0.0837  0.3268
  594loPI   C1B 9501  17.360   0.262   9.396  0.1506  0.0967  0.1511
  594loPI   C2B 9502  17.357   0.210   8.974  0.1687 -0.0486  0.1331
  594loPI   C3B 9503  17.264   0.258   8.511 -0.0309  0.0338  0.2578
  594loPI   C4B 9504  17.173  -0.029   8.080 -0.2277 -0.1560 -0.3522
  595loPI    C1 9505   4.269  15.064  10.971  0.1145 -0.0885  0.1159
  595loPI    C2 9506   4.305  15.403  11.179  0.0379  0.0842 -0.1478
  595loPI    C3 9507   4.482  15.069  11.309  0.0110  0.1942  0.1792
  595loPI   PO4 9508   4.357  15.146  10.705  0.0056 -0.1940  0.1852
  595loPI   GL1 9509   4.293  15.306  10.299  0.3138 -0.0990 -0.3523
  595loPI   GL2 9510   4.023  15.036  10.360  0.0952  0.0269  0.2533
  595loPI   C1A 9511   4.432  15.260   9.827  0.0410  0.0592 -0.0465
  595loPI   C2A 9512   4.381  15.296   9.372  0.2305  0.1884 -0.0105
  595loPI   C3A 9513   4.387  15.260   8.922  0.4370 -0.0129  0.2153
  595loPI   C4A 9514   4.564  15.035   8.540 -0.0229 -0.1907  0.0233
  595loPI   C5A 9515   4.907  14.764   8.250  0.0162 -0.0240  0.2330
  595loPI   C6A 9516   5.301  14.745   8.261 -0.2098 -0.1299 -0.0810
  595loPI   C1B 9517   3.997  14.971  10.002  0.2907  0.0462 -0.1932
  595loPI   C2B 9518   4.025  14.963   9.591  0.3124 -0.2468  0.3164
  595loPI   C3B 9519   4.065  14.892   9.130  0.1846 -0.1654 -0.1495
  595loPI   C4B 9520   4.005  14.941   8.669 -0.1636  0.0414  0.0053
  596loPI    C1 9521   9.933  12.674  11.204 -0.1037 -0.0289 -0.1180
  596loPI    C2 9522   9.657  12.461  11.008 -0.3758  0.0174  0.2054
  596loPI    C3 9523   9.810  12.322  11.350  0.0999 -0.0660 -0.0321
  596loPI   PO4 9524  10.025  12.793  11.001 -0.0261  0.3255  0.1666
  596loPI   GL1 9525  10.097  12.635  10.535 -0.2668 -0.1922  0.2949
  596loPI   GL2 9526  10.007  12.931  10.324 -0.2616 -0.1114 -0.0105
  596loPI   C1A 9527  10.031  12.480  10.068 -0.2913  0.1435  0.0519
  596loPI   C2A 9528   9.997  12.485   9.596  0.2340 -0.1809 -0.2283
  596loPI   C3A 9529   9.884  12.504   9.157  0.2240 -0.0351  0.0955
  596loPI   C4A 9530   9.975  12.485   8.657 -0.0863 -0.1179  0.0813
  596loPI   C5A 9531  10.001  12.719   8.283 -0.1913 -0.0392  0.0557
  596loPI   C6A 9532   9.736  13.074   8.108 -0.3227  0.1228 -0.4960
  596loPI   C1B 9533   9.883  12.939   9.895 -0.1166 -0.1416  0.0825
  596loPI   C2B 9534   9.861  12.946   9.459 -0.1416  0.0275 -0.2738
  596loPI   C3B 9535   9.810  12.996   9.020 -0.0934 -0.1517 -0.4483
  596loPI   C4B 9536   9.801  13.010   8.613 -0.0246  0.2188 -0.1242
  597loPI    C1 9537  14.943  14.678  11.070 -0.0606 -0.0705 -0.0693
  597loPI    C2 9538  14.984  14.552  11.448 -0.0617  0.1269 -0.0021
  597loPI    C3 9539  14.992  14.944  11.366 -0.2173  0.0926 -0.1881
  597loPI   PO4 9540  15.228  14.476  10.911  0.0995 -0.3220  0.1526
  597loPI   GL1 9541  15.477  14.207  10.596 -0.4687 -0.1650 -0.1747
  597loPI   GL2 9542  15.125  14.181  10.532 -0.2568  0.1586  0.1283
  597loPI   C1A 9543  15.566  14.426  10.273  0.1108  0.3181 -0.2623
  597loPI   C2A 9544  15.582  14.345   9.835 -0.0220  0.0084 -0.2201
  597loPI   C3A 9545  15.589  14.317   9.389  0.4467  0.1566  0.0259
  597loPI   C4A 9546  15.586  14.269   9.045 -0.1659  0.4915  0.1056
  597loPI   C5A 9547  15.502  14.289   8.628  0.0783 -0.1689 -0.0235
  597loPI   C6A 9548  15.397  14.050   8.302  0.2330  0.0988 -0.1773
  597loPI   C1B 9549  15.053  14.056  10.020 -0.0615  0.2078 -0.1645
  597loPI   C2B 9550  15.165  13.988   9.662  0.1547 -0.3678  0.2035
  597loPI   C3B 9551  15.187  13.995   9.285  0.0126 -0.2039 -0.1571
  597loPI   C4B 9552  15.128  13.903   8.915  0.1861 -0.2261  0.0396
  598loPI    C1 9553   3.250   5.789  10.999  0.0496 -0.0721 -0.0209
  598loPI    C2 9554   2.992   5.696  11.290  0.0159  0.0785 -0.0019
  598loPI    C3 9555   3.302   5.936  11.368  0.1150 -0.0348 -0.0450
  598loPI   PO4 9556   3.149   5.878  10.782  0.3574  0.1347  0.1985
  598loPI   GL1 9557   3.124   6.053  10.438  0.1162  0.1586 -0.2867
  598loPI   GL2 9558   3.184   6.234  10.274  0.0694 -0.1720 -0.0760
  598loPI   C1A 9559   3.154   5.785  10.026  0.0415  0.0026 -0.0599
  598loPI   C2A 9560   3.106   5.760   9.664 -0.0482  0.1602 -0.2501
  598loPI   C3A 9561   3.132   5.728   9.236 -0.1838  0.0296 -0.2172
  598loPI   C4A 9562   3.234   5.729   8.702  0.1794  0.0408 -0.2097
  598loPI   C5A 9563   3.242   5.826   8.266  0.0271  0.0207 -0.0428
  598loPI   C6A 9564   3.031   6.180   8.093  0.0936 -0.0671  0.0222
  598loPI   C1B 9565   3.073   6.213   9.851 -0.0363 -0.0166 -0.0258
  598loPI   C2B 9566   3.042   6.188   9.414 -0.1914  0.0975  0.0996
  598loPI   C3B 9567   3.100   6.252   9.032  0.0436  0.2459 -0.2427
  598loPI   C4B 9568   3.147   6.216   8.637 -0.1429  0.5362  0.1751
  599loPI    C1 9569   0.393   3.058  10.473  0.0158  0.1487  0.0545
  599loPI    C2 9570   0.742   3.006  10.661  0.0735  0.0002 -0.0910
  599loPI    C3 9571   0.439   3.187  10.849  0.0828 -0.2744  0.1981
  599loPI   PO4 9572   0.542   2.949  10.217 -0.0585  0.3725  0.1594
  599loPI   GL1 9573   0.436   2.877   9.832 -0.3616 -0.1383 -0.3193
  599loPI   GL2 9574   0.246   2.650   9.943 -0.2202 -0.0197  0.2089
  599loPI   C1A 9575   0.684   2.970   9.459 -0.2817  0.2042 -0.0107
  599loPI   C2A 9576   0.869   3.093   9.115 -0.3180 -0.0187 -0.0370
  599loPI   C3A 9577   0.907   3.138   8.668  0.0773  0.1058 -0.2128
  599loPI   C4A 9578   0.931   2.858   8.337  0.1736 -0.3042  0.2669
  599loPI   C5A 9579   0.813   2.760   7.965 -0.1017 -0.0587  0.2931
  599loPI   C6A 9580   0.772   2.918   7.511  0.0912 -0.2672  0.0059
  599loPI   C1B 9581   0.402   2.486   9.497 -0.2016 -0.0083  0.2664
  599loPI   C2B 9582   0.486   2.609   9.099 -0.1282 -0.4248 -0.1303
  599loPI   C3B 9583   0.548   2.755   8.662  0.0849  0.2122  0.2395
  599loPI   C4B 9584   0.380   2.565   8.321 -0.0707 -0.0320  0.1002
  600loPI    C1 9585   5.632   3.305  11.218 -0.1585  0.2601  0.2366
  600loPI    C2 9586   5.683   2.982  11.449  0.4105  0.2254  0.0772
  600loPI    C3 9587   5.824   3.337  11.567  0.0952  0.3484  0.0920
  600loPI   PO4 9588   5.795   3.248  10.969  0.1626  0.1580  0.1944
  600loPI   GL1 9589   5.870   3.301  10.515 -0.4416  0.1996  0.1643
  600loPI   GL2 9590   5.585   3.211  10.453  0.4222 -0.5730  0.3155
  600loPI   C1A 9591   5.835   3.255  10.018  0.0500 -0.0745  0.2679
  600loPI   C2A 9592   5.937   3.288   9.606 -0.2446  0.0076  0.2284
  600loPI   C3A 9593   5.965   3.309   9.239  0.0461 -0.1509  0.2193
  600loPI   C4A 9594   5.928   3.355   8.757 -0.0725  0.0601 -0.0959
  600loPI   C5A 9595   5.775   3.225   8.337  0.1465  0.0451 -0.5158
  600loPI   C6A 9596   5.680   2.771   8.184 -0.1016 -0.0323  0.1511
  600loPI   C1B 9597   5.426   2.981  10.100 -0.0888  0.0866 -0.4134
  600loPI   C2B 9598   5.436   2.933   9.690 -0.0521  0.0813  0.0652
  600loPI   C3B 9599   5.629   2.982   9.229  0.0837  0.1322  0.3370
  600loPI   C4B 9600   5.568   2.996   8.856  0.1054  0.0341 -0.1647
  601loPI    C1 9601   9.579  13.470  10.762 -0.0165  0.1623 -0.1150
  601loPI    C2 9602   9.721  13.204  11.026 -0.0113  0.1255 -0.1549
  601loPI    C3 9603   9.851  13.582  11.032  0.1379  0.0765 -0.2334
  601loPI   PO4 9604   9.647  13.312  10.503 -0.0503  0.0931  0.1115
  601loPI   GL1 9605   9.474  13.457  10.160 -0.2100  0.1274  0.1338
  601loPI   GL2 9606   9.306  13.776  10.079  0.1561  0.3750 -0.1517
  601loPI   C1A 9607   9.770  13.472   9.796  0.1058  0.4866 -0.1824
  601loPI   C2A 9608   9.711  13.451   9.375  0.1709  0.0501 -0.0425
  601loPI   C3A 9609   9.676  13.486   8.876  0.0150  0.3069  0.1490
  601loPI   C4A 9610   9.648  13.417   8.432  0.0829 -0.1232 -0.1592
  601loPI   C5A 9611   9.498  13.539   8.060 -0.0265 -0.2042 -0.0792
  601loPI   C6A 9612   9.303  13.932   8.021 -0.1865  0.0378 -0.1817
  601loPI   C1B 9613   9.212  13.672   9.657  0.0576 -0.6001  0.2641
  601loPI   C2B 9614   9.192  13.608   9.255  0.0009 -0.0671  0.0988
  601loPI   C3B 9615   9.159  13.685   8.834  0.0420  0.3578  0.2979
  601loPI   C4B 9616   9.165  13.686   8.452 -0.3005  0.1976 -0.3148
  602loPI    C1 9617   2.453  10.536  11.380  0.1111 -0.1758  0.2686
  602loPI    C2 9618   2.093  10.613  11.537  0.0106 -0.3243  0.1134
  602loPI    C3 9619   2.274  10.264  11.612  0.1932 -0.1879  0.3181
  602loPI   PO4 9620   2.399  10.578  11.093 -0.0740  0.1215 -0.0821
  602loPI   GL1 9621   2.293  10.830  10.630 -0.0299  0.3448  0.1596
  602loPI   GL2 9622   2.120  11.196  10.700  0.1286 -0.0158  0.0689
  602loPI   C1A 9623   2.162  10.725  10.197  0.1258  0.0479  0.1778
  602loPI   C2A 9624   2.099  10.763   9.669  0.0235 -0.0172  0.3104
  602loPI   C3A 9625   1.985  10.773   9.271 -0.1690 -0.0816  0.0383
  602loPI   C4A 9626   2.084  10.654   8.867  0.0081  0.1993 -0.1646
  602loPI   C5A 9627   2.367  10.530   8.431 -0.2351  0.2931  0.1794
  602loPI   C6A 9628   2.342  10.476   7.987 -0.2735 -0.0735  0.2688
  602loPI   C1B 9629   2.107  11.288  10.315  0.0317 -0.0299 -0.0822
  602loPI   C2B 9630   2.014  11.294   9.896 -0.0938  0.1218  0.2285
  602loPI   C3B 9631   1.991  11.298   9.366 -0.1673 -0.3151 -0.0472
  602loPI   C4B 9632   2.076  11.279   8.892  0.3634 -0.0626 -0.0673
  603loPI    C1 9633   0.392   3.529  10.139  0.2277  0.0072 -0.1911
  603loPI    C2 9634   0.583   3.855  10.271 -0.1941  0.0764  0.2808
  603loPI    C3 9635   0.523   3.546  10.517 -0.1732 -0.1874 -0.0383
  603loPI   PO4 9636   0.441   3.389   9.980  0.0211  0.0076 -0.2505
  603loPI   GL1 9637   0.241   3.369   9.670 -0.4135  0.1494  0.3275
  603loPI   GL2 9638   0.004   3.566   9.838 -0.2150 -0.0068  0.0411
  603loPI   C1A 9639   0.572   3.431   9.359 -0.2041 -0.6204 -0.0314
  603loPI   C2A 9640   0.765   3.571   8.963  0.1430 -0.1370  0.1404
  603loPI   C3A 9641   0.902   3.678   8.545 -0.0228 -0.0713 -0.1408
  603loPI   C4A 9642   0.977   3.778   8.159 -0.1026 -0.3115 -0.2752
  603loPI   C5A 9643   0.924   3.997   7.752 -0.1618 -0.0505  0.2860
  603loPI   C6A 9644   1.155   4.005   7.367 -0.2139 -0.0412 -0.2768
  603loPI   C1B 9645  -0.158   3.332   9.355 -0.0898 -0.2981  0.1056
  603loPI   C2B 9646  -0.201   3.347   8.921 -0.0896 -0.1076 -0.2756
  603loPI   C3B 9647  -0.074   3.404   8.540 -0.3519 -0.2454 -0.1976
  603loPI   C4B 9648  -0.023   3.527   8.191  0.2032 -0.3131 -0.1918
  604loPI    C1 9649  14.692  11.464  11.049 -0.0553  0.1263  0.0436
  604loPI    C2 9650  14.384  11.294  11.239 -0.0553  0.1439  0.0595
  604loPI    C3 9651  14.728  11.356  11.432 -0.1103  0.3174  0.1039
  604loPI   PO4 9652  14.587  11.388  10.810 -0.1723 -0.2319 -0.3423
  604loPI   GL1 9653  14.411  11.223  10.423 -0.1400 -0.1668  0.0630
  604loPI   GL2 9654  14.177  11.456  10.257 -0.0599 -0.3536  0.1044
  604loPI   C1A 9655  14.565  11.164  10.041  0.0861 -0.2990  0.1326
  604loPI   C2A 9656  14.666  11.228   9.551 -0.1719  0.3344  0.0234
  604loPI   C3A 9657  14.760  11.262   9.149  0.0028  0.0661 -0.0130
  604loPI   C4A 9658  14.714  11.219   8.753 -0.0824  0.1173 -0.1587
  604loPI   C5A 9659  14.605  11.343   8.315 -0.0595  0.3702  0.1077
  604loPI   C6A 9660  14.400  11.480   8.019  0.2790  0.0705  0.0457
  604loPI   C1B 9661  14.175  11.425   9.776  0.0001 -0.3347  0.1695
  604loPI   C2B 9662  14.259  11.414   9.353  0.1894  0.1730  0.0489
  604loPI   C3B 9663  14.252  11.392   8.929  0.0152 -0.2053 -0.0219
  604loPI   C4B 9664  14.210  11.297   8.643 -0.0295 -0.0677  0.1104
  605loPI    C1 9665  17.432   6.633  11.122  0.1802  0.0989 -0.1471
  605loPI    C2 9666  17.237   6.847  11.399  0.2203  0.0536 -0.0837
  605loPI    C3 9667  17.220   6.447  11.406 -0.0968  0.0566 -0.3769
  605loPI   PO4 9668  17.446   6.761  10.863  0.1381  0.0475 -0.1112
  605loPI   GL1 9669  17.592   6.731  10.511 -0.0921  0.1039  0.4420
  605loPI   GL2 9670  17.864   6.815  10.325 -0.1691 -0.1010  0.2709
  605loPI   C1A 9671  17.580   6.474  10.116 -0.2216 -0.1086 -0.0888
  605loPI   C2A 9672  17.443   6.480   9.684  0.2732 -0.1113 -0.0725
  605loPI   C3A 9673  17.464   6.534   9.235 -0.0758  0.4715 -0.0233
  605loPI   C4A 9674  17.430   6.548   8.744  0.0175 -0.1311  0.1291
  605loPI   C5A 9675  17.487   6.502   8.234 -0.0604 -0.0789 -0.0456
  605loPI   C6A 9676  17.414   6.586   7.711  0.2699  0.0550  0.1500
  605loPI   C1B 9677  17.820   6.772   9.826  0.0895  0.0299 -0.1021
  605loPI   C2B 9678  17.893   6.818   9.396  0.1031  0.0985  0.1648
  605loPI   C3B 9679  17.805   6.929   8.888 -0.1832 -0.0661 -0.0240
  605loPI   C4B 9680  17.728   6.870   8.443  0.0579 -0.2686  0.2523
  606loPI    C1 9681   8.666  14.682  11.072  0.1928  0.3303 -0.0401
  606loPI    C2 9682   8.957  14.609  11.337 -0.0036 -0.0121  0.0881
  606loPI    C3 9683   8.588  14.697  11.464 -0.1079 -0.2131 -0.0689
  606loPI   PO4 9684   8.837  14.641  10.839  0.1768  0.1290  0.1918
  606loPI   GL1 9685   9.009  14.814  10.526 -0.1431  0.4543  0.1088
  606loPI   GL2 9686   9.207  15.071  10.463 -0.1425  0.1169  0.1575
  606loPI   C1A 9687   8.978  14.724  10.143 -0.0218 -0.2147  0.0182
  606loPI   C2A 9688   9.052  14.768   9.784  0.0481  0.1305  0.0611
  606loPI   C3A 9689   9.069  14.740   9.391  0.0776  0.0980  0.0059
  606loPI   C4A 9690   8.974  14.622   8.982  0.3011  0.0572 -0.4249
  606loPI   C5A 9691   9.009  14.655   8.571 -0.1078  0.2922  0.1425
  606loPI   C6A 9692   9.133  14.511   8.153 -0.2156 -0.1632 -0.1091
  606loPI   C1B 9693   9.370  15.066  10.109  0.1665 -0.3228 -0.2993
  606loPI   C2B 9694   9.433  15.104   9.682 -0.0094  0.2552  0.1606
  606loPI   C3B 9695   9.451  15.059   9.187 -0.3623  0.1420  0.0911
  606loPI   C4B 9696   9.303  15.038   8.824 -0.2460  0.1309 -0.0604
  607loPI    C1 9697   3.962  15.610  11.436  0.3187 -0.2084 -0.0098
  607loPI    C2 9698   4.075  15.825  11.754 -0.1875  0.0651 -0.0041
  607loPI    C3 9699   4.249  15.473  11.678  0.2093  0.1768  0.3501
  607loPI   PO4 9700   3.955  15.766  11.153  0.0149 -0.4190 -0.2153
  607loPI   GL1 9701   3.832  15.771  10.643 -0.0389 -0.2173 -0.0215
  607loPI   GL2 9702   3.828  15.475  10.451  0.1529  0.1659  0.0327
  607loPI   C1A 9703   3.792  15.910  10.278 -0.2681  0.0376 -0.1948
  607loPI   C2A 9704   3.838  15.988   9.866  0.1627 -0.0021 -0.1495
  607loPI   C3A 9705   3.802  16.096   9.417 -0.2699 -0.1118 -0.4506
  607loPI   C4A 9706   3.850  16.011   8.935 -0.1589  0.1351  0.0002
  607loPI   C5A 9707   3.657  15.918   8.487 -0.2028 -0.2203 -0.0496
  607loPI   C6A 9708   3.725  15.971   7.974  0.2269  0.2060 -0.0146
  607loPI   C1B 9709   3.841  15.439  10.018  0.0227 -0.0336  0.1822
  607loPI   C2B 9710   3.960  15.565   9.525  0.2826 -0.3016  0.2062
  607loPI   C3B 9711   3.958  15.349   9.124 -0.3178  0.2030  0.1041
  607loPI   C4B 9712   3.968  15.458   8.687 -0.1713 -0.1744  0.1578
  608loPI    C1 9713   0.784   4.829  10.500  0.0557  0.3841  0.1552
  608loPI    C2 9714   0.504   4.807  10.785  0.0124  0.0917  0.0939
  608loPI    C3 9715   0.748   4.497  10.721 -0.0723  0.0974 -0.2828
  608loPI   PO4 9716   0.753   4.884  10.261  0.1690 -0.2117  0.1488
  608loPI   GL1 9717   0.596   4.995   9.954  0.2323  0.2176  0.0815
  608loPI   GL2 9718   0.400   4.701   9.912 -0.3668  0.0296 -0.4321
  608loPI   C1A 9719   0.437   5.103   9.557 -0.1672  0.0164  0.2623
  608loPI   C2A 9720   0.394   5.265   9.079 -0.3306  0.2179  0.0315
  608loPI   C3A 9721   0.548   5.183   8.708  0.2525 -0.1166 -0.1546
  608loPI   C4A 9722   0.521   5.179   8.271  0.0164 -0.2364 -0.1421
  608loPI   C5A 9723   0.427   5.451   7.887  0.0524  0.2232  0.3640
  608loPI   C6A 9724   0.620   5.656   7.632 -0.0478  0.0088 -0.2575
  608loPI   C1B 9725   0.606   4.641   9.404  0.1783  0.0634 -0.0661
  608loPI   C2B 9726   0.561   4.574   8.946  0.1891 -0.1734  0.2047
  608loPI   C3B 9727   0.601   4.641   8.608 -0.0672  0.3328 -0.0721
  608loPI   C4B 9728   0.429   4.666   8.253 -0.1122  0.0070 -0.2400
  609loPI    C1 9729   9.470   8.435  10.538  0.1797  0.0731  0.0208
  609loPI    C2 9730   9.175   8.661  10.688  0.2020  0.1174 -0.0017
  609loPI    C3 9731   9.349   8.381  10.915  0.1335  0.0819  0.0072
  609loPI   PO4 9732   9.592   8.592  10.385 -0.1452 -0.0202 -0.1003
  609loPI   GL1 9733   9.715   8.626  10.019 -0.1077  0.1098 -0.4156
  609loPI   GL2 9734   9.485   8.380   9.894  0.0368 -0.3369  0.2934
  609loPI   C1A 9735   9.566   8.844   9.597  0.4847 -0.1532  0.0029
  609loPI   C2A 9736   9.591   8.841   9.219 -0.1231  0.2318  0.1112
  609loPI   C3A 9737   9.676   8.748   8.907 -0.0620 -0.0827  0.1054
  609loPI   C4A 9738   9.685   8.800   8.515  0.0365 -0.2210 -0.0912
  609loPI   C5A 9739   9.717   8.784   8.099  0.0754  0.0622 -0.1089
  609loPI   C6A 9740   9.636   8.777   7.712  0.1327 -0.0290  0.1673
  609loPI   C1B 9741   9.690   8.385   9.507 -0.3164  0.1888 -0.0760
  609loPI   C2B 9742   9.852   8.284   9.067 -0.0129 -0.1489 -0.2625
  609loPI   C3B 9743   9.764   8.332   8.659 -0.1537 -0.1106 -0.0000
  609loPI   C4B 9744   9.788   8.322   8.244 -0.0717  0.0249 -0.2424
  610loPI    C1 9745  10.452   4.555  10.406 -0.2569  0.0022  0.0885
  610loPI    C2 9746  10.470   4.159  10.455 -0.2449  0.0268  0.2877
  610loPI    C3 9747  10.439   4.399  10.774 -0.1145  0.1933  0.1762
  610loPI   PO4 9748  10.340   4.546  10.108 -0.4004  0.0492 -0.0372
  610loPI   GL1 9749  10.353   4.828   9.791 -0.0441 -0.2043 -0.1557
  610loPI   GL2 9750  10.432   5.094   9.748  0.0461 -0.0369 -0.1413
  610loPI   C1A 9751  10.313   4.735   9.411 -0.0149 -0.3490 -0.1432
  610loPI   C2A 9752  10.349   4.659   8.931 -0.1630  0.0167  0.1643
  610loPI   C3A 9753  10.373   4.694   8.512 -0.0063 -0.1736  0.1707
  610loPI   C4A 9754  10.579   4.577   8.040  0.0866 -0.0045  0.0072
  610loPI   C5A 9755  10.801   4.513   7.654 -0.2295 -0.1165  0.2036
  610loPI   C6A 9756  10.811   4.131   7.338 -0.0990  0.1098  0.0516
  610loPI   C1B 9757  10.637   5.115   9.342 -0.2074  0.1895  0.0106
  610loPI   C2B 9758  10.625   5.099   8.859  0.1985  0.0834  0.0667
  610loPI   C3B 9759  10.759   4.967   8.379  0.0900  0.1061  0.1331
  610loPI   C4B 9760  10.889   4.933   7.957  0.0431 -0.1394  0.0360
  611loPI    C1 9761   9.509   0.331  11.291 -0.2508 -0.0613 -0.1118
  611loPI    C2 9762   9.655   0.592  11.557 -0.0977 -0.2160 -0.0423
  611loPI    C3 9763   9.260   0.554  11.511 -0.1219 -0.0229 -0.0034
  611loPI   PO4 9764   9.667   0.480  10.962 -0.1913 -0.1223  0.3083
  611loPI   GL1 9765   9.592   0.638  10.567  0.0341 -0.2411  0.3388
  611loPI   GL2 9766   9.753   0.309  10.493 -0.1567 -0.0319  0.0849
  611loPI   C1A 9767   9.621   0.748  10.220 -0.1928  0.1165  0.1605
  611loPI   C2A 9768   9.710   0.705   9.772  0.4331  0.0172  0.0111
  611loPI   C3A 9769   9.764   0.700   9.289  0.1563  0.1417 -0.0826
  611loPI   C4A 9770   9.756   0.640   8.852 -0.0422 -0.0587 -0.1973
  611loPI   C5A 9771   9.868   0.561   8.408 -0.4590 -0.0416  0.4235
  611loPI   C6A 9772   9.689   0.899   8.152  0.1277 -0.1873  0.0050
  611loPI   C1B 9773   9.781   0.308  10.052 -0.1356 -0.1629  0.0949
  611loPI   C2B 9774   9.795   0.221   9.559  0.0258  0.3167 -0.0977
  611loPI   C3B 9775   9.718   0.197   9.171  0.1943 -0.0104 -0.1353
  611loPI   C4B 9776   9.791   0.048   8.795 -0.5555 -0.3354 -0.4785
  612loPI    C1 9777  15.992   6.167  10.751 -0.1732  0.1910 -0.2078
  612loPI    C2 9778  16.039   6.208  11.146 -0.1286  0.0230 -0.1948
  612loPI    C3 9779  15.673   6.221  10.986 -0.1379  0.1979 -0.1612
  612loPI   PO4 9780  16.068   6.279  10.639  0.1159  0.3540 -0.1004
  612loPI   GL1 9781  16.021   6.312  10.255 -0.2129 -0.0973  0.0073
  612loPI   GL2 9782  16.102   6.459  10.037  0.0188 -0.1155  0.1619
  612loPI   C1A 9783  16.204   6.000   9.855 -0.0431 -0.2476  0.0536
  612loPI   C2A 9784  16.189   6.093   9.494  0.0752  0.1975  0.1112
  612loPI   C3A 9785  16.099   6.065   9.122 -0.1128  0.0155  0.1689
  612loPI   C4A 9786  16.138   5.999   8.651  0.0783 -0.0074 -0.3317
  612loPI   C5A 9787  16.291   5.855   8.329 -0.5255  0.0113 -0.0025
  612loPI   C6A 9788  16.566   5.539   8.162 -0.1111 -0.2573  0.1533
  612loPI   C1B 9789  16.115   6.534   9.605  0.2928  0.1204  0.0402
  612loPI   C2B 9790  16.056   6.566   9.087 -0.0562  0.0959  0.0983
  612loPI   C3B 9791  16.023   6.460   8.587  0.2825  0.1134  0.3163
  612loPI   C4B 9792  16.053   6.525   8.079  0.1605  0.0051  0.3932
  613loPI    C1 9793   9.847   1.929  11.139 -0.0979  0.3406 -0.0028
  613loPI    C2 9794   9.468   1.802  11.131  0.0225 -0.0448  0.1533
  613loPI    C3 9795   9.675   1.789  11.472  0.1983  0.1035  0.0542
  613loPI   PO4 9796   9.996   1.775  10.941  0.2589  0.2368  0.0477
  613loPI   GL1 9797  10.075   1.696  10.491 -0.1826 -0.0945 -0.1775
  613loPI   GL2 9798  10.265   1.454  10.389  0.2267  0.0414 -0.1402
  613loPI   C1A 9799   9.936   1.655  10.048 -0.0487  0.0246 -0.2217
  613loPI   C2A 9800   9.964   1.576   9.552  0.3533 -0.1117 -0.0760
  613loPI   C3A 9801  10.017   1.566   9.144  0.0034  0.1807 -0.2593
  613loPI   C4A 9802  10.051   1.457   8.690  0.0954 -0.2590 -0.0601
  613loPI   C5A 9803  10.064   1.351   8.183 -0.1888 -0.4259 -0.0263
  613loPI   C6A 9804  10.143   1.479   7.710 -0.0204 -0.4150  0.1210
  613loPI   C1B 9805  10.123   1.223   9.997  0.2391  0.1905  0.2875
  613loPI   C2B 9806  10.067   1.082   9.542 -0.4238  0.2607 -0.3083
  613loPI   C3B 9807  10.125   1.008   9.072 -0.5753  0.1026  0.0390
  613loPI   C4B 9808  10.197   0.916   8.642 -0.0487 -0.2600 -0.2879
  614loPI    C1 9809  13.299  11.548  10.877  0.1370 -0.1166 -0.0396
  614loPI    C2 9810  13.217  11.192  10.714 -0.1087  0.0970 -0.3950
  614loPI    C3 9811  12.992  11.331  11.013  0.1429 -0.1522 -0.0826
  614loPI   PO4 9812  13.334  11.721  10.673  0.2614 -0.2346 -0.0148
  614loPI   GL1 9813  13.317  11.728  10.165  0.0052 -0.0298 -0.0331
  614loPI   GL2 9814  13.257  11.383  10.225 -0.3349 -0.1081 -0.0195
  614loPI   C1A 9815  13.152  11.687   9.704  0.1853 -0.1370 -0.1321
  614loPI   C2A 9816  13.215  11.839   9.255  0.1220  0.0283 -0.0205
  614loPI   C3A 9817  13.350  11.818   8.773 -0.0605  0.2613  0.3644
  614loPI   C4A 9818  13.375  11.847   8.323  0.1885 -0.1376 -0.2992
  614loPI   C5A 9819  13.460  11.514   7.987  0.2557 -0.1698 -0.0999
  614loPI   C6A 9820  13.103  11.445   7.739  0.1797 -0.2667  0.2438
  614loPI   C1B 9821  13.226  11.184   9.880 -0.2539 -0.2762  0.1127
  614loPI   C2B 9822  13.347  11.171   9.339 -0.0368 -0.0370 -0.2618
  614loPI   C3B 9823  13.312  11.333   9.012  0.0465 -0.3201 -0.1239
  614loPI   C4B 9824  13.453  11.363   8.513  0.0604  0.0784  0.0090
  615loPI    C1 9825   9.317  12.832  11.023 -0.2785  0.0865 -0.1512
  615loPI    C2 9826   9.047  12.907  11.308 -0.2269  0.1126 -0.1090
  615loPI    C3 9827   9.437  12.949  11.386 -0.1950 -0.2167 -0.0779
  615loPI   PO4 9828   9.176  12.938  10.806 -0.2353 -0.3332  0.1216
  615loPI   GL1 9829   9.211  12.998  10.371 -0.0770  0.1443 -0.0416
  615loPI   GL2 9830   8.974  12.780  10.341 -0.0722  0.0369 -0.0607
  615loPI   C1A 9831   9.359  13.012   9.991  0.3063 -0.2144 -0.1873
  615loPI   C2A 9832   9.369  13.088   9.648  0.1744 -0.1069 -0.3987
  615loPI   C3A 9833   9.283  13.146   9.252  0.0782 -0.0392 -0.4005
  615loPI   C4A 9834   9.320  13.127   8.830 -0.2381 -0.6186 -0.0346
  615loPI   C5A 9835   9.267  13.113   8.368  0.0331  0.1568 -0.0474
  615loPI   C6A 9836   9.171  12.757   8.052 -0.0285 -0.0599  0.1357
  615loPI   C1B 9837   8.891  12.859   9.931 -0.0819  0.0010  0.1598
  615loPI   C2B 9838   8.911  12.757   9.456  0.2985 -0.1346  0.1208
  615loPI   C3B 9839   8.932  12.751   9.101  0.0369 -0.2133  0.0735
  615loPI   C4B 9840   8.968  12.725   8.617  0.0853 -0.0621  0.0007
  616loPI    C1 9841   5.796   7.164  10.751  0.0004  0.0434  0.2785
  616loPI    C2 9842   5.691   6.801  10.620 -0.1873  0.1364  0.1673
  616loPI    C3 9843   5.640   6.897  11.005 -0.0238  0.0047  0.2228
  616loPI   PO4 9844   5.691   7.389  10.560 -0.1301 -0.1030  0.1633
  616loPI   GL1 9845   5.477   7.363  10.254 -0.1257  0.0516  0.0964
  616loPI   GL2 9846   5.502   7.760  10.108  0.1006  0.2757 -0.3679
  616loPI   C1A 9847   5.506   7.307   9.864 -0.1060  0.2192 -0.2511
  616loPI   C2A 9848   5.499   7.255   9.465 -0.2653  0.0701 -0.0097
  616loPI   C3A 9849   5.618   7.301   8.931  0.3377  0.0503  0.3893
  616loPI   C4A 9850   5.522   7.188   8.504 -0.0682  0.0817 -0.0516
  616loPI   C5A 9851   5.600   7.192   8.118 -0.0364  0.1101 -0.0577
  616loPI   C6A 9852   5.914   7.067   7.744  0.1619 -0.0111 -0.1622
  616loPI   C1B 9853   5.455   7.800   9.711  0.1737 -0.1467  0.2188
  616loPI   C2B 9854   5.495   7.673   9.282  0.2417 -0.3420 -0.0837
  616loPI   C3B 9855   5.563   7.776   8.834  0.1866  0.0382  0.1995
  616loPI   C4B 9856   5.550   7.734   8.453  0.5098 -0.0346  0.2181
  617loPI    C1 9857   9.760   9.141  10.442 -0.0728  0.1833  0.0559
  617loPI    C2 9858  10.001   9.015  10.736  0.0878  0.2824 -0.0319
  617loPI    C3 9859   9.606   8.956  10.761  0.1232  0.0948  0.1007
  617loPI   PO4 9860   9.887   9.060  10.285 -0.0668 -0.1254  0.1966
  617loPI   GL1 9861   9.892   9.183   9.842 -0.1375 -0.0702  0.3446
  617loPI   GL2 9862  10.200   9.236   9.890  0.0903 -0.2110  0.0543
  617loPI   C1A 9863   9.978   9.108   9.423 -0.0748 -0.1475  0.1997
  617loPI   C2A 9864  10.055   9.093   8.977 -0.0024 -0.1046  0.3568
  617loPI   C3A 9865  10.085   9.104   8.575  0.1788  0.0183  0.0493
  617loPI   C4A 9866  10.100   9.102   8.111  0.2456  0.1366 -0.0822
  617loPI   C5A 9867  10.490   9.091   7.825  0.1255  0.2051 -0.2697
  617loPI   C6A 9868  10.783   9.069   7.620  0.0944 -0.1093  0.2681
  617loPI   C1B 9869  10.404   9.358   9.651  0.1962  0.4876 -0.0286
  617loPI   C2B 9870  10.524   9.496   9.310  0.0197 -0.1555  0.0944
  617loPI   C3B 9871  10.576   9.457   8.886 -0.3516 -0.1329  0.0910
  617loPI   C4B 9872  10.518   9.378   8.563  0.0954 -0.0289  0.0138
  618loPI    C1 9873   3.714  12.825  11.462  0.0442 -0.1487  0.1350
  618loPI    C2 9874   3.860  12.561  11.724  0.0418 -0.1500  0.1350
  618loPI    C3 9875   3.761  12.929  11.845 -0.0576 -0.1837  0.1574
  618loPI   PO4 9876   3.710  12.791  11.220 -0.0117 -0.0895  0.2438
  618loPI   GL1 9877   3.552  12.801  10.814 -0.1811  0.1383  0.0525
  618loPI   GL2 9878   3.630  12.578  10.667  0.2829  0.0610 -0.1293
  618loPI   C1A 9879   3.963  12.970  10.442  0.0761  0.0930  0.1212
  618loPI   C2A 9880   3.939  13.042   9.911 -0.3040  0.0481 -0.0860
  618loPI   C3A 9881   3.912  12.980   9.448  0.2343 -0.1254  0.0425
  618loPI   C4A 9882   3.927  12.970   9.030  0.0972  0.2245 -0.1516
  618loPI   C5A 9883   3.871  12.957   8.649  0.2128 -0.1796  0.0797
  618loPI   C6A 9884   3.463  12.734   8.396 -0.0717  0.2568 -0.0217
  618loPI   C1B 9885   3.620  12.713  10.229  0.0257 -0.1345 -0.1338
  618loPI   C2B 9886   3.548  12.757   9.750 -0.2140  0.1510  0.3075
  618loPI   C3B 9887   3.583  12.655   9.344 -0.1762  0.2570  0.0531
  618loPI   C4B 9888   3.515  12.678   8.897 -0.0929  0.2720 -0.2517
  619loPI    C1 9889   2.371   1.916  10.930 -0.0381  0.2203  0.0513
  619loPI    C2 9890   1.973   1.930  10.965 -0.0426  0.0125  0.0971
  619loPI    C3 9891   2.191   1.736  11.238  0.0674 -0.1126 -0.0777
  619loPI   PO4 9892   2.475   1.858  10.701  0.1603  0.0075 -0.3884
  619loPI   GL1 9893   2.556   1.732  10.254  0.2120 -0.0491 -0.0787
  619loPI   GL2 9894   2.434   2.012  10.184  0.4112  0.0300  0.1863
  619loPI   C1A 9895   2.552   1.477   9.839 -0.1166  0.3075 -0.0710
  619loPI   C2A 9896   2.597   1.538   9.384 -0.0962 -0.0625 -0.2119
  619loPI   C3A 9897   2.526   1.588   9.028 -0.0361 -0.0816  0.0825
  619loPI   C4A 9898   2.572   1.515   8.629 -0.0848 -0.2437  0.0207
  619loPI   C5A 9899   2.595   1.514   8.192 -0.3359 -0.0331 -0.2247
  619loPI   C6A 9900   2.504   1.872   7.916 -0.1692 -0.0132  0.3590
  619loPI   C1B 9901   2.491   1.926   9.686 -0.0132  0.2060  0.0369
  619loPI   C2B 9902   2.604   2.094   9.397 -0.2317 -0.0306 -0.0663
  619loPI   C3B 9903   2.454   2.067   9.017 -0.1174 -0.2624  0.0376
  619loPI   C4B 9904   2.479   2.262   8.608  0.2531 -0.1053 -0.0882
  620loPI    C1 9905  15.461  16.888  10.880  0.1769 -0.1172 -0.1924
  620loPI    C2 9906  15.751  16.746  11.116 -0.0534  0.0868  0.2243
  620loPI    C3 9907  15.651  17.133  11.132 -0.2314  0.0544 -0.0432
  620loPI   PO4 9908  15.447  16.817  10.663 -0.1262  0.1222 -0.0089
  620loPI   GL1 9909  15.187  16.724  10.270 -0.1755 -0.2174  0.1088
  620loPI   GL2 9910  15.281  16.473  10.160  0.1668  0.0858  0.0857
  620loPI   C1A 9911  14.993  16.762   9.864 -0.2417 -0.0395 -0.1068
  620loPI   C2A 9912  15.059  16.826   9.404  0.2000 -0.3209 -0.1433
  620loPI   C3A 9913  14.981  16.769   9.022  0.1014  0.0557  0.2233
  620loPI   C4A 9914  15.058  16.585   8.571 -0.0942 -0.5463 -0.0656
  620loPI   C5A 9915  15.443  16.542   8.296  0.0887  0.1291 -0.0454
  620loPI   C6A 9916  15.841  16.678   8.309  0.2502  0.2057 -0.2106
  620loPI   C1B 9917  15.051  16.310   9.811 -0.3769  0.1712  0.0560
  620loPI   C2B 9918  15.092  16.309   9.335 -0.0529  0.2592  0.1794
  620loPI   C3B 9919  15.150  16.256   8.937  0.0577 -0.2241  0.0068
  620loPI   C4B 9920  15.201  16.080   8.556 -0.0546  0.0750  0.0989
  621loPI    C1 9921  12.861  12.693  10.790 -0.0347  0.0401 -0.1061
  621loPI    C2 9922  13.179  12.525  10.616 -0.1387 -0.0590 -0.2024
  621loPI    C3 9923  13.125  12.490  11.011 -0.0709 -0.1074 -0.1971
  621loPI   PO4 9924  12.817  12.889  10.668 -0.1565  0.0540  0.2721
  621loPI   GL1 9925  12.577  12.931  10.309  0.0161 -0.1207  0.3077
  621loPI   GL2 9926  12.341  12.723  10.210 -0.1387  0.0597 -0.0232
  621loPI   C1A 9927  12.676  12.997   9.884 -0.0086 -0.4195 -0.1926
  621loPI   C2A 9928  12.642  12.988   9.495 -0.2169 -0.0858 -0.2414
  621loPI   C3A 9929  12.582  13.007   9.047 -0.4795  0.0836 -0.0295
  621loPI   C4A 9930  12.611  12.984   8.644 -0.1284 -0.2972 -0.0893
  621loPI   C5A 9931  12.529  12.978   8.210 -0.2019  0.1755 -0.1711
  621loPI   C6A 9932  12.803  12.692   7.937 -0.3656  0.3436 -0.0486
  621loPI   C1B 9933  12.217  12.755   9.826  0.1657  0.0760  0.1549
  621loPI   C2B 9934  12.205  12.746   9.375  0.2691  0.0301 -0.2521
  621loPI   C3B 9935  12.207  12.635   8.905 -0.0901 -0.2677 -0.0452
  621loPI   C4B 9936  12.191  12.641   8.465 -0.0517 -0.0064 -0.1513
  622loPI    C1 9937   5.238   5.480  10.885 -0.2319 -0.3117  0.0928
  622loPI    C2 9938   5.015   5.602  11.193 -0.2147 -0.0343 -0.0012
  622loPI    C3 9939   5.352   5.398  11.259  0.1320  0.5802  0.2032
  622loPI   PO4 9940   5.319   5.666  10.718  0.0943 -0.2369 -0.0224
  622loPI   GL1 9941   5.385   5.687  10.308 -0.0173 -0.0530 -0.1822
  622loPI   GL2 9942   5.503   5.878  10.179  0.0056  0.3032  0.0883
  622loPI   C1A 9943   5.109   5.506  10.041 -0.1850  0.1030  0.2300
  622loPI   C2A 9944   4.959   5.448   9.622 -0.0171 -0.3837  0.2000
  622loPI   C3A 9945   5.052   5.640   9.242  0.0250  0.2468  0.1655
  622loPI   C4A 9946   5.083   5.574   8.810  0.1690 -0.0315  0.1068
  622loPI   C5A 9947   5.040   5.557   8.349 -0.2538  0.0540 -0.0654
  622loPI   C6A 9948   4.721   5.168   8.134  0.2639 -0.1594  0.2380
  622loPI   C1B 9949   5.371   5.851   9.717 -0.0663 -0.1260  0.4253
  622loPI   C2B 9950   5.488   5.874   9.273  0.0577  0.0464 -0.2709
  622loPI   C3B 9951   5.474   5.899   8.818 -0.0962  0.0978 -0.1650
  622loPI   C4B 9952   5.471   5.829   8.516 -0.1151 -0.1277 -0.0670
  623loPI    C1 9953   3.701  14.240  11.278  0.0603 -0.1634 -0.1096
  623loPI    C2 9954   3.641  14.609  11.419  0.0724 -0.0698 -0.3452
  623loPI    C3 9955   3.687  14.303  11.673 -0.2118  0.0454 -0.1499
  623loPI   PO4 9956   3.859  14.279  11.000 -0.0703  0.0325  0.1762
  623loPI   GL1 9957   3.829  14.586  10.628  0.0956  0.0121  0.0732
  623loPI   GL2 9958   4.047  14.522  10.351 -0.0028  0.0042 -0.0118
  623loPI   C1A 9959   3.576  14.533  10.232  0.1438 -0.1741 -0.1361
  623loPI   C2A 9960   3.640  14.598   9.799 -0.1440 -0.2360 -0.4079
  623loPI   C3A 9961   3.615  14.495   9.363 -0.2516  0.1847 -0.0625
  623loPI   C4A 9962   3.683  14.509   9.000  0.1267 -0.0965 -0.0822
  623loPI   C5A 9963   3.458  14.661   8.671  0.0985 -0.1186 -0.0080
  623loPI   C6A 9964   3.330  14.519   8.305  0.1559 -0.1484  0.2357
  623loPI   C1B 9965   4.125  14.435   9.936  0.1790  0.3683 -0.0753
  623loPI   C2B 9966   4.112  14.462   9.515  0.1191  0.0970  0.4728
  623loPI   C3B 9967   4.151  14.387   9.148 -0.1470 -0.2659  0.1248
  623loPI   C4B 9968   4.043  14.348   8.710 -0.0995 -0.0568  0.2167
  624loPI    C1 9969   8.084   8.540  10.516 -0.2001  0.4210 -0.1237
  624loPI    C2 9970   8.285   8.753  10.788  0.0119 -0.2697  0.2869
  624loPI    C3 9971   7.927   8.600  10.880 -0.1191 -0.1337  0.0130
  624loPI   PO4 9972   8.112   8.660  10.251  0.1611 -0.3890 -0.2236
  624loPI   GL1 9973   7.881   8.868   9.867 -0.1013 -0.2033  0.2359
  624loPI   GL2 9974   7.753   8.602   9.956 -0.2024 -0.1071  0.1686
  624loPI   C1A 9975   8.076   8.931   9.448  0.0907  0.0294 -0.3244
  624loPI   C2A 9976   7.994   8.898   8.978 -0.1388  0.3267  0.0002
  624loPI   C3A 9977   8.096   8.857   8.567  0.1361  0.1735 -0.2356
  624loPI   C4A 9978   7.894   8.791   8.155  0.0301  0.0246 -0.0178
  624loPI   C5A 9979   7.526   8.682   7.910 -0.0729 -0.0261 -0.1181
  624loPI   C6A 9980   7.122   8.715   7.680 -0.0267 -0.1843  0.1511
  624loPI   C1B 9981   7.711   8.569   9.449 -0.0787 -0.1461  0.2864
  624loPI   C2B 9982   7.650   8.577   8.951 -0.2488 -0.0851 -0.0754
  624loPI   C3B 9983   7.706   8.435   8.512  0.2611  0.0833 -0.0389
  624loPI   C4B 9984   7.735   8.242   8.153 -0.0037  0.1410 -0.1482
  625loPI    C1 9985   3.684  17.885  11.100 -0.0747  0.1011 -0.1366
  625loPI    C2 9986   3.717  17.568  10.859  0.0405  0.0363 -0.0369
  625loPI    C3 9987   3.647  17.516  11.249 -0.5525  0.1496 -0.1183
  625loPI   PO4 9988   3.545  18.072  11.006 -0.2787 -0.0225 -0.3538
  625loPI   GL1 9989   3.549  18.009  10.572  0.0406 -0.0958  0.0029
  625loPI   GL2 9990   3.771  17.957  10.368 -0.2138 -0.0957  0.0903
  625loPI   C1A 9991   3.320  18.083  10.227  0.0123  0.0668  0.0946
  625loPI   C2A 9992   3.401  18.059   9.777  0.3568  0.3647 -0.2901
  625loPI   C3A 9993   3.408  18.015   9.338 -0.1160 -0.0936 -0.2197
  625loPI   C4A 9994   3.386  18.069   8.842 -0.1480 -0.4193 -0.5000
  625loPI   C5A 9995   3.372  18.120   8.407 -0.1672  0.2320 -0.4755
  625loPI   C6A 9996   3.485  18.428   8.068  0.1713  0.2225 -0.0320
  625loPI   C1B 9997   3.928  17.945   9.961  0.0144  0.0686  0.2439
  625loPI   C2B 9998   3.946  17.979   9.573  0.1290 -0.0941 -0.2099
  625loPI   C3B 9999   3.842  17.852   9.099 -0.2177  0.1405 -0.3761
  625loPI   C4B10000   3.914  17.825   8.672 -0.3340  0.0169 -0.0108
  626loPI    C110001  16.275  15.915  11.344  0.0404 -0.2828  0.0442
  626loPI    C210002  16.146  15.767  11.693 -0.1246 -0.1213  0.0531
  626loPI    C310003  16.254  16.151  11.666  0.1590 -0.2025 -0.0061
  626loPI   PO410004  16.427  15.687  11.239  0.1189 -0.1221  0.1667
  626loPI   GL110005  16.573  15.532  10.762  0.1622 -0.0207 -0.1231
  626loPI   GL210006  16.978  15.512  10.612 -0.0331 -0.3728 -0.1766
  626loPI   C1A10007  16.628  15.233  10.420 -0.2921 -0.3077 -0.3383
  626loPI   C2A10008  16.680  15.313   9.973 -0.1070  0.0306  0.0663
  626loPI   C3A10009  16.669  15.403   9.547 -0.0047  0.3412  0.2845
  626loPI   C4A10010  16.756  15.326   9.179  0.0686 -0.0241 -0.0513
  626loPI   C5A10011  16.720  15.308   8.670 -0.1528  0.0452 -0.0871
  626loPI   C6A10012  16.636  15.432   8.206 -0.0129  0.0767  0.1262
  626loPI   C1B10013  17.115  15.570  10.204 -0.0145 -0.2319  0.1723
  626loPI   C2B10014  17.105  15.617   9.717 -0.2801  0.1636  0.3209
  626loPI   C3B10015  17.047  15.698   9.336  0.1695 -0.2432  0.0583
  626loPI   C4B10016  17.096  15.686   8.910 -0.0581 -0.0676  0.0742
  627loPI    C110017   4.631   5.497  10.923  0.2202 -0.0625  0.1519
  627loPI    C210018   4.535   5.432  11.305  0.1981  0.1584  0.1854
  627loPI    C310019   4.562   5.806  11.167  0.1136  0.0782 -0.0532
  627loPI   PO410020   4.502   5.376  10.733  0.1374 -0.1272 -0.1393
  627loPI   GL110021   4.409   5.431  10.316  0.0299  0.0260  0.0323
  627loPI   GL210022   4.147   5.196  10.200 -0.0108  0.0678 -0.0097
  627loPI   C1A10023   4.576   5.692   9.946 -0.1906 -0.1280 -0.0531
  627loPI   C2A10024   4.515   5.718   9.522  0.1866 -0.1137  0.0328
  627loPI   C3A10025   4.549   5.752   9.086  0.1607 -0.0134  0.0845
  627loPI   C4A10026   4.582   5.742   8.624  0.1578 -0.1442 -0.2810
  627loPI   C5A10027   4.592   5.703   8.242  0.0249  0.2494  0.0971
  627loPI   C6A10028   4.476   5.452   7.868 -0.2044  0.1345  0.0820
  627loPI   C1B10029   4.119   5.400   9.756 -0.0905  0.1123 -0.1263
  627loPI   C2B10030   4.150   5.433   9.292  0.1353 -0.0507 -0.1561
  627loPI   C3B10031   4.252   5.415   8.843  0.1409  0.5885 -0.3853
  627loPI   C4B10032   4.129   5.333   8.388 -0.2388 -0.0380 -0.1254
  628loPI    C110033  16.102   4.078  10.687 -0.0878 -0.0871  0.0966
  628loPI    C210034  15.704   4.119  10.693 -0.0939 -0.0869 -0.1939
  628loPI    C310035  15.887   3.908  10.979 -0.2896  0.0151  0.0100
  628loPI   PO410036  16.167   4.038  10.418  0.1763 -0.2651 -0.2174
  628loPI   GL110037  16.131   4.155  10.077  0.4090  0.0927 -0.1599
  628loPI   GL210038  16.341   4.361   9.961 -0.2862 -0.2315 -0.2175
  628loPI   C1A10039  16.071   4.043   9.743  0.3624 -0.0408  0.2638
  628loPI   C2A10040  16.058   4.088   9.244  0.0704 -0.0505  0.1201
  628loPI   C3A10041  16.035   4.035   8.848 -0.5129  0.2613  0.1964
  628loPI   C4A10042  16.114   3.977   8.449  0.0130  0.2184 -0.2810
  628loPI   C5A10043  16.194   4.055   8.086  0.4458 -0.0372  0.0238
  628loPI   C6A10044  16.316   4.271   7.754  0.1344 -0.0938  0.0184
  628loPI   C1B10045  16.404   4.458   9.524 -0.0633 -0.0620 -0.2174
  628loPI   C2B10046  16.436   4.540   9.099 -0.3514  0.0316  0.0958
  628loPI   C3B10047  16.411   4.367   8.713  0.0033  0.2316  0.1332
  628loPI   C4B10048  16.472   4.456   8.333  0.1997  0.0489 -0.1661
  629loPI    C110049  10.938  12.730  10.776  0.0169  0.2687  0.0560
  629loPI    C210050  11.271  12.627  10.974 -0.0224  0.0170 -0.0052
  629loPI    C310051  11.052  12.938  11.098  0.0904  0.0177  0.1950
  629loPI   PO410052  11.009  12.644  10.496 -0.1063 -0.0497 -0.0041
  629loPI   GL110053  10.869  12.297  10.267  0.0636 -0.0941  0.0370
  629loPI   GL210054  10.747  12.002  10.302 -0.0597  0.0612  0.0498
  629loPI   C1A10055  10.814  12.563   9.880  0.1624 -0.2584  0.3155
  629loPI   C2A10056  10.849  12.690   9.491  0.0145 -0.0119  0.3320
  629loPI   C3A10057  10.810  12.749   8.991 -0.0120 -0.1673 -0.1030
  629loPI   C4A10058  10.856  12.647   8.429 -0.0235  0.0533  0.2626
  629loPI   C5A10059  10.901  12.569   8.076 -0.0049  0.2317 -0.0254
  629loPI   C6A10060  11.303  12.642   7.831 -0.0039 -0.3585 -0.1497
  629loPI   C1B10061  10.886  12.072   9.835 -0.1894  0.4276  0.2643
  629loPI   C2B10062  10.923  12.175   9.427  0.1897 -0.0115 -0.0366
  629loPI   C3B10063  10.948  12.220   9.004  0.1542  0.2355 -0.2175
  629loPI   C4B10064  11.011  12.224   8.633  0.3636 -0.0837  0.1442
  630loPI    C110065   0.917   1.815  10.697 -0.0273 -0.2037 -0.0825
  630loPI    C210066   0.572   2.002  10.618  0.0433 -0.1338 -0.2306
  630loPI    C310067   0.674   1.921  10.997 -0.0516  0.0060 -0.1744
  630loPI   PO410068   1.040   1.637  10.500 -0.0019  0.2264  0.3002
  630loPI   GL110069   1.189   1.640  10.129 -0.0222  0.1753  0.5503
  630loPI   GL210070   1.068   1.378   9.884 -0.0278  0.3319 -0.0708
  630loPI   C1A10071   1.062   1.902   9.719 -0.1481 -0.1497  0.1665
  630loPI   C2A10072   1.087   2.020   9.265 -0.1038  0.0885 -0.0723
  630loPI   C3A10073   1.171   2.011   8.802  0.1917  0.0166  0.1157
  630loPI   C4A10074   1.246   2.054   8.327  0.0976  0.0371  0.0365
  630loPI   C5A10075   1.251   2.517   8.143  0.1505  0.0346  0.0864
  630loPI   C6A10076   1.572   2.891   8.075 -0.1895  0.2977 -0.1479
  630loPI   C1B10077   1.156   1.475   9.414 -0.2220  0.0682  0.0543
  630loPI   C2B10078   1.175   1.557   9.014  0.0894 -0.0122 -0.0115
  630loPI   C3B10079   1.236   1.536   8.621 -0.3409 -0.3229  0.1430
  630loPI   C4B10080   1.430   1.457   8.160  0.0125 -0.1460  0.0250
  631loPI    C110081   6.641   0.023  11.090 -0.0737  0.1037  0.2537
  631loPI    C210082   6.954   0.270  11.123 -0.0537  0.0749  0.2816
  631loPI    C310083   6.891  -0.010  11.401 -0.0273 -0.0067  0.2054
  631loPI   PO410084   6.560   0.000  10.840 -0.1860  0.1386  0.0072
  631loPI   GL110085   6.770   0.012  10.578  0.1406 -0.1019  0.1471
  631loPI   GL210086   6.432   0.145  10.373 -0.1517  0.3684  0.1601
  631loPI   C1A10087   6.946   0.051  10.234  0.0873 -0.1673 -0.0939
  631loPI   C2A10088   7.028   0.083   9.781  0.1980  0.0969  0.0954
  631loPI   C3A10089   7.147   0.078   9.348  0.2129  0.3554  0.2637
  631loPI   C4A10090   7.104   0.088   8.813  0.5092  0.0599  0.2627
  631loPI   C5A10091   7.212   0.271   8.403  0.2117 -0.1435 -0.2104
  631loPI   C6A10092   7.523   0.411   8.135  0.0009 -0.0696  0.1377
  631loPI   C1B10093   6.552   0.270   9.949  0.2582  0.0051 -0.1526
  631loPI   C2B10094   6.544   0.199   9.498 -0.1635 -0.2267  0.0903
  631loPI   C3B10095   6.525   0.340   9.107 -0.0349  0.3777  0.2898
  631loPI   C4B10096   6.650   0.420   8.676  0.0546  0.1828  0.0562
  632loPI    C110097   0.328   8.689  11.093  0.2748 -0.0838  0.1599
  632loPI    C210098   0.063   8.643  11.389  0.0585 -0.1763 -0.0447
  632loPI    C310099   0.438   8.756  11.472 -0.0373 -0.0646  0.2496
  632loPI   PO410100   0.206   8.855  10.965 -0.5008  0.2676 -0.0364
  632loPI   GL110101   0.245   8.862  10.586 -0.0992  0.1936 -0.0621
  632loPI   GL210102   0.461   8.722  10.324  0.0376 -0.2608 -0.2135
  632loPI   C1A10103   0.125   9.022  10.184  0.0574 -0.2894  0.1002
  632loPI   C2A10104   0.175   9.018   9.785 -0.0901 -0.2210 -0.0164
  632loPI   C3A10105   0.159   9.149   9.299  0.1720  0.0788  0.0121
  632loPI   C4A10106   0.163   9.046   8.923 -0.0787 -0.2291  0.1352
  632loPI   C5A10107   0.161   9.089   8.474  0.2323  0.1483  0.1559
  632loPI   C6A10108   0.220   8.778   8.185  0.1387  0.0188 -0.4264
  632loPI   C1B10109   0.627   8.846   9.960  0.3161  0.1120  0.0868
  632loPI   C2B10110   0.542   8.908   9.485 -0.1949 -0.1621  0.0489
  632loPI   C3B10111   0.640   8.971   9.125 -0.1940 -0.1292 -0.0456
  632loPI   C4B10112   0.692   8.873   8.679 -0.0344 -0.1072 -0.0439
  633loPI    C110113   1.444   9.485  11.045 -0.1075  0.0141  0.0622
  633loPI    C210114   1.185   9.696  11.264  0.1113  0.2406  0.1076
  633loPI    C310115   1.432   9.437  11.442 -0.0784  0.0273  0.0647
  633loPI   PO410116   1.554   9.690  10.856  0.0477  0.0610 -0.3396
  633loPI   GL110117   1.789   9.628  10.515 -0.1168  0.3624  0.0382
  633loPI   GL210118   1.827  10.011  10.515 -0.0327  0.0447  0.0243
  633loPI   C1A10119   1.902   9.426  10.176 -0.0565  0.1046  0.4228
  633loPI   C2A10120   1.859   9.398   9.711  0.2191  0.0294 -0.4164
  633loPI   C3A10121   1.877   9.434   9.369  0.2245 -0.2060 -0.0452
  633loPI   C4A10122   1.919   9.331   9.001  0.0754  0.0024 -0.1701
  633loPI   C5A10123   1.948   9.127   8.588  0.0888 -0.5336 -0.0057
  633loPI   C6A10124   1.712   8.837   8.331  0.1351 -0.3071 -0.1297
  633loPI   C1B10125   1.818   9.971  10.108 -0.0950  0.0480  0.0872
  633loPI   C2B10126   1.690   9.849   9.609  0.0259 -0.2058  0.0118
  633loPI   C3B10127   1.771   9.888   9.233  0.0533  0.2481  0.0246
  633loPI   C4B10128   1.821   9.864   8.783  0.0609 -0.1691 -0.2089
  634loPI    C110129  10.482  15.624  10.890  0.0212 -0.0200  0.0082
  634loPI    C210130  10.595  15.285  10.710 -0.0427 -0.0531  0.0302
  634loPI    C310131  10.389  15.271  11.053  0.2810  0.0113  0.2323
  634loPI   PO410132  10.630  15.822  10.649 -0.0184  0.0644  0.0995
  634loPI   GL110133  10.730  15.863  10.329 -0.1339 -0.0782 -0.0457
  634loPI   GL210134  11.007  15.776  10.149 -0.0091  0.2692  0.1160
  634loPI   C1A10135  10.596  16.100   9.985  0.0663 -0.0618  0.2611
  634loPI   C2A10136  10.635  16.080   9.527 -0.2303  0.3539  0.0375
  634loPI   C3A10137  10.671  15.974   9.112  0.4128 -0.0075  0.1031
  634loPI   C4A10138  10.653  16.062   8.718 -0.1853  0.0633 -0.1566
  634loPI   C5A10139  10.591  16.127   8.317  0.3133 -0.0322 -0.5954
  634loPI   C6A10140  10.271  16.129   8.001 -0.0462 -0.0651  0.1576
  634loPI   C1B10141  11.042  15.866   9.737 -0.1139  0.1847 -0.0705
  634loPI   C2B10142  11.121  15.859   9.331 -0.0055  0.0028 -0.4267
  634loPI   C3B10143  11.084  15.835   8.864  0.0241 -0.4592 -0.1269
  634loPI   C4B10144  11.113  15.801   8.438 -0.3473 -0.0099  0.1246
  635loPI    C110145  13.268  17.576  10.766  0.1431  0.0718 -0.0472
  635loPI    C210146  13.563  17.723  10.992  0.0556 -0.1357  0.2082
  635loPI    C310147  13.322  17.439  11.138  0.0165 -0.2977 -0.1598
  635loPI   PO410148  13.356  17.511  10.548  0.4033  0.2631  0.0367
  635loPI   GL110149  13.539  17.413  10.152  0.1385  0.3048 -0.0716
  635loPI   GL210150  13.566  17.739  10.137  0.1870 -0.1783 -0.1781
  635loPI   C1A10151  13.567  17.402   9.621 -0.0015 -0.2838 -0.0279
  635loPI   C2A10152  13.559  17.367   9.194  0.1699  0.1126  0.2674
  635loPI   C3A10153  13.543  17.293   8.780  0.1413  0.1335  0.0387
  635loPI   C4A10154  13.567  17.424   8.364  0.3331 -0.1371 -0.1888
  635loPI   C5A10155  13.731  17.785   8.093 -0.0542  0.0303  0.1410
  635loPI   C6A10156  14.019  17.948   7.909 -0.0280 -0.3638  0.1657
  635loPI   C1B10157  13.613  17.919   9.652 -0.1786 -0.0910  0.1973
  635loPI   C2B10158  13.453  17.830   9.229  0.0825 -0.0997 -0.1430
  635loPI   C3B10159  13.477  17.786   8.833 -0.0173  0.0235 -0.0177
  635loPI   C4B10160  13.443  17.920   8.482  0.1606 -0.1772 -0.2313
  636loPI    C110161   9.564   2.300  10.933 -0.1015 -0.0421  0.0633
  636loPI    C210162   9.911   2.467  11.042 -0.0291 -0.1393 -0.0173
  636loPI    C310163   9.662   2.323  11.320 -0.0866  0.0903  0.0524
  636loPI   PO410164   9.644   2.169  10.789  0.0685 -0.2576 -0.1813
  636loPI   GL110165   9.678   2.143  10.444  0.1083 -0.0730  0.0714
  636loPI   GL210166   9.315   2.215  10.275  0.2785 -0.1442 -0.0421
  636loPI   C1A10167   9.832   2.135  10.006 -0.4500 -0.0785 -0.0010
  636loPI   C2A10168   9.788   2.106   9.515  0.2246  0.0405 -0.1483
  636loPI   C3A10169   9.914   2.014   9.222 -0.4674  0.2650  0.0026
  636loPI   C4A10170   9.941   1.945   8.857 -0.1379  0.0228 -0.1437
  636loPI   C5A10171  10.007   1.852   8.405  0.2736  0.3083 -0.6990
  636loPI   C6A10172   9.918   1.880   7.922 -0.0054  0.2769 -0.0152
  636loPI   C1B10173   9.293   2.285   9.881  0.1242 -0.0400 -0.0239
  636loPI   C2B10174   9.320   2.160   9.490  0.0760 -0.0566  0.0296
  636loPI   C3B10175   9.410   2.222   9.017 -0.0132 -0.1272 -0.2391
  636loPI   C4B10176   9.582   2.099   8.586  0.0215 -0.2077  0.0720
  637loPI    C110177   2.483  11.821  11.435  0.0397 -0.0055  0.1964
  637loPI    C210178   2.595  11.445  11.513 -0.0950 -0.0929 -0.0204
  637loPI    C310179   2.421  11.665  11.799 -0.0500 -0.2072  0.0961
  637loPI   PO410180   2.387  11.815  11.252  0.0504 -0.0858  0.1500
  637loPI   GL110181   2.335  12.017  10.866  0.0206  0.0697  0.0155
  637loPI   GL210182   2.174  12.082  10.681 -0.0579  0.0055  0.1955
  637loPI   C1A10183   2.446  11.654  10.546  0.3303  0.3429 -0.1600
  637loPI   C2A10184   2.459  11.638  10.157  0.0761 -0.2514 -0.1277
  637loPI   C3A10185   2.435  11.611   9.723 -0.1132 -0.1841 -0.1220
  637loPI   C4A10186   2.420  11.606   9.221  0.0569 -0.2559  0.0823
  637loPI   C5A10187   2.509  11.692   8.823 -0.4408  0.0351  0.2444
  637loPI   C6A10188   2.419  11.558   8.289  0.2394 -0.0009  0.1878
  637loPI   C1B10189   2.364  12.096  10.287  0.0193  0.0390 -0.1813
  637loPI   C2B10190   2.396  12.094   9.896 -0.0630 -0.1635 -0.2004
  637loPI   C3B10191   2.362  12.191   9.503 -0.2930  0.1297  0.1957
  637loPI   C4B10192   2.292  12.089   9.065 -0.1304 -0.2773  0.2273
  638loPI    C110193   8.957   1.119  10.899 -0.1294 -0.0155 -0.0355
  638loPI    C210194   9.137   1.473  10.854 -0.3339  0.0989  0.0339
  638loPI    C310195   9.047   1.339  11.221 -0.1535 -0.0783  0.0146
  638loPI   PO410196   8.737   1.153  10.747  0.0203 -0.1532  0.1332
  638loPI   GL110197   8.557   1.102  10.348  0.0477  0.1269  0.0829
  638loPI   GL210198   8.166   1.097  10.267  0.2255  0.0891  0.1924
  638loPI   C1A10199   8.759   0.975  10.036 -0.3081 -0.0998 -0.0900
  638loPI   C2A10200   8.759   1.058   9.515  0.0720  0.0804  0.0717
  638loPI   C3A10201   8.691   1.001   9.074  0.2540 -0.1862  0.1487
  638loPI   C4A10202   8.710   1.056   8.589  0.0702 -0.0768  0.1326
  638loPI   C5A10203   8.690   1.284   8.127 -0.2221 -0.1584 -0.1673
  638loPI   C6A10204   8.666   1.105   7.794  0.0490  0.1092 -0.1661
  638loPI   C1B10205   8.268   1.188   9.847  0.0564 -0.0571  0.0334
  638loPI   C2B10206   8.222   1.206   9.411  0.2548  0.0154  0.0814
  638loPI   C3B10207   8.191   1.142   8.884  0.1037  0.1290  0.1413
  638loPI   C4B10208   8.252   1.203   8.477  0.2064 -0.0339 -0.2278
  639loPI    C110209  11.152   3.126  10.707  0.0875 -0.1841  0.0192
  639loPI    C210210  11.441   3.091  10.981 -0.1693  0.0071  0.3215
  639loPI    C310211  11.094   2.899  11.031 -0.1086 -0.2023 -0.0272
  639loPI   PO410212  11.311   3.157  10.475  0.2975  0.2125 -0.0354
  639loPI   GL110213  11.329   3.222  10.086  0.3253 -0.0988  0.0579
  639loPI   GL210214  11.604   3.008  10.027 -0.0301  0.1909  0.0024
  639loPI   C1A10215  11.194   3.039   9.716 -0.0859 -0.1023 -0.1173
  639loPI   C2A10216  11.035   2.980   9.316  0.2253 -0.1442  0.3662
  639loPI   C3A10217  11.100   2.903   8.855 -0.2044  0.0137  0.0007
  639loPI   C4A10218  11.114   2.980   8.444 -0.1842 -0.1519  0.0535
  639loPI   C5A10219  11.173   3.076   8.052 -0.2607  0.5549 -0.0792
  639loPI   C6A10220  11.348   3.447   7.868 -0.1509  0.1804 -0.1433
  639loPI   C1B10221  11.699   2.819   9.621  0.0560  0.3782  0.4569
  639loPI   C2B10222  11.642   2.832   9.140 -0.4522  0.2018  0.4778
  639loPI   C3B10223  11.618   2.793   8.743  0.1504 -0.1052 -0.1642
  639loPI   C4B10224  11.665   2.733   8.343  0.1102  0.0349  0.1846
  640loPI    C110225  17.310   4.878  10.559 -0.1634  0.0237  0.0472
  640loPI    C210226  17.524   4.934  10.893  0.0103 -0.2121 -0.0218
  640loPI    C310227  17.130   4.872  10.916  0.0229 -0.2352  0.1405
  640loPI   PO410228  17.356   5.055  10.448  0.0430 -0.0129 -0.1179
  640loPI   GL110229  17.442   5.265  10.111 -0.1058 -0.0810  0.1814
  640loPI   GL210230  17.700   5.543  10.134 -0.1518 -0.0475  0.0063
  640loPI   C1A10231  17.199   5.162   9.670  0.0091 -0.3172 -0.1228
  640loPI   C2A10232  17.198   5.186   9.136 -0.1386  0.0213 -0.0267
  640loPI   C3A10233  17.177   4.995   8.727  0.2611  0.0722 -0.0087
  640loPI   C4A10234  17.325   5.184   8.282 -0.0813 -0.0172  0.1122
  640loPI   C5A10235  17.201   5.560   8.111  0.1101  0.2501  0.1402
  640loPI   C6A10236  16.967   5.922   8.049  0.1520 -0.1158  0.3209
  640loPI   C1B10237  17.683   5.527   9.677 -0.2108 -0.4588 -0.1424
  640loPI   C2B10238  17.576   5.554   9.174 -0.0222 -0.0346  0.0226
  640loPI   C3B10239  17.562   5.468   8.852 -0.1757  0.0635 -0.1459
  640loPI   C4B10240  17.761   5.373   8.430  0.1043  0.0269 -0.1914
  641loPI    C110241   8.910   6.185  10.623 -0.0123  0.1201  0.1686
  641loPI    C210242   9.203   6.344  10.843  0.0665 -0.0018  0.1528
  641loPI    C310243   8.822   6.432  10.924  0.1096  0.2108  0.1307
  641loPI   PO410244   8.887   6.202  10.348 -0.4035 -0.1109  0.1990
  641loPI   GL110245   8.800   6.170   9.949  0.1070 -0.2598 -0.0360
  641loPI   GL210246   8.523   6.341   9.786 -0.1626 -0.0692  0.2945
  641loPI   C1A10247   8.981   6.017   9.532 -0.1079  0.2748  0.1729
  641loPI   C2A10248   9.082   6.082   9.110  0.2408  0.0292 -0.0637
  641loPI   C3A10249   9.219   6.111   8.712  0.0655 -0.0543 -0.1999
  641loPI   C4A10250   9.276   6.014   8.328  0.1665  0.2283  0.3174
  641loPI   C5A10251   9.334   6.165   7.897  0.0913 -0.2353 -0.1263
  641loPI   C6A10252   9.332   6.482   7.483 -0.0056  0.1316  0.0546
  641loPI   C1B10253   8.590   6.284   9.382 -0.0773  0.1410  0.1176
  641loPI   C2B10254   8.599   6.278   8.882  0.1013 -0.0762  0.0446
  641loPI   C3B10255   8.750   6.285   8.484  0.1372  0.4165  0.0479
  641loPI   C4B10256   8.738   6.286   8.116  0.2401  0.1818 -0.0448
  642loPI    C110257  14.586  14.336  10.894 -0.0373 -0.0743 -0.3036
  642loPI    C210258  14.875  14.152  11.101 -0.0958  0.0611 -0.0983
  642loPI    C310259  14.560  14.308  11.293 -0.2427  0.0268 -0.3085
  642loPI   PO410260  14.715  14.429  10.698  0.1980  0.0839  0.2348
  642loPI   GL110261  14.691  14.544  10.295 -0.1157  0.0938 -0.0575
  642loPI   GL210262  14.940  14.519  10.148  0.1629 -0.3918  0.0316
  642loPI   C1A10263  14.609  14.237   9.891  0.0017 -0.1989 -0.0484
  642loPI   C2A10264  14.679  14.158   9.447  0.2681  0.0810  0.4093
  642loPI   C3A10265  14.642  14.114   8.968 -0.0334  0.0759  0.1005
  642loPI   C4A10266  14.680  14.036   8.600  0.0544 -0.0371 -0.1069
  642loPI   C5A10267  14.949  13.786   8.264  0.0231  0.1949 -0.0227
  642loPI   C6A10268  14.848  14.083   7.994  0.2953  0.0652  0.1564
  642loPI   C1B10269  15.013  14.493   9.693 -0.0666 -0.5448 -0.1157
  642loPI   C2B10270  14.976  14.471   9.208  0.1131  0.1480  0.0031
  642loPI   C3B10271  15.075  14.386   8.881  0.0909 -0.0823  0.0632
  642loPI   C4B10272  15.012  14.365   8.406  0.0933  0.1295 -0.0483
  643loPI    C110273   4.338  16.798  11.021  0.0152 -0.1351  0.1026
  643loPI    C210274   4.110  17.006  11.275 -0.0750 -0.0713 -0.0295
  643loPI    C310275   4.430  16.808  11.410 -0.1206 -0.0360  0.1330
  643loPI   PO410276   4.146  16.746  10.743 -0.0719  0.1757  0.1203
  643loPI   GL110277   3.751  16.818  10.549 -0.2989  0.0814 -0.2049
  643loPI   GL210278   3.755  16.439  10.640 -0.3007 -0.1019  0.0714
  643loPI   C1A10279   3.648  16.936  10.169  0.0015  0.1017 -0.3329
  643loPI   C2A10280   3.656  17.014   9.753 -0.1746  0.0663  0.0089
  643loPI   C3A10281   3.521  17.040   9.360 -0.4290 -0.0590 -0.0910
  643loPI   C4A10282   3.627  17.000   8.960  0.1309 -0.0586 -0.0638
  643loPI   C5A10283   3.590  17.013   8.475 -0.1249 -0.3132 -0.0721
  643loPI   C6A10284   3.431  17.165   8.156  0.0619 -0.1648  0.1719
  643loPI   C1B10285   3.731  16.462  10.132  0.1100 -0.0404 -0.0293
  643loPI   C2B10286   3.611  16.549   9.674  0.0257 -0.1179  0.3891
  643loPI   C3B10287   3.773  16.571   9.267  0.1489 -0.0324 -0.0053
  643loPI   C4B10288   3.680  16.564   8.768  0.1556 -0.3222  0.0600
  644loPI    C110289  10.983  12.113  10.809 -0.0019 -0.1721  0.0203
  644loPI    C210290  11.093  12.195  11.184  0.2614  0.1228 -0.1170
  644loPI    C310291  10.724  12.287  11.059  0.1991  0.0972  0.0454
  644loPI   PO410292  11.110  12.207  10.679 -0.2942  0.0941  0.2277
  644loPI   GL110293  11.351  12.151  10.354 -0.1373  0.2261  0.4026
  644loPI   GL210294  11.263  11.930  10.251  0.0125 -0.2250 -0.0345
  644loPI   C1A10295  11.311  12.331   9.964 -0.0061 -0.1430  0.0234
  644loPI   C2A10296  11.324  12.454   9.679  0.0270 -0.1305 -0.0040
  644loPI   C3A10297  11.245  12.516   9.297  0.0982 -0.1746 -0.0750
  644loPI   C4A10298  11.364  12.488   8.827 -0.0120 -0.0743  0.2352
  644loPI   C5A10299  11.336  12.441   8.389  0.1495  0.1737  0.1247
  644loPI   C6A10300  11.516  12.266   8.026 -0.1259  0.2315  0.2760
  644loPI   C1B10301  11.385  11.886   9.794 -0.2882  0.1362 -0.1105
  644loPI   C2B10302  11.386  11.978   9.376 -0.1111  0.0650 -0.0648
  644loPI   C3B10303  11.483  11.938   8.905  0.1602 -0.2249 -0.0996
  644loPI   C4B10304  11.444  11.994   8.423  0.2432  0.1648 -0.0013
  645loPI    C110305   5.284  11.820  11.170 -0.0274  0.1305 -0.0684
  645loPI    C210306   5.106  11.526  11.374 -0.0523  0.0034 -0.2711
  645loPI    C310307   5.132  11.892  11.533  0.1296 -0.1474  0.0560
  645loPI   PO410308   5.205  11.779  10.916  0.0275  0.2696 -0.0867
  645loPI   GL110309   5.098  11.968  10.501 -0.2145  0.1365 -0.0512
  645loPI   GL210310   5.123  11.657  10.380  0.0061  0.0083 -0.2001
  645loPI   C1A10311   5.019  12.155  10.122 -0.0033  0.2493 -0.0824
  645loPI   C2A10312   5.008  12.072   9.831  0.2564  0.0172 -0.0091
  645loPI   C3A10313   5.054  12.145   9.334  0.0965  0.0182 -0.0507
  645loPI   C4A10314   4.945  12.207   8.945 -0.0530  0.0537 -0.0125
  645loPI   C5A10315   4.667  11.995   8.616 -0.3189 -0.1276  0.1352
  645loPI   C6A10316   4.732  11.799   8.269  0.1065  0.0529 -0.1451
  645loPI   C1B10317   5.200  11.622   9.960  0.0260 -0.0083  0.1950
  645loPI   C2B10318   5.147  11.687   9.506  0.1413  0.1470 -0.0840
  645loPI   C3B10319   5.126  11.613   9.089 -0.4146 -0.1968 -0.2695
  645loPI   C4B10320   5.100  11.747   8.635  0.2232  0.0684  0.3062
  646loPI    C110321   0.183  10.222  11.081  0.1222 -0.0141  0.1537
  646loPI    C210322   0.050  10.357  11.433  0.0427  0.0537  0.0984
  646loPI    C310323  -0.093  10.015  11.283  0.1149 -0.0023  0.1558
  646loPI   PO410324   0.181  10.352  10.879  0.2794  0.3858 -0.0060
  646loPI   GL110325   0.259  10.238  10.480  0.0199 -0.0006 -0.3358
  646loPI   GL210326   0.062   9.999  10.384 -0.2975  0.1211  0.0090
  646loPI   C1A10327   0.376  10.420  10.127  0.2247  0.0574  0.0288
  646loPI   C2A10328   0.411  10.493   9.619 -0.1545 -0.0244  0.0453
  646loPI   C3A10329   0.340  10.424   9.100  0.1183  0.0309 -0.2838
  646loPI   C4A10330   0.379  10.552   8.647  0.0075 -0.1639  0.1246
  646loPI   C5A10331   0.477  10.361   8.328  0.0365 -0.1088 -0.0813
  646loPI   C6A10332   0.165  10.320   7.986  0.1379  0.1434  0.3850
  646loPI   C1B10333  -0.010  10.108   9.906 -0.0952 -0.0990 -0.1014
  646loPI   C2B10334  -0.011  10.211   9.455  0.1100 -0.0124 -0.3390
  646loPI   C3B10335  -0.034  10.121   9.024  0.0819 -0.1368 -0.1149
  646loPI   C4B10336   0.041  10.160   8.552  0.1952 -0.3579  0.3683
  647loPI    C110337   6.187   6.054  10.879  0.0236 -0.0766 -0.0784
  647loPI    C210338   6.528   6.143  11.066 -0.0792 -0.1929  0.1682
  647loPI    C310339   6.188   6.110  11.275 -0.2064 -0.2674 -0.0479
  647loPI   PO410340   6.179   6.261  10.700  0.0713  0.0240 -0.0183
  647loPI   GL110341   5.867   6.420  10.373  0.0629 -0.1645 -0.1951
  647loPI   GL210342   5.536   6.545  10.225  0.0126 -0.0584  0.1287
  647loPI   C1A10343   5.858   6.152   9.956 -0.2973 -0.0477  0.0919
  647loPI   C2A10344   5.816   6.212   9.536 -0.1795 -0.3392  0.2397
  647loPI   C3A10345   5.791   6.203   9.075 -0.0319  0.0029  0.1667
  647loPI   C4A10346   5.856   6.233   8.689 -0.2162  0.1033  0.1778
  647loPI   C5A10347   5.870   6.217   8.202  0.3769 -0.3321 -0.1428
  647loPI   C6A10348   5.996   5.946   7.830 -0.2636 -0.2289 -0.0207
  647loPI   C1B10349   5.388   6.412   9.783  0.5054 -0.0756 -0.1280
  647loPI   C2B10350   5.353   6.335   9.392 -0.1362  0.1452 -0.1098
  647loPI   C3B10351   5.331   6.345   9.095  0.2849  0.3245 -0.2944
  647loPI   C4B10352   5.288   6.318   8.688 -0.2537  0.0339 -0.1165
  648loPI    C110353  14.327  17.730  10.684  0.0286  0.0676 -0.1144
  648loPI    C210354  14.185  17.953  10.984 -0.2128 -0.3849  0.1180
  648loPI    C310355  14.577  17.953  10.902 -0.2193  0.1922  0.0461
  648loPI   PO410356  14.163  17.654  10.552  0.1108  0.1717 -0.1842
  648loPI   GL110357  14.123  17.473  10.108 -0.1772 -0.1843  0.2306
  648loPI   GL210358  14.007  17.803   9.941  0.3200  0.0659 -0.1090
  648loPI   C1A10359  14.152  17.197   9.709  0.0505 -0.0682 -0.0159
  648loPI   C2A10360  14.060  17.183   9.252  0.2928 -0.1868  0.1141
  648loPI   C3A10361  14.025  17.150   8.884 -0.0402 -0.0811 -0.4208
  648loPI   C4A10362  13.991  17.117   8.425  0.0920 -0.2497 -0.2925
  648loPI   C5A10363  13.652  16.946   8.171 -0.0741  0.1524  0.2623
  648loPI   C6A10364  13.525  16.565   8.060  0.0766  0.1476  0.1084
  648loPI   C1B10365  14.032  17.665   9.589  0.2036  0.1019  0.2488
  648loPI   C2B10366  13.936  17.748   9.157  0.0431  0.3136 -0.1576
  648loPI   C3B10367  13.950  17.670   8.698 -0.0448 -0.2163 -0.0997
  648loPI   C4B10368  14.181  17.677   8.271  0.0822  0.2887 -0.2078
  649loPI    C110369   4.948   5.980  10.894 -0.1943  0.1687 -0.0929
  649loPI    C210370   5.293   6.094  11.062 -0.2063  0.1286 -0.0408
  649loPI    C310371   4.953   6.113  11.271 -0.1867 -0.1412  0.0189
  649loPI   PO410372   4.913   6.155  10.705 -0.0145  0.1385 -0.1136
  649loPI   GL110373   4.911   6.083  10.304 -0.0052 -0.1601 -0.0189
  649loPI   GL210374   4.867   6.417  10.140  0.0705  0.0215 -0.1661
  649loPI   C1A10375   4.948   6.006   9.864  0.3173 -0.0411  0.3042
  649loPI   C2A10376   4.927   6.037   9.442  0.2538  0.1334 -0.0699
  649loPI   C3A10377   4.946   6.060   8.953  0.1235 -0.0292 -0.0330
  649loPI   C4A10378   4.927   6.061   8.529 -0.0600  0.3283 -0.6320
  649loPI   C5A10379   4.837   6.164   8.127 -0.0400  0.2606 -0.0565
  649loPI   C6A10380   4.714   5.893   7.769  0.2303 -0.0534  0.4125
  649loPI   C1B10381   4.885   6.493   9.730 -0.0427  0.0693  0.2342
  649loPI   C2B10382   4.877   6.494   9.320  0.1565 -0.1893 -0.1292
  649loPI   C3B10383   4.850   6.562   8.866 -0.0943 -0.1655  0.4106
  649loPI   C4B10384   4.875   6.534   8.405 -0.2254  0.0787  0.0682
  650loPI    C110385   6.831  10.287  10.765 -0.2088 -0.0552  0.1332
  650loPI    C210386   6.582  10.531  10.961  0.0142  0.2872 -0.0005
  650loPI    C310387   6.977  10.559  11.019  0.0351 -0.1725  0.1217
  650loPI   PO410388   6.666  10.237  10.547  0.1772 -0.2130  0.1260
  650loPI   GL110389   6.656  10.159  10.207 -0.1772 -0.3011  0.3738
  650loPI   GL210390   6.334  10.222  10.037  0.0660  0.1074 -0.1080
  650loPI   C1A10391   6.741  10.140   9.722 -0.1537 -0.0854 -0.0694
  650loPI   C2A10392   6.862  10.252   9.319  0.3600  0.0022  0.1267
  650loPI   C3A10393   6.780  10.209   8.901 -0.1614  0.0283 -0.0337
  650loPI   C4A10394   6.737  10.180   8.465 -0.1522  0.0664  0.0055
  650loPI   C5A10395   7.202  10.130   8.163  0.1148 -0.2297 -0.0858
  650loPI   C6A10396   7.446  10.020   7.837  0.0265  0.0969 -0.1115
  650loPI   C1B10397   6.288  10.320   9.553  0.1675  0.1940 -0.1604
  650loPI   C2B10398   6.314  10.364   9.169  0.4471 -0.2939  0.1379
  650loPI   C3B10399   6.326  10.311   8.732 -0.1322  0.1956 -0.2451
  650loPI   C4B10400   6.226  10.376   8.309  0.3183  0.1292 -0.0357
  651loPI    C110401  14.057   8.151  11.115 -0.1917 -0.0732 -0.0580
  651loPI    C210402  13.917   7.794  11.227 -0.1508 -0.0460  0.0825
  651loPI    C310403  14.214   7.965  11.432  0.2165 -0.1846 -0.3176
  651loPI   PO410404  14.127   8.124  10.822  0.0030 -0.0701 -0.1161
  651loPI   GL110405  14.022   7.998  10.461 -0.3415 -0.2989 -0.2270
  651loPI   GL210406  13.874   8.216  10.273  0.0925 -0.0101  0.1499
  651loPI   C1A10407  14.274   7.985  10.016  0.2462 -0.3034  0.1202
  651loPI   C2A10408  14.470   8.012   9.625  0.4761  0.1253 -0.0800
  651loPI   C3A10409  14.344   8.015   9.168  0.3143  0.0610 -0.0147
  651loPI   C4A10410  14.363   8.058   8.642 -0.0879 -0.0804  0.3390
  651loPI   C5A10411  14.225   7.871   8.366 -0.0188 -0.2735 -0.0937
  651loPI   C6A10412  13.962   7.929   7.975 -0.1896  0.0636 -0.0746
  651loPI   C1B10413  13.904   8.199   9.781 -0.0850  0.0842 -0.2824
  651loPI   C2B10414  13.799   8.145   9.274  0.1487 -0.0237  0.0493
  651loPI   C3B10415  13.930   8.111   8.879 -0.0145  0.0757 -0.0478
  651loPI   C4B10416  13.959   8.305   8.517  0.2319  0.1278  0.0118
  652loPI    C110417   4.054  12.268  11.268 -0.0818 -0.0683 -0.1106
  652loPI    C210418   4.428  12.182  11.382 -0.0581 -0.0511 -0.1750
  652loPI    C310419   4.136  12.206  11.655  0.0986  0.5228 -0.0436
  652loPI   PO410420   4.071  12.382  11.122  0.1367 -0.2364 -0.0221
  652loPI   GL110421   4.206  12.364  10.757  0.0854 -0.0338  0.1334
  652loPI   GL210422   4.469  12.150  10.813  0.0764 -0.3722 -0.0386
  652loPI   C1A10423   4.078  12.466  10.370  0.0899 -0.0639 -0.0841
  652loPI   C2A10424   4.030  12.532   9.902  0.1495 -0.2186 -0.0531
  652loPI   C3A10425   4.051  12.493   9.456 -0.1147 -0.4664 -0.0846
  652loPI   C4A10426   3.980  12.492   9.019 -0.0120 -0.1341  0.1313
  652loPI   C5A10427   3.746  12.267   8.661  0.1751  0.1846  0.0547
  652loPI   C6A10428   3.638  12.267   8.312  0.0354  0.2574 -0.0209
  652loPI   C1B10429   4.567  12.294  10.381 -0.0273 -0.1596 -0.2968
  652loPI   C2B10430   4.557  12.271   9.951  0.1328 -0.1032  0.2369
  652loPI   C3B10431   4.549  12.372   9.478  0.1272  0.0753 -0.2763
  652loPI   C4B10432   4.458  12.415   9.073 -0.2030  0.3180  0.1046
  653loPI    C110433   7.987  15.847  10.978  0.2497 -0.1131 -0.3831
  653loPI    C210434   7.906  15.491  11.142 -0.0093  0.2468  0.3125
  653loPI    C310435   8.244  15.683  11.237  0.1546  0.1730 -0.1008
  653loPI   PO410436   7.988  15.853  10.724  0.2489  0.1196 -0.0977
  653loPI   GL110437   7.740  15.962  10.341  0.3558  0.1093 -0.1047
  653loPI   GL210438   7.429  16.022  10.289 -0.3028  0.0447  0.0837
  653loPI   C1A10439   7.871  16.001   9.952 -0.3507  0.3423 -0.0738
  653loPI   C2A10440   7.707  16.047   9.623  0.1070  0.1200  0.0386
  653loPI   C3A10441   7.876  16.054   9.123  0.3035 -0.0930 -0.1862
  653loPI   C4A10442   7.989  16.125   8.691 -0.0479 -0.0585 -0.0861
  653loPI   C5A10443   7.876  16.083   8.226 -0.3367  0.2674  0.0746
  653loPI   C6A10444   7.502  16.041   7.982  0.3530  0.0284  0.0567
  653loPI   C1B10445   7.326  16.254   9.905 -0.1493  0.2436 -0.0476
  653loPI   C2B10446   7.303  16.241   9.424 -0.0284  0.1759 -0.0390
  653loPI   C3B10447   7.348  16.307   9.005  0.0864  0.1418  0.0582
  653loPI   C4B10448   7.293  16.279   8.412 -0.0420 -0.2028 -0.0601
  654loPI    C110449  10.199   8.056  10.606  0.0337  0.1646 -0.1756
  654loPI    C210450   9.900   7.797  10.665  0.1510  0.0857  0.0888
  654loPI    C310451   9.861   8.178  10.781 -0.0112  0.1841 -0.2756
  654loPI   PO410452  10.267   8.049  10.355  0.3341  0.0235  0.0730
  654loPI   GL110453  10.242   7.872   9.949 -0.0678  0.0412 -0.0626
  654loPI   GL210454  10.017   8.082   9.859 -0.1658 -0.1201 -0.1367
  654loPI   C1A10455  10.244   7.695   9.560  0.3037  0.3511  0.1893
  654loPI   C2A10456  10.268   7.557   9.118  0.0766  0.0641  0.1699
  654loPI   C3A10457  10.316   7.599   8.715 -0.0813  0.1190  0.0324
  654loPI   C4A10458  10.351   7.611   8.321 -0.0056 -0.1805 -0.3548
  654loPI   C5A10459  10.515   7.702   7.975  0.2304 -0.1920  0.1189
  654loPI   C6A10460  10.479   7.558   7.602  0.0261  0.3779  0.0348
  654loPI   C1B10461  10.135   8.193   9.443  0.4228  0.0603  0.1417
  654loPI   C2B10462  10.287   8.038   9.005  0.1307 -0.3603  0.0717
  654loPI   C3B10463  10.240   8.149   8.548  0.2654 -0.1001  0.2026
  654loPI   C4B10464  10.266   8.073   8.170  0.1345 -0.1657 -0.0896
  655loPI    C110465   1.720   5.542  10.847  0.2019 -0.0417  0.0700
  655loPI    C210466   1.481   5.224  10.807  0.1678  0.0003 -0.0655
  655loPI    C310467   1.343   5.558  10.979  0.0539  0.1044 -0.3526
  655loPI   PO410468   1.780   5.693  10.623  0.0188 -0.2414  0.0051
  655loPI   GL110469   1.671   5.579  10.235  0.1688 -0.1755 -0.0442
  655loPI   GL210470   1.647   5.351  10.180  0.3702 -0.1277 -0.3376
  655loPI   C1A10471   1.789   5.768   9.939  0.1396  0.3338  0.0361
  655loPI   C2A10472   1.842   5.767   9.478 -0.3687  0.0031 -0.0937
  655loPI   C3A10473   1.766   5.666   9.079 -0.2866 -0.0543  0.0554
  655loPI   C4A10474   1.859   5.692   8.647  0.0088 -0.0594 -0.1019
  655loPI   C5A10475   1.922   5.775   8.234  0.1503 -0.0425 -0.3453
  655loPI   C6A10476   2.079   5.734   7.912  0.2899 -0.0395  0.2241
  655loPI   C1B10477   1.950   5.176   9.864 -0.2413 -0.1474 -0.2672
  655loPI   C2B10478   1.883   5.190   9.454  0.1767  0.1307  0.2648
  655loPI   C3B10479   1.851   5.186   9.024  0.1387  0.0923  0.1518
  655loPI   C4B10480   2.059   5.218   8.669 -0.2861  0.0377  0.1581
  656loPI    C110481   4.416   6.722  10.988 -0.1232  0.0437 -0.1271
  656loPI    C210482   4.534   7.064  11.158 -0.1326  0.0427 -0.1186
  656loPI    C310483   4.459   6.743  11.385  0.2170 -0.0688 -0.1552
  656loPI   PO410484   4.263   6.824  10.824  0.0191  0.0805 -0.1287
  656loPI   GL110485   4.005   6.911  10.508 -0.1297  0.1363 -0.0250
  656loPI   GL210486   4.307   6.840  10.361 -0.2025 -0.0752  0.0507
  656loPI   C1A10487   3.957   6.872  10.030  0.2698  0.0237 -0.3480
  656loPI   C2A10488   3.802   6.861   9.699  0.0327  0.1876 -0.2821
  656loPI   C3A10489   3.939   6.930   9.276 -0.0655  0.1162 -0.1646
  656loPI   C4A10490   3.875   6.914   8.859  0.2642  0.0557  0.1017
  656loPI   C5A10491   3.861   6.999   8.422  0.0051  0.0989  0.0684
  656loPI   C6A10492   3.851   7.099   7.988 -0.1264 -0.2026  0.1361
  656loPI   C1B10493   4.406   6.648   9.952 -0.2615  0.3274  0.0472
  656loPI   C2B10494   4.405   6.707   9.541 -0.2402 -0.1313  0.3174
  656loPI   C3B10495   4.417   6.719   9.074  0.1277  0.4530 -0.0916
  656loPI   C4B10496   4.380   6.724   8.689 -0.3629 -0.0638 -0.0491
  657loPI    C110497  16.639  11.334  10.816 -0.2239 -0.2345 -0.0208
  657loPI    C210498  16.687  11.331  11.213  0.2090  0.0931 -0.0627
  657loPI    C310499  16.463  11.614  11.041 -0.2627 -0.2494 -0.0327
  657loPI   PO410500  16.874  11.196  10.753 -0.1319  0.1394  0.3071
  657loPI   GL110501  17.173  11.088  10.327 -0.0977 -0.0229  0.0003
  657loPI   GL210502  17.092  11.401  10.339  0.0765  0.3844  0.1242
  657loPI   C1A10503  17.121  10.934   9.934 -0.2849  0.3145 -0.1632
  657loPI   C2A10504  17.168  11.021   9.565 -0.0330  0.2933  0.1589
  657loPI   C3A10505  17.088  10.974   9.158  0.0213 -0.0832 -0.3583
  657loPI   C4A10506  17.097  10.918   8.806  0.3099  0.0612  0.3225
  657loPI   C5A10507  17.124  10.904   8.345 -0.3643  0.1544 -0.3614
  657loPI   C6A10508  17.375  11.277   8.203 -0.0829  0.0944  0.3489
  657loPI   C1B10509  17.041  11.548   9.957  0.1471 -0.1167 -0.1505
  657loPI   C2B10510  17.069  11.492   9.499  0.1416  0.2166 -0.1353
  657loPI   C3B10511  17.096  11.437   9.080  0.0759 -0.1879  0.2617
  657loPI   C4B10512  17.065  11.399   8.602 -0.2964 -0.2442  0.0333
  658loPI    C110513   0.156  13.326  11.447  0.1135  0.2403  0.0998
  658loPI    C210514  -0.194  13.275  11.633  0.1825  0.2411  0.2308
  658loPI    C310515   0.148  13.198  11.826  0.2507  0.1073  0.0588
  658loPI   PO410516   0.091  13.440  11.247  0.2428 -0.1278  0.0671
  658loPI   GL110517   0.242  13.582  10.781 -0.0003  0.0756 -0.0703
  658loPI   GL210518   0.402  13.452  10.688 -0.0252 -0.1708  0.0034
  658loPI   C1A10519   0.233  13.852  10.378 -0.0705 -0.0252 -0.0796
  658loPI   C2A10520   0.211  13.744   9.943  0.1801  0.1569  0.1959
  658loPI   C3A10521   0.270  13.883   9.514 -0.2832  0.1953  0.3113
  658loPI   C4A10522   0.140  13.825   9.027 -0.0339  0.0840 -0.0542
  658loPI   C5A10523   0.167  13.787   8.520 -0.0021 -0.2241  0.0884
  658loPI   C6A10524   0.448  13.506   8.310  0.0017 -0.2461  0.2199
  658loPI   C1B10525   0.385  13.404  10.255 -0.0617 -0.0450  0.1316
  658loPI   C2B10526   0.389  13.304   9.756  0.3263 -0.0868 -0.1193
  658loPI   C3B10527   0.352  13.360   9.368 -0.1771 -0.0467  0.1466
  658loPI   C4B10528   0.371  13.388   8.834 -0.1677  0.1494  0.2463
  659loPI    C110529   2.456   7.754  11.113  0.0898 -0.0096 -0.0957
  659loPI    C210530   2.625   8.001  11.378 -0.0990 -0.0415  0.0570
  659loPI    C310531   2.262   7.850  11.449  0.0043 -0.3457 -0.0454
  659loPI   PO410532   2.468   7.891  10.919 -0.4668  0.0458  0.0816
  659loPI   GL110533   2.630   8.009  10.551  0.0409  0.1457  0.1966
  659loPI   GL210534   2.951   7.649  10.600  0.0364  0.1516 -0.1083
  659loPI   C1A10535   2.688   8.120  10.155 -0.0742  0.2462 -0.0847
  659loPI   C2A10536   2.691   8.186   9.758  0.0355 -0.0619  0.0146
  659loPI   C3A10537   2.590   8.232   9.319 -0.1682  0.0935  0.0651
  659loPI   C4A10538   2.606   8.230   8.983 -0.0374 -0.0867  0.0815
  659loPI   C5A10539   2.609   8.052   8.539  0.0641 -0.2593 -0.2822
  659loPI   C6A10540   2.228   7.937   8.267 -0.0892  0.1028 -0.1266
  659loPI   C1B10541   2.857   7.686  10.259 -0.1185 -0.1295 -0.1108
  659loPI   C2B10542   2.827   7.679   9.809 -0.3348  0.1239  0.0437
  659loPI   C3B10543   2.793   7.769   9.312  0.3496  0.3124 -0.3379
  659loPI   C4B10544   2.790   7.751   8.898  0.1874 -0.2408  0.1296
  660loPI    C110545  12.492   5.931  10.732  0.0308 -0.0431  0.0638
  660loPI    C210546  12.388   6.278  10.902  0.3816  0.1172 -0.0402
  660loPI    C310547  12.425   5.949  11.126  0.1521  0.1682  0.0760
  660loPI   PO410548  12.357   5.917  10.487  0.1381  0.0736  0.3256
  660loPI   GL110549  12.403   5.785  10.047  0.2110  0.0976 -0.0581
  660loPI   GL210550  12.676   5.527  10.020  0.1508  0.0042 -0.1856
  660loPI   C1A10551  12.284   5.851   9.640  0.0203 -0.1969  0.0736
  660loPI   C2A10552  12.389   5.879   9.231 -0.1721  0.1783 -0.0941
  660loPI   C3A10553  12.385   5.831   8.712 -0.0749  0.1409 -0.0259
  660loPI   C4A10554  12.517   5.830   8.311 -0.0821  0.0888 -0.1785
  660loPI   C5A10555  12.870   5.903   7.931  0.2601  0.3194 -0.0897
  660loPI   C6A10556  12.892   5.589   7.646  0.2186  0.1389  0.0313
  660loPI   C1B10557  12.577   5.432   9.530 -0.1405  0.1024 -0.1721
  660loPI   C2B10558  12.519   5.307   8.975  0.1813  0.0451  0.1098
  660loPI   C3B10559  12.572   5.303   8.555  0.0984  0.2959 -0.0378
  660loPI   C4B10560  12.769   5.385   8.061  0.4648  0.0937  0.1000
  661loPI    C110561   5.048  10.224  10.763 -0.0525  0.0032  0.0862
  661loPI    C210562   4.809  10.009  11.001 -0.0548 -0.1475 -0.0505
  661loPI    C310563   5.198  10.041  11.085 -0.0662 -0.1530  0.0047
  661loPI   PO410564   4.930  10.181  10.518  0.0637  0.0093  0.2539
  661loPI   GL110565   4.956  10.210  10.197  0.0771 -0.1398  0.2578
  661loPI   GL210566   4.687  10.042  10.102 -0.3399  0.3295 -0.3187
  661loPI   C1A10567   4.973  10.277   9.734  0.1169  0.1585 -0.0744
  661loPI   C2A10568   4.879  10.287   9.231  0.0782  0.1720 -0.0722
  661loPI   C3A10569   4.855  10.373   8.895 -0.2185  0.0470 -0.3038
  661loPI   C4A10570   4.950  10.212   8.456 -0.1878 -0.1097  0.7397
  661loPI   C5A10571   4.985  10.006   8.122 -0.1591 -0.2619 -0.2150
  661loPI   C6A10572   4.716   9.680   7.940 -0.3224  0.1990 -0.0851
  661loPI   C1B10573   4.504   9.953   9.731 -0.1474 -0.0449 -0.0364
  661loPI   C2B10574   4.509   9.947   9.207  0.1159  0.0713  0.1494
  661loPI   C3B10575   4.411  10.060   8.744  0.0318 -0.1378 -0.0392
  661loPI   C4B10576   4.560   9.976   8.393 -0.0546  0.0284 -0.1738
  662loPI    C110577   0.413  16.205  11.305  0.0956 -0.1153  0.0729
  662loPI    C210578   0.232  16.033  11.618 -0.2216  0.3098  0.1314
  662loPI    C310579   0.580  16.225  11.669  0.0403 -0.1428  0.1000
  662loPI   PO410580   0.437  16.057  11.067  0.1794 -0.0731  0.0389
  662loPI   GL110581   0.308  15.999  10.606 -0.1876  0.1120 -0.0810
  662loPI   GL210582   0.117  15.661  10.652  0.0433  0.0027 -0.2542
  662loPI   C1A10583   0.223  15.886  10.207 -0.1001 -0.2027 -0.3055
  662loPI   C2A10584   0.196  15.743   9.903 -0.1466 -0.2765 -0.0721
  662loPI   C3A10585   0.257  15.706   9.430 -0.0581 -0.0658 -0.0237
  662loPI   C4A10586   0.304  15.707   8.973  0.1508  0.1944  0.0207
  662loPI   C5A10587   0.290  15.699   8.567  0.0843  0.0629 -0.2268
  662loPI   C6A10588   0.660  15.650   8.366 -0.0172 -0.1202 -0.2503
  662loPI   C1B10589  -0.125  15.477  10.228 -0.3306  0.1361  0.1359
  662loPI   C2B10590  -0.151  15.375   9.685 -0.0545  0.0146  0.0826
  662loPI   C3B10591  -0.098  15.382   9.205  0.0705 -0.1210  0.3647
  662loPI   C4B10592  -0.066  15.362   8.714  0.1814  0.4394 -0.2637
  663loPI    C110593  13.143  10.307  11.344 -0.0306  0.1172 -0.2375
  663loPI    C210594  13.465  10.160  11.530 -0.1566  0.2862  0.1225
  663loPI    C310595  13.100  10.036  11.636 -0.2100 -0.0282 -0.3962
  663loPI   PO410596  13.111  10.349  11.061  0.0499 -0.1634  0.0629
  663loPI   GL110597  13.144  10.166  10.614 -0.2385 -0.0648 -0.2646
  663loPI   GL210598  12.913  10.250  10.430 -0.1123 -0.4075 -0.0629
  663loPI   C1A10599  13.482  10.424  10.377 -0.1965  0.0332  0.0482
  663loPI   C2A10600  13.794  10.535  10.132  0.2301 -0.1187  0.1987
  663loPI   C3A10601  13.873  10.518   9.744  0.4131  0.3112  0.4465
  663loPI   C4A10602  13.969  10.597   9.309 -0.0160  0.1594 -0.2737
  663loPI   C5A10603  13.953  10.562   8.788 -0.1713 -0.2945 -0.2117
  663loPI   C6A10604  13.952  10.662   8.321  0.3614  0.1049  0.2387
  663loPI   C1B10605  13.080  10.340  10.071 -0.0148 -0.1986 -0.0961
  663loPI   C2B10606  13.037  10.405   9.667  0.1918  0.2750 -0.1538
  663loPI   C3B10607  13.058  10.404   9.257 -0.1767 -0.3970 -0.2925
  663loPI   C4B10608  13.078  10.401   8.819 -0.0550 -0.0172  0.0062
  664loPI    C110609   8.786   9.073  10.587  0.0944 -0.0697 -0.2801
  664loPI    C210610   9.067   9.155  10.859 -0.1577  0.3012 -0.1228
  664loPI    C310611   8.774   8.897  10.945 -0.0900  0.2177 -0.1413
  664loPI   PO410612   8.908   9.002  10.394  0.1676  0.0920  0.2145
  664loPI   GL110613   8.817   8.924   9.922 -0.0705  0.1025  0.1504
  664loPI   GL210614   8.479   8.968   9.803 -0.2195  0.0988 -0.0938
  664loPI   C1A10615   9.048   9.036   9.611 -0.0417  0.0919 -0.1726
  664loPI   C2A10616   9.119   9.046   9.263 -0.1053  0.0617  0.2211
  664loPI   C3A10617   9.188   9.039   8.844  0.2345 -0.3423  0.1254
  664loPI   C4A10618   9.206   8.983   8.380  0.1281  0.2088 -0.1665
  664loPI   C5A10619   9.226   8.878   7.984  0.0703  0.2334 -0.2451
  664loPI   C6A10620   8.869   8.870   7.747  0.0211 -0.1031  0.0450
  664loPI   C1B10621   8.621   8.979   9.452  0.4864  0.1556 -0.0704
  664loPI   C2B10622   8.628   9.185   9.081  0.0107  0.0718 -0.1832
  664loPI   C3B10623   8.650   9.232   8.610  0.1655 -0.1937  0.3396
  664loPI   C4B10624   8.728   9.627   8.347  0.0261 -0.0621 -0.2497
  665loPI    C110625  11.446  11.628  10.665 -0.0067  0.1961 -0.0542
  665loPI    C210626  11.716  11.666  10.958  0.0915 -0.1815 -0.0904
  665loPI    C310627  11.334  11.761  11.025  0.1458 -0.0961  0.1048
  665loPI   PO410628  11.621  11.566  10.484 -0.1203 -0.1508 -0.0305
  665loPI   GL110629  11.555  11.467  10.038  0.1205  0.1849 -0.0394
  665loPI   GL210630  11.285  11.417  10.190 -0.0303  0.0819  0.1377
  665loPI   C1A10631  11.567  11.487   9.585 -0.0970 -0.0923  0.1060
  665loPI   C2A10632  11.612  11.477   9.099  0.0552  0.1203 -0.1262
  665loPI   C3A10633  11.614  11.495   8.638 -0.3068  0.2358  0.1280
  665loPI   C4A10634  11.508  11.519   8.375  0.1571  0.0489  0.2309
  665loPI   C5A10635  11.158  11.576   8.219  0.0989 -0.0773  0.0939
  665loPI   C6A10636  10.858  11.636   7.939 -0.2400  0.1166 -0.0834
  665loPI   C1B10637  10.976  11.570   9.904  0.2164  0.1423  0.0660
  665loPI   C2B10638  11.023  11.673   9.486  0.0192  0.0197 -0.0419
  665loPI   C3B10639  11.085  11.703   9.116  0.0393  0.0593  0.1047
  665loPI   C4B10640  11.074  11.727   8.696 -0.0414 -0.1445  0.3182
  666loPI    C110641   5.184  14.440  11.502 -0.0836 -0.0334 -0.1200
  666loPI    C210642   5.287  14.778  11.689 -0.2300 -0.0009 -0.0967
  666loPI    C310643   4.922  14.624  11.742 -0.2120 -0.0865 -0.2185
  666loPI   PO410644   5.399  14.517  11.250  0.2222 -0.0620 -0.0922
  666loPI   GL110645   5.401  14.381  10.811  0.1407  0.1980  0.2782
  666loPI   GL210646   5.293  14.649  10.760  0.0635 -0.0565  0.0696
  666loPI   C1A10647   5.415  14.328  10.364 -0.1455 -0.0650 -0.1656
  666loPI   C2A10648   5.480  14.486   9.953  0.1933  0.2301  0.0701
  666loPI   C3A10649   5.411  14.419   9.555  0.2185 -0.1579 -0.0079
  666loPI   C4A10650   5.466  14.452   9.083 -0.0470 -0.1503  0.1660
  666loPI   C5A10651   5.588  14.493   8.548  0.0063 -0.1918 -0.1880
  666loPI   C6A10652   5.355  14.308   8.140 -0.1151  0.0292  0.0466
  666loPI   C1B10653   5.256  14.829  10.299 -0.3130 -0.1598 -0.0871
  666loPI   C2B10654   5.304  14.900   9.793  0.0474 -0.3268  0.0109
  666loPI   C3B10655   5.380  15.017   9.374  0.1248  0.3825  0.0420
  666loPI   C4B10656   5.445  14.974   8.947 -0.2697  0.0808 -0.0821
  667loPI    C110657  10.614   3.072  10.662  0.1371  0.1560  0.0859
  667loPI    C210658  10.722   3.423  10.819 -0.1385  0.2452  0.0817
  667loPI    C310659  10.502   3.167  11.035  0.1610  0.0215  0.1283
  667loPI   PO410660  10.785   3.171  10.378  0.1498 -0.1782  0.1174
  667loPI   GL110661  10.841   3.219   9.992  0.0535  0.1315 -0.0189
  667loPI   GL210662  10.663   3.512   9.938 -0.3863  0.0878  0.0763
  667loPI   C1A10663  10.617   3.176   9.608  0.0237  0.1811 -0.0571
  667loPI   C2A10664  10.600   3.177   9.117 -0.2668 -0.1274 -0.2076
  667loPI   C3A10665  10.629   3.101   8.676  0.0095 -0.1184  0.1494
  667loPI   C4A10666  10.649   3.181   8.249  0.1817 -0.0264  0.4251
  667loPI   C5A10667  10.775   3.406   7.821  0.4017  0.1524  0.2861
  667loPI   C6A10668  10.903   3.616   7.497 -0.3465 -0.1548 -0.0629
  667loPI   C1B10669  10.491   3.642   9.630 -0.1200  0.1026 -0.0672
  667loPI   C2B10670  10.454   3.706   9.125 -0.2242 -0.2010 -0.1437
  667loPI   C3B10671  10.596   3.613   8.593  0.4386  0.0865  0.0365
  667loPI   C4B10672  10.497   3.605   8.160 -0.0745  0.0945 -0.1580
  668loPI    C110673   5.330   3.046  10.990  0.0123  0.0306 -0.0649
  668loPI    C210674   5.177   2.947  11.345  0.2000  0.2617  0.0832
  668loPI    C310675   5.395   2.681  11.141  0.0505  0.1117  0.1162
  668loPI   PO410676   5.250   3.321  10.845 -0.1943 -0.0885 -0.0626
  668loPI   GL110677   5.125   3.400  10.399  0.1946 -0.1756 -0.1238
  668loPI   GL210678   4.916   3.207  10.371  0.0857  0.1755 -0.3806
  668loPI   C1A10679   5.394   3.462  10.040 -0.2150 -0.2183  0.3043
  668loPI   C2A10680   5.439   3.453   9.562  0.2575  0.0289 -0.4287
  668loPI   C3A10681   5.469   3.528   9.147  0.2523  0.1397  0.2817
  668loPI   C4A10682   5.448   3.503   8.657  0.0109 -0.3486 -0.0462
  668loPI   C5A10683   5.279   3.266   8.370 -0.2775  0.0850  0.1305
  668loPI   C6A10684   5.292   2.708   8.488  0.0341 -0.2157  0.0571
  668loPI   C1B10685   4.971   3.117  10.022 -0.1070 -0.1690 -0.1878
  668loPI   C2B10686   4.914   3.074   9.587  0.2080  0.0246 -0.0926
  668loPI   C3B10687   5.069   3.221   9.243 -0.3116  0.1594 -0.0951
  668loPI   C4B10688   5.114   3.173   8.814 -0.3400 -0.2142 -0.1738
  669loPI    C110689  13.705  14.656  10.730 -0.0416  0.1418 -0.0284
  669loPI    C210690  13.552  14.314  10.871  0.0279  0.1914  0.1698
  669loPI    C310691  13.452  14.663  11.040  0.0142  0.2634  0.0146
  669loPI   PO410692  13.723  14.569  10.519  0.0394  0.3159  0.2800
  669loPI   GL110693  13.605  14.400  10.086  0.0380 -0.2481  0.3407
  669loPI   GL210694  13.937  14.535  10.077 -0.0883  0.0635 -0.0011
  669loPI   C1A10695  13.616  14.522   9.634 -0.0815  0.0929  0.0436
  669loPI   C2A10696  13.667  14.462   9.158  0.0230 -0.0945 -0.0149
  669loPI   C3A10697  13.673  14.451   8.738  0.2828  0.0392  0.1322
  669loPI   C4A10698  13.560  14.493   8.302  0.0767 -0.0159 -0.1463
  669loPI   C5A10699  13.673  14.180   7.916 -0.0158  0.0290 -0.0840
  669loPI   C6A10700  13.535  13.761   7.801 -0.1133  0.1373  0.0585
  669loPI   C1B10701  14.125  14.393   9.668  0.2507  0.0867 -0.1285
  669loPI   C2B10702  14.177  14.259   9.199  0.0447  0.1751  0.1294
  669loPI   C3B10703  14.194  14.262   8.786  0.1204  0.1584 -0.3837
  669loPI   C4B10704  14.002  14.269   8.401 -0.2948  0.1516  0.1393
  670loPI    C110705   6.023  14.513  11.443  0.1898  0.0326  0.0316
  670loPI    C210706   6.104  14.148  11.586  0.1322 -0.0262 -0.0844
  670loPI    C310707   5.725  14.273  11.558  0.1357 -0.0574 -0.2863
  670loPI   PO410708   6.217  14.471  11.202 -0.2076  0.1902  0.0450
  670loPI   GL110709   6.050  14.552  10.729 -0.0056  0.0462 -0.1365
  670loPI   GL210710   5.798  14.737  10.609 -0.5042 -0.0810  0.0832
  670loPI   C1A10711   6.319  14.478  10.345 -0.5680  0.0047 -0.0831
  670loPI   C2A10712   6.361  14.543   9.958  0.1165 -0.1067  0.2493
  670loPI   C3A10713   6.266  14.635   9.545  0.0678  0.2950  0.2507
  670loPI   C4A10714   6.316  14.642   9.079  0.2957 -0.1516  0.2990
  670loPI   C5A10715   6.356  14.639   8.694  0.0291  0.1321 -0.1082
  670loPI   C6A10716   6.460  14.971   8.297  0.0547  0.2465  0.0390
  670loPI   C1B10717   5.824  14.777  10.102  0.1259 -0.2463 -0.1432
  670loPI   C2B10718   5.839  14.808   9.688 -0.2766  0.0948  0.0305
  670loPI   C3B10719   5.902  14.836   9.246 -0.0260 -0.1487 -0.1176
  670loPI   C4B10720   5.917  14.872   8.814  0.2968  0.1375  0.0009
  671loPI    C110721  16.783   6.436  10.626  0.1134  0.1214  0.0016
  671loPI    C210722  16.834   6.222  10.960 -0.0437  0.0266 -0.0340
  671loPI    C310723  16.967   6.599  10.942 -0.0760  0.0479  0.1516
  671loPI   PO410724  16.553   6.290  10.520 -0.0345  0.0793 -0.0787
  671loPI   GL110725  16.613   6.327  10.079  0.1399  0.0828 -0.0898
  671loPI   GL210726  16.562   6.661  10.109  0.1221 -0.0981 -0.0715
  671loPI   C1A10727  16.591   6.371   9.683  0.4934 -0.1014 -0.3114
  671loPI   C2A10728  16.580   6.441   9.223  0.1704  0.2923  0.0784
  671loPI   C3A10729  16.523   6.320   8.856  0.3770  0.3136 -0.1740
  671loPI   C4A10730  16.630   6.190   8.457  0.0869 -0.1688 -0.0116
  671loPI   C5A10731  16.491   6.143   7.978 -0.1073  0.0357 -0.0033
  671loPI   C6A10732  16.706   5.971   7.586 -0.0048  0.1119  0.1513
  671loPI   C1B10733  16.606   6.907   9.706 -0.3753 -0.1750 -0.0173
  671loPI   C2B10734  16.383   6.902   9.353  0.0485 -0.0499  0.2658
  671loPI   C3B10735  16.380   6.913   8.853  0.1625 -0.1222  0.0685
  671loPI   C4B10736  16.522   6.817   8.325 -0.2989 -0.1399 -0.0317
  672loPI    C110737  11.553  12.220  10.866 -0.0808 -0.1673  0.1686
  672loPI    C210738  11.792  12.488  11.043 -0.0706 -0.0832  0.0296
  672loPI    C310739  11.600  12.215  11.263 -0.2464  0.1709  0.1961
  672loPI   PO410740  11.782  12.137  10.572  0.2517 -0.1674 -0.0037
  672loPI   GL110741  11.803  11.942  10.213 -0.1808 -0.2303  0.0915
  672loPI   GL210742  12.131  12.151  10.256  0.1086  0.2357  0.0356
  672loPI   C1A10743  11.860  11.792   9.801  0.0065 -0.0693  0.0539
  672loPI   C2A10744  11.911  11.822   9.392  0.2016 -0.3263 -0.0880
  672loPI   C3A10745  11.970  11.750   8.914 -0.1226 -0.1324 -0.3064
  672loPI   C4A10746  11.913  11.857   8.446  0.3057  0.0896 -0.0219
  672loPI   C5A10747  12.013  11.605   8.096  0.1192 -0.3784 -0.2045
  672loPI   C6A10748  12.054  11.907   7.793 -0.3179  0.0203  0.1332
  672loPI   C1B10749  12.295  12.178   9.923 -0.0718 -0.0362  0.0860
  672loPI   C2B10750  12.281  12.066   9.637  0.0114  0.0177  0.2389
  672loPI   C3B10751  12.219  12.150   9.232  0.1407  0.2459  0.1657
  672loPI   C4B10752  12.295  12.166   8.755 -0.1729  0.0979 -0.0598
  673loPI    C110753  17.431   0.819  10.707 -0.0421 -0.1187 -0.0209
  673loPI    C210754  17.814   0.717  10.757 -0.0018  0.0819  0.0890
  673loPI    C310755  17.530   0.536  10.972  0.0212 -0.1274 -0.0537
  673loPI   PO410756  17.301   0.838  10.516 -0.1857 -0.1498  0.0047
  673loPI   GL110757  17.229   1.056  10.149  0.0236  0.0913  0.2073
  673loPI   GL210758  16.999   0.814   9.834 -0.0913  0.4723  0.0273
  673loPI   C1A10759  17.506   1.169   9.739 -0.0019  0.0589 -0.4390
  673loPI   C2A10760  17.514   1.179   9.287 -0.1468  0.0208 -0.2341
  673loPI   C3A10761  17.316   1.090   8.896 -0.0672 -0.0180  0.3335
  673loPI   C4A10762  17.638   1.127   8.536  0.0561  0.1017  0.0304
  673loPI   C5A10763  17.551   1.170   8.139  0.2116  0.0179  0.0002
  673loPI   C6A10764  17.441   1.424   7.783 -0.4899 -0.0392 -0.1960
  673loPI   C1B10765  17.102   0.748   9.445 -0.0746  0.2987  0.0841
  673loPI   C2B10766  17.092   0.625   9.020  0.0871  0.1819  0.2252
  673loPI   C3B10767  17.058   0.713   8.639  0.0758  0.0717 -0.0722
  673loPI   C4B10768  17.180   0.824   8.271  0.0635  0.0200  0.0685
  674loPI    C110769  11.405   6.217  10.719  0.2558 -0.1410 -0.0321
  674loPI    C210770  11.488   6.059  11.076  0.3294  0.3013  0.1535
  674loPI    C310771  11.390   6.446  11.047 -0.2503  0.1386 -0.2375
  674loPI   PO410772  11.544   6.011  10.582  0.0039  0.2821 -0.1108
  674loPI   GL110773  11.429   5.842  10.153 -0.1255  0.0001  0.0877
  674loPI   GL210774  11.278   5.577   9.959  0.0309 -0.0868 -0.0115
  674loPI   C1A10775  11.427   6.152   9.773 -0.3072 -0.0274  0.1234
  674loPI   C2A10776  11.339   6.175   9.339 -0.2387 -0.2038 -0.0543
  674loPI   C3A10777  11.480   6.197   8.871 -0.0397  0.2418 -0.0561
  674loPI   C4A10778  11.451   6.128   8.428 -0.1778  0.1112 -0.0193
  674loPI   C5A10779  11.504   6.194   7.968  0.0071 -0.0616  0.2861
  674loPI   C6A10780  11.944   6.082   7.705  0.2993 -0.5137 -0.1836
  674loPI   C1B10781  11.411   5.695   9.541 -0.0499 -0.2813  0.1432
  674loPI   C2B10782  11.482   5.725   9.175 -0.0796  0.1095 -0.2778
  674loPI   C3B10783  11.438   5.678   8.793 -0.0457 -0.0255  0.2304
  674loPI   C4B10784  11.542   5.656   8.331 -0.0090  0.1165 -0.0988
  675loPI    C110785   6.583  15.994  11.156 -0.0285  0.0358 -0.3623
  675loPI    C210786   6.628  16.371  11.283 -0.1501 -0.0643 -0.0086
  675loPI    C310787   6.944  16.127  11.266 -0.1146 -0.0191  0.0001
  675loPI   PO410788   6.484  16.012  10.930 -0.0800  0.0394  0.0830
  675loPI   GL110789   6.462  15.750  10.557 -0.1499 -0.0449 -0.0585
  675loPI   GL210790   6.160  15.799  10.675 -0.0709 -0.2495  0.1001
  675loPI   C1A10791   6.461  15.923  10.133  0.3217 -0.0767  0.0151
  675loPI   C2A10792   6.506  16.023   9.696 -0.0142  0.1587 -0.2753
  675loPI   C3A10793   6.441  16.064   9.297  0.0565  0.1338  0.1400
  675loPI   C4A10794   6.581  16.021   8.942 -0.1520  0.0178  0.2052
  675loPI   C5A10795   6.655  15.967   8.501 -0.1729  0.3410  0.0965
  675loPI   C6A10796   6.518  15.920   8.122 -0.0341 -0.2462 -0.0210
  675loPI   C1B10797   6.102  15.566  10.310 -0.2904  0.3066  0.0622
  675loPI   C2B10798   6.116  15.602   9.872 -0.0773  0.0127  0.0959
  675loPI   C3B10799   6.137  15.685   9.495  0.0306 -0.1663 -0.2675
  675loPI   C4B10800   6.167  15.678   9.026  0.3445  0.0327 -0.2225
  676loPI    C110801  16.685  13.752  11.326 -0.0261 -0.3622 -0.0319
  676loPI    C210802  16.442  13.963  11.563  0.0871  0.0024 -0.2324
  676loPI    C310803  16.575  13.605  11.682 -0.0193  0.0886  0.1632
  676loPI   PO410804  16.900  13.915  11.196 -0.2698 -0.0354  0.2652
  676loPI   GL110805  17.115  13.854  10.693  0.0024  0.1394  0.3048
  676loPI   GL210806  16.801  13.926  10.645  0.1385 -0.1919 -0.0731
  676loPI   C1A10807  17.140  13.810  10.288 -0.3325 -0.1403  0.1131
  676loPI   C2A10808  16.968  13.780   9.871  0.3553 -0.0350  0.3275
  676loPI   C3A10809  16.990  13.909   9.486 -0.0485 -0.1553 -0.1184
  676loPI   C4A10810  17.048  13.812   9.011 -0.0742 -0.1696 -0.0749
  676loPI   C5A10811  17.152  13.843   8.591 -0.1273  0.2469 -0.0012
  676loPI   C6A10812  17.349  13.515   8.388 -0.1383  0.3123  0.2306
  676loPI   C1B10813  16.606  13.969  10.238 -0.0754  0.3261  0.1860
  676loPI   C2B10814  16.564  13.995   9.774  0.3211 -0.0703  0.1046
  676loPI   C3B10815  16.499  13.958   9.340 -0.0261  0.0379  0.0246
  676loPI   C4B10816  16.568  13.956   8.826 -0.0402 -0.0587 -0.2369
  677PSPI    C110817   7.834   9.492   5.446  0.1301  0.0853  0.1906
  677PSPI    C210818   8.107   9.759   5.567  0.1872  0.1834 -0.1457
  677PSPI    C310819   8.220   9.388   5.469  0.1874  0.1971 -0.1974
  677PSPI   PO410820   7.584   9.595   5.660  0.3702  0.1183 -0.0953
  677PSPI   GL110821   7.512   9.579   6.098  0.2111 -0.1761 -0.0363
  677PSPI   GL210822   7.313   9.448   6.279  0.1427  0.0971 -0.1796
  677PSPI   C1A10823   7.663   9.648   6.565 -0.0395  0.0108  0.2262
  677PSPI   C2A10824   7.658   9.761   6.950  0.1689 -0.0616 -0.2893
  677PSPI   C3A10825   7.491   9.519   7.248 -0.0919  0.0675  0.0827
  677PSPI   C4A10826   7.451   9.559   7.735  0.0844  0.0501 -0.1280
  677PSPI   C1B10827   7.188   9.575   6.626  0.0340  0.4053 -0.0057
  677PSPI   C2B10828   7.024   9.603   7.029 -0.1744 -0.1078 -0.0152
  677PSPI   C3B10829   6.990   9.487   7.514 -0.0320  0.3399 -0.1084
  677PSPI   C4B10830   6.991   9.772   7.862 -0.2330  0.0664 -0.1810
  678PSPI    C110831  16.367  12.238   6.088  0.0542 -0.0774 -0.0766
  678PSPI    C210832  16.545  12.197   5.732  0.1392  0.1158 -0.0582
  678PSPI    C310833  16.190  12.381   5.758  0.1204  0.0780 -0.0457
  678PSPI   PO410834  16.248  11.937   6.187 -0.2432 -0.1293  0.1566
  678PSPI   GL110835  16.394  11.687   6.459  0.2052 -0.1988  0.0071
  678PSPI   GL210836  16.641  11.537   6.390 -0.2380  0.2605 -0.0466
  678PSPI   C1A10837  16.314  11.303   6.754  0.2394  0.2090 -0.0283
  678PSPI   C2A10838  16.254  11.226   7.186  0.1898  0.1450  0.3690
  678PSPI   C3A10839  16.249  10.905   7.535  0.3105 -0.0820  0.1588
  678PSPI   C4A10840  16.202  10.494   7.621  0.1060  0.0248  0.1630
  678PSPI   C1B10841  16.844  11.284   6.761 -0.0437 -0.3271  0.0781
  678PSPI   C2B10842  16.802  11.196   7.155  0.1364 -0.0144  0.0188
  678PSPI   C3B10843  16.681  11.196   7.624  0.0833 -0.2275 -0.1665
  678PSPI   C4B10844  16.871  11.238   8.088  0.1217  0.2639 -0.2604
  679PSPI    C110845  15.769  13.320   5.785 -0.1293 -0.1994 -0.1886
  679PSPI    C210846  16.018  13.203   5.494 -0.1447 -0.0945 -0.2443
  679PSPI    C310847  15.672  13.011   5.550 -0.0812 -0.1993 -0.2088
  679PSPI   PO410848  15.898  13.295   6.063 -0.0871 -0.2675 -0.1289
  679PSPI   GL110849  15.773  13.310   6.469 -0.1846 -0.0075 -0.0606
  679PSPI   GL210850  15.445  13.310   6.585 -0.0350  0.0060 -0.0677
  679PSPI   C1A10851  16.021  13.181   6.839 -0.2078 -0.0098  0.3721
  679PSPI   C2A10852  15.977  12.997   7.264  0.2592 -0.1255  0.1917
  679PSPI   C3A10853  15.627  12.697   7.480  0.0408 -0.0200  0.0021
  679PSPI   C4A10854  15.227  12.597   7.341  0.1471 -0.2723  0.3149
  679PSPI   C1B10855  15.555  13.248   7.000  0.1786  0.0088 -0.1976
  679PSPI   C2B10856  15.364  13.161   7.378 -0.1920  0.0194  0.1372
  679PSPI   C3B10857  15.448  13.265   7.836  0.2011 -0.2231 -0.6211
  679PSPI   C4B10858  15.449  13.470   8.174  0.1279 -0.0255  0.0101
  680PSPI    C110859  14.467  16.234   5.385  0.0468 -0.0152  0.0935
  680PSPI    C210860  14.353  16.394   5.037  0.3686 -0.0281 -0.0212
  680PSPI    C310861  14.225  16.029   5.140  0.3909 -0.0863 -0.1954
  680PSPI   PO410862  14.471  16.397   5.563 -0.4022 -0.2512  0.0785
  680PSPI   GL110863  14.631  16.364   5.975 -0.1004 -0.3631 -0.2755
  680PSPI   GL210864  14.551  16.102   6.141  0.2690  0.0014 -0.0596
  680PSPI   C1A10865  14.681  16.500   6.451  0.0048  0.1594 -0.0226
  680PSPI   C2A10866  14.797  16.375   6.895  0.1169  0.0774  0.0877
  680PSPI   C3A10867  14.882  16.064   7.248  0.1692 -0.2364  0.0367
  680PSPI   C4A10868  14.746  15.912   7.611  0.1559  0.0106 -0.0774
  680PSPI   C1B10869  14.444  15.948   6.500  0.2175  0.1478  0.0234
  680PSPI   C2B10870  14.490  15.907   6.886 -0.2942  0.1460  0.0605
  680PSPI   C3B10871  14.383  15.911   7.241 -0.0336 -0.0517 -0.3669
  680PSPI   C4B10872  14.191  15.875   7.647  0.0957  0.0526 -0.1145
  681PSPI    C110873   6.218   6.936   5.597 -0.1804 -0.0347  0.0812
  681PSPI    C210874   6.056   7.254   5.417 -0.3625  0.0135  0.3241
  681PSPI    C310875   6.095   6.909   5.217  0.1216  0.2676 -0.0427
  681PSPI   PO410876   6.032   7.045   5.881 -0.2553  0.0299  0.1917
  681PSPI   GL110877   6.044   7.153   6.361 -0.2348  0.2904 -0.0512
  681PSPI   GL210878   6.330   6.915   6.464  0.2869  0.1897 -0.0912
  681PSPI   C1A10879   5.881   6.968   6.712  0.1263  0.1059  0.3076
  681PSPI   C2A10880   5.960   7.150   7.095  0.1754  0.2636  0.1310
  681PSPI   C3A10881   6.280   7.083   7.326 -0.1184  0.0575 -0.1190
  681PSPI   C4A10882   6.450   7.511   7.328  0.0736 -0.5225  0.2991
  681PSPI   C1B10883   6.263   6.800   6.918 -0.2151 -0.0035 -0.2301
  681PSPI   C2B10884   6.354   6.610   7.291 -0.1281 -0.1032 -0.0837
  681PSPI   C3B10885   6.160   6.543   7.737 -0.0760  0.3079 -0.0287
  681PSPI   C4B10886   6.334   6.360   8.062  0.2009  0.0414 -0.2175
  682PSPI    C110887   5.449  16.757   5.961 -0.0849  0.0542  0.0879
  682PSPI    C210888   5.089  16.901   5.863 -0.1048 -0.0543 -0.0007
  682PSPI    C310889   5.320  16.733   5.583  0.0888  0.1714  0.0204
  682PSPI   PO410890   5.552  16.917   6.178 -0.1506  0.1934 -0.1836
  682PSPI   GL110891   5.876  16.850   6.445 -0.2476 -0.1697 -0.0938
  682PSPI   GL210892   6.222  16.696   6.410 -0.3285  0.0141 -0.1312
  682PSPI   C1A10893   5.790  16.784   6.894  0.1392  0.0588 -0.3757
  682PSPI   C2A10894   5.448  16.761   7.240 -0.0146  0.0254 -0.0461
  682PSPI   C3A10895   5.522  16.652   7.693  0.2747  0.2506  0.0480
  682PSPI   C4A10896   5.586  16.858   8.003  0.1246 -0.2073 -0.0025
  682PSPI   C1B10897   6.281  16.734   6.853  0.3364  0.0721  0.2974
  682PSPI   C2B10898   6.327  16.662   7.295 -0.1360  0.0818  0.1992
  682PSPI   C3B10899   6.534  16.640   7.798  0.1299 -0.2343  0.1177
  682PSPI   C4B10900   6.357  16.426   8.127 -0.1210 -0.2700 -0.1023
  683PSPI    C110901  13.712   1.589   5.376 -0.0385 -0.1851  0.2295
  683PSPI    C210902  13.576   1.279   5.164  0.1016 -0.1823  0.1342
  683PSPI    C310903  13.936   1.434   5.083 -0.1183  0.2381 -0.0642
  683PSPI   PO410904  13.631   1.482   5.684  0.1416 -0.3501 -0.1221
  683PSPI   GL110905  13.832   1.199   5.948  0.0454  0.2005  0.0268
  683PSPI   GL210906  13.749   0.880   6.290 -0.2538  0.2258  0.0857
  683PSPI   C1A10907  13.734   1.378   6.388 -0.0535  0.0622  0.2400
  683PSPI   C2A10908  13.598   1.463   6.769  0.0204  0.2490 -0.2774
  683PSPI   C3A10909  13.108   1.561   6.807  0.1005  0.1531 -0.5489
  683PSPI   C4A10910  12.647   1.638   6.893 -0.4212 -0.0518 -0.1368
  683PSPI   C1B10911  13.725   0.673   6.678 -0.2112  0.2983  0.0692
  683PSPI   C2B10912  13.648   0.518   7.083  0.0529 -0.1323  0.1250
  683PSPI   C3B10913  13.284   0.562   7.308  0.2138 -0.2386  0.0535
  683PSPI   C4B10914  13.203   0.841   7.683  0.0422  0.1929  0.3626
  684PSPI    C110915   1.123   7.850   6.046  0.0884  0.0141 -0.1307
  684PSPI    C210916   0.816   7.990   5.832 -0.0958 -0.2520 -0.0464
  684PSPI    C310917   0.759   7.875   6.211  0.1375 -0.1826  0.0112
  684PSPI   PO410918   1.409   7.805   5.878 -0.3235  0.0448  0.0260
  684PSPI   GL110919   1.556   7.774   6.317 -0.1370  0.1607 -0.2996
  684PSPI   GL210920   1.678   7.427   6.357  0.0604  0.0608  0.2811
  684PSPI   C1A10921   1.466   7.812   6.784 -0.0767 -0.1654 -0.1355
  684PSPI   C2A10922   1.503   7.707   7.276  0.0022 -0.0377 -0.0300
  684PSPI   C3A10923   1.672   7.803   7.550  0.1140  0.0417 -0.0251
  684PSPI   C4A10924   2.055   7.986   7.786 -0.1003 -0.2855 -0.2362
  684PSPI   C1B10925   1.789   7.397   6.842  0.1265 -0.3131 -0.0827
  684PSPI   C2B10926   1.729   7.250   7.296  0.2080 -0.0084  0.0621
  684PSPI   C3B10927   1.460   7.381   7.660 -0.0392  0.2110 -0.1113
  684PSPI   C4B10928   1.272   7.493   8.120 -0.3509 -0.0653 -0.1198
  685PSPI    C110929  14.939  12.229   5.801  0.0578  0.0305 -0.0946
  685PSPI    C210930  14.923  11.932   5.534 -0.2369  0.2325 -0.3089
  685PSPI    C310931  15.195  12.222   5.493 -0.0071  0.0437 -0.1492
  685PSPI   PO410932  14.750  12.333   5.836 -0.1954  0.0780 -0.0515
  685PSPI   GL110933  14.660  12.488   6.311 -0.1831 -0.0607 -0.2013
  685PSPI   GL210934  14.443  12.248   6.566 -0.0910 -0.0395  0.0912
  685PSPI   C1A10935  14.724  12.633   6.689 -0.0479  0.0149 -0.0757
  685PSPI   C2A10936  14.710  12.640   7.078 -0.1244 -0.1194 -0.2924
  685PSPI   C3A10937  14.769  12.571   7.529 -0.0770  0.2511  0.0422
  685PSPI   C4A10938  14.625  12.317   7.849 -0.0841 -0.0540  0.0255
  685PSPI   C1B10939  14.317  12.451   6.939  0.1459  0.3374  0.2866
  685PSPI   C2B10940  14.293  12.393   7.360 -0.2727 -0.1223  0.1399
  685PSPI   C3B10941  14.227  12.637   7.717 -0.0280 -0.0588 -0.0283
  685PSPI   C4B10942  13.925  12.730   8.140 -0.1055  0.0368  0.0829
  686PSPI    C110943  16.989  14.530   5.845  0.0183  0.1294  0.0296
  686PSPI    C210944  16.906  14.243   5.579  0.0213  0.1491  0.0074
  686PSPI    C310945  16.945  14.623   5.459  0.4077  0.1024 -0.0255
  686PSPI   PO410946  16.809  14.473   6.016 -0.0996  0.0851  0.0013
  686PSPI   GL110947  16.671  14.384   6.538 -0.0587 -0.1367 -0.1900
  686PSPI   GL210948  16.943  14.365   6.708 -0.1102 -0.1752 -0.0176
  686PSPI   C1A10949  16.354  14.393   6.910 -0.0664  0.1606  0.1368
  686PSPI   C2A10950  16.252  14.451   7.359  0.1733  0.0545 -0.1574
  686PSPI   C3A10951  16.240  14.242   7.747  0.2730  0.1790 -0.2190
  686PSPI   C4A10952  16.297  13.975   8.119  0.1722 -0.2875 -0.3269
  686PSPI   C1B10953  16.812  14.517   7.137 -0.3359 -0.0228 -0.2988
  686PSPI   C2B10954  16.825  14.406   7.614 -0.0246  0.0081 -0.1510
  686PSPI   C3B10955  16.800  14.307   8.077  0.2762 -0.2204  0.0991
  686PSPI   C4B10956  16.720  14.383   8.388 -0.0239 -0.2184 -0.1747
  687PSPI    C110957   1.621   3.769   5.818 -0.3344  0.1969 -0.0529
  687PSPI    C210958   1.804   3.825   6.169  0.0682 -0.0645 -0.2147
  687PSPI    C310959   1.782   4.124   5.905 -0.2615  0.1418  0.0390
  687PSPI   PO410960   1.310   3.618   5.860  0.0422  0.2821  0.1987
  687PSPI   GL110961   1.193   3.348   6.147 -0.0724  0.3141 -0.0133
  687PSPI   GL210962   1.100   3.031   6.097 -0.4571  0.0594  0.0085
  687PSPI   C1A10963   1.214   3.529   6.588 -0.1318 -0.0781 -0.0052
  687PSPI   C2A10964   1.254   3.559   7.067 -0.1677  0.0586  0.2535
  687PSPI   C3A10965   1.442   3.505   7.455 -0.1422  0.0969  0.4288
  687PSPI   C4A10966   1.473   3.712   7.783  0.0933 -0.0208 -0.2610
  687PSPI   C1B10967   0.840   3.190   6.422 -0.2523 -0.0753 -0.0772
  687PSPI   C2B10968   0.750   3.161   6.817 -0.0582  0.0670  0.2325
  687PSPI   C3B10969   0.906   3.221   7.160 -0.1481 -0.0645 -0.2067
  687PSPI   C4B10970   1.269   3.092   7.346  0.2789  0.1204  0.0802
  688PSPI    C110971  12.807  14.987   5.131  0.4311  0.0341  0.1959
  688PSPI    C210972  13.015  15.227   4.887  0.1566 -0.0421 -0.1215
  688PSPI    C310973  12.642  15.325   4.993  0.0523 -0.3133 -0.2314
  688PSPI   PO410974  12.814  14.945   5.348  0.0922  0.1746  0.3327
  688PSPI   GL110975  12.639  14.965   5.839 -0.1101 -0.0821  0.2709
  688PSPI   GL210976  12.577  14.646   5.757 -0.2110 -0.1980  0.0099
  688PSPI   C1A10977  12.894  15.063   6.234 -0.0614 -0.0784  0.0774
  688PSPI   C2A10978  12.943  15.273   6.595 -0.5452  0.1927  0.0872
  688PSPI   C3A10979  12.691  15.506   6.943 -0.3373 -0.2137  0.2738
  688PSPI   C4A10980  12.870  15.815   7.163  0.0545 -0.1518 -0.3306
  688PSPI   C1B10981  12.438  14.480   6.171  0.2462  0.2648 -0.1883
  688PSPI   C2B10982  12.370  14.342   6.599  0.0934 -0.1154 -0.3266
  688PSPI   C3B10983  12.243  14.195   7.050 -0.0287 -0.3639 -0.0095
  688PSPI   C4B10984  11.924  13.922   7.103 -0.1155  0.1246 -0.1639
  689PSPI    C110985   9.799  11.902   5.698  0.1166 -0.0489  0.1311
  689PSPI    C210986  10.039  11.662   5.486  0.0649  0.1232 -0.1270
  689PSPI    C310987   9.642  11.634   5.447  0.0519  0.0925  0.0192
  689PSPI   PO410988   9.938  11.931   5.922 -0.0306 -0.1178  0.1363
  689PSPI   GL110989   9.739  11.842   6.321 -0.3417  0.0637 -0.1512
  689PSPI   GL210990  10.056  11.943   6.435 -0.2567 -0.2156 -0.1355
  689PSPI   C1A10991   9.653  11.887   6.787 -0.0993 -0.0572  0.0438
  689PSPI   C2A10992   9.475  12.045   7.218  0.1694 -0.0556  0.1424
  689PSPI   C3A10993   9.276  12.241   7.577  0.0548 -0.0279 -0.2184
  689PSPI   C4A10994   9.078  12.656   7.571 -0.1362 -0.1465  0.1407
  689PSPI   C1B10995  10.111  12.009   6.828 -0.0539  0.0711 -0.3945
  689PSPI   C2B10996   9.935  12.123   7.156  0.2892  0.1698  0.4402
  689PSPI   C3B10997   9.786  12.287   7.551  0.1077  0.0014 -0.1640
  689PSPI   C4B10998   9.957  12.311   7.882 -0.1693 -0.1476 -0.3010
  690PSPI    C110999   3.522  15.310   5.849  0.2775 -0.0661  0.1113
  690PSPI    C211000   3.597  15.554   5.540  0.2127  0.0395  0.1784
  690PSPI    C311001   3.383  15.220   5.485  0.1494  0.0894  0.1206
  690PSPI   PO411002   3.458  15.531   6.016 -0.0016 -0.1021 -0.1475
  690PSPI   GL111003   3.808  15.584   6.267  0.1573 -0.2565  0.0465
  690PSPI   GL211004   3.671  15.393   6.551 -0.2216 -0.1627 -0.1438
  690PSPI   C1A11005   3.755  15.813   6.732  0.1063  0.2381 -0.1218
  690PSPI   C2A11006   3.890  15.908   7.097 -0.1764 -0.0156  0.1490
  690PSPI   C3A11007   3.908  15.836   7.531 -0.0139 -0.0723  0.1079
  690PSPI   C4A11008   3.978  15.526   7.782  0.0182 -0.1149  0.0396
  690PSPI   C1B11009   3.529  15.403   6.964  0.0612  0.0773 -0.1261
  690PSPI   C2B11010   3.390  15.585   7.317  0.0611  0.0346  0.3047
  690PSPI   C3B11011   3.469  15.609   7.746 -0.1827 -0.2851  0.4134
  690PSPI   C4B11012   3.183  15.586   8.103  0.0475  0.1439  0.1481
  691PSPI    C111013  15.455  16.412   5.410  0.2138  0.3834  0.1178
  691PSPI    C211014  15.748  16.192   5.249  0.0814  0.1966  0.1279
  691PSPI    C311015  15.701  16.574   5.140  0.1670  0.1528 -0.0676
  691PSPI   PO411016  15.439  16.319   5.710 -0.3027  0.2325  0.0135
  691PSPI   GL111017  15.119  16.352   6.049  0.2539 -0.0126  0.1431
  691PSPI   GL211018  15.360  16.364   6.238  0.1025 -0.1752 -0.2224
  691PSPI   C1A11019  14.995  16.090   6.287 -0.0262  0.3494  0.0195
  691PSPI   C2A11020  14.929  15.844   6.684  0.3024  0.1845 -0.1824
  691PSPI   C3A11021  14.860  15.578   7.114  0.0564 -0.0739  0.2215
  691PSPI   C4A11022  14.589  15.489   7.357 -0.2055  0.1304  0.3490
  691PSPI   C1B11023  15.188  16.348   6.670 -0.0968  0.0941 -0.1043
  691PSPI   C2B11024  15.275  16.503   7.102  0.0847  0.0762 -0.0677
  691PSPI   C3B11025  15.189  16.287   7.520  0.5592 -0.0279  0.0168
  691PSPI   C4B11026  15.028  16.369   7.980  0.0067  0.0956  0.2550
  692PSPI    C111027  10.433   4.850   5.592  0.0087 -0.1988  0.0270
  692PSPI    C211028  10.153   4.787   5.870 -0.1786  0.2351 -0.0546
  692PSPI    C311029  10.061   4.749   5.483 -0.0427  0.0906 -0.0737
  692PSPI   PO411030  10.609   5.133   5.728  0.2923  0.0328 -0.3230
  692PSPI   GL111031  10.341   5.213   6.120 -0.0724  0.1559  0.1188
  692PSPI   GL211032   9.965   5.236   6.062 -0.1473  0.1509  0.1425
  692PSPI   C1A11033  10.236   5.232   6.509  0.1934 -0.0194 -0.0531
  692PSPI   C2A11034  10.323   5.399   6.874  0.0335  0.0038  0.0322
  692PSPI   C3A11035  10.250   5.556   7.313 -0.0526 -0.0668  0.1199
  692PSPI   C4A11036  10.154   6.023   7.512 -0.2354  0.0756  0.0312
  692PSPI   C1B11037   9.860   4.957   6.423 -0.1430  0.0033  0.1184
  692PSPI   C2B11038  10.008   4.888   6.760 -0.0656  0.3009 -0.2213
  692PSPI   C3B11039  10.167   4.876   7.202  0.1893 -0.0826  0.0348
  692PSPI   C4B11040  10.328   4.826   7.678  0.1479  0.3159  0.1340
  693PSPI    C111041   7.395   9.102   5.335 -0.0566  0.1754 -0.1827
  693PSPI    C211042   7.436   9.450   5.143 -0.0465  0.2129 -0.1131
  693PSPI    C311043   7.166   9.183   5.018 -0.3095  0.3964  0.0511
  693PSPI   PO411044   7.688   9.041   5.412  0.0795 -0.2774 -0.0065
  693PSPI   GL111045   7.886   9.248   5.901  0.0408  0.1298 -0.3040
  693PSPI   GL211046   7.756   9.164   6.271  0.0684 -0.0591  0.0947
  693PSPI   C1A11047   8.016   9.635   6.108 -0.3879  0.0834 -0.0921
  693PSPI   C2A11048   8.147   9.751   6.520  0.0166  0.2088 -0.0027
  693PSPI   C3A11049   8.492   9.968   6.603  0.0417 -0.2160 -0.1762
  693PSPI   C4A11050   8.677  10.239   6.909  0.2081  0.1698 -0.2662
  693PSPI   C1B11051   7.516   9.165   6.635  0.1242 -0.1967 -0.1341
  693PSPI   C2B11052   7.410   9.120   6.961  0.2357 -0.1950 -0.0486
  693PSPI   C3B11053   7.278   9.154   7.437  0.2845 -0.0672  0.0788
  693PSPI   C4B11054   7.289   9.101   7.999 -0.0953 -0.1675  0.3460
  694PSPI    C111055   5.488   4.548   5.890  0.0277  0.3380 -0.0374
  694PSPI    C211056   5.819   4.326   5.868 -0.1720  0.0163  0.1262
  694PSPI    C311057   5.484   4.203   5.688 -0.2255  0.3006  0.0275
  694PSPI   PO411058   5.547   4.700   6.111 -0.1702 -0.1799  0.1989
  694PSPI   GL111059   5.514   4.763   6.461 -0.2565 -0.2927 -0.2142
  694PSPI   GL211060   5.635   4.675   6.705 -0.2060  0.2428  0.3716
  694PSPI   C1A11061   5.198   5.007   6.574 -0.0025 -0.0577 -0.0419
  694PSPI   C2A11062   4.770   5.003   6.888  0.0072 -0.0493 -0.0424
  694PSPI   C3A11063   4.718   5.090   7.256  0.0946  0.1915  0.0451
  694PSPI   C4A11064   4.523   5.008   7.588  0.0295 -0.5780 -0.2656
  694PSPI   C1B11065   5.696   4.904   7.002 -0.3292 -0.2234 -0.1214
  694PSPI   C2B11066   5.543   4.810   7.357  0.1450 -0.3257  0.0069
  694PSPI   C3B11067   5.244   4.911   7.740  0.2072  0.0892  0.2246
  694PSPI   C4B11068   5.179   4.497   7.929  0.2373  0.0286 -0.1683
  695PSPI    C111069   0.168   7.665   5.812  0.0483 -0.0206 -0.1761
  695PSPI    C211070  -0.093   7.393   5.679  0.0240 -0.1882  0.2011
  695PSPI    C311071  -0.031   7.729   5.471 -0.1002 -0.3842 -0.1621
  695PSPI   PO411072   0.503   7.556   5.899  0.3074 -0.1592  0.0852
  695PSPI   GL111073   0.491   7.452   6.308  0.3125  0.0733  0.1946
  695PSPI   GL211074   0.246   7.521   6.368 -0.3193  0.1670 -0.1432
  695PSPI   C1A11075   0.787   7.561   6.684 -0.1150 -0.1442  0.0419
  695PSPI   C2A11076   0.903   7.557   7.101  0.2629  0.1975 -0.0081
  695PSPI   C3A11077   1.026   7.615   7.479 -0.3059 -0.1201  0.1755
  695PSPI   C4A11078   1.263   7.868   7.791 -0.0394  0.0670 -0.1128
  695PSPI   C1B11079   0.343   7.356   6.777  0.1881  0.3057 -0.1256
  695PSPI   C2B11080   0.399   7.468   7.217 -0.1220 -0.1981  0.5257
  695PSPI   C3B11081   0.501   7.667   7.528  0.4673  0.1025  0.0115
  695PSPI   C4B11082   0.640   8.073   7.555  0.1040 -0.1371 -0.1213
  696PSPI    C111083   0.819  17.229   5.918 -0.2409 -0.2125 -0.1171
  696PSPI    C211084   1.032  17.234   5.579 -0.0305  0.1835  0.0149
  696PSPI    C311085   1.169  17.036   5.899 -0.0736  0.0763 -0.0328
  696PSPI   PO411086   0.753  17.481   5.932 -0.0072  0.1559 -0.0682
  696PSPI   GL111087   0.912  17.763   6.235  0.0117 -0.1295 -0.0558
  696PSPI   GL211088   1.186  18.024   6.165  0.0910 -0.0890 -0.1508
  696PSPI   C1A11089   0.634  17.717   6.512 -0.0087  0.1693 -0.0791
  696PSPI   C2A11090   0.397  17.860   6.833 -0.3155 -0.0765 -0.0251
  696PSPI   C3A11091   0.153  17.940   7.184 -0.1614 -0.0140  0.0156
  696PSPI   C4A11092  -0.093  17.753   7.490  0.1202  0.2740 -0.2888
  696PSPI   C1B11093   1.168  17.887   6.610  0.1444 -0.1071  0.1565
  696PSPI   C2B11094   0.841  17.733   6.953  0.0095 -0.2089 -0.1969
  696PSPI   C3B11095   0.481  17.567   7.257 -0.0760 -0.0011 -0.0724
  696PSPI   C4B11096   0.428  17.565   7.748  0.2119  0.1394  0.3686
  697POPI    C111097   4.665  17.167   5.991  0.1078  0.1959  0.0744
  697POPI    C211098   4.486  17.365   5.693  0.1816  0.0343 -0.0793
  697POPI    C311099   4.642  17.003   5.627  0.0299 -0.0864  0.2039
  697POPI   PO411100   4.742  17.375   6.137 -0.2214 -0.0681  0.3271
  697POPI   GL111101   4.918  17.356   6.571  0.4369  0.1309 -0.0315
  697POPI   GL211102   5.126  17.592   6.776  0.0139 -0.1046 -0.1792
  697POPI   C1A11103   4.685  17.100   6.776  0.0185 -0.1709 -0.1728
  697POPI   D2A11104   4.580  16.754   7.086 -0.1905  0.0603 -0.1141
  697POPI   C3A11105   4.529  16.882   7.537  0.1724  0.0375  0.3383
  697POPI   C4A11106   4.231  17.194   7.729 -0.0846  0.1120 -0.2415
  697POPI   C1B11107   4.798  17.550   7.037  0.1027 -0.2025  0.0895
  697POPI   C2B11108   4.406  17.810   6.982  0.0328 -0.2665 -0.2355
  697POPI   C3B11109   4.070  17.981   7.115 -0.0558  0.0031  0.1342
  697POPI   C4B11110   3.777  17.835   7.451  0.1765  0.0240 -0.0193
  698POPI    C111111  11.970   0.065   5.715  0.2267 -0.0605 -0.0763
  698POPI    C211112  11.743   0.238   5.435 -0.0675  0.0195  0.2048
  698POPI    C311113  11.939   0.463   5.701  0.2384 -0.0549  0.0484
  698POPI   PO411114  11.804  -0.091   5.864  0.1622  0.0841  0.0894
  698POPI   GL111115  11.701  -0.414   6.203  0.1249  0.5550 -0.1511
  698POPI   GL211116  11.416  -0.196   6.163  0.1503  0.1753  0.1579
  698POPI   C1A11117  11.899  -0.160   6.526  0.0362  0.0310 -0.1334
  698POPI   D2A11118  11.997  -0.032   6.951  0.0618  0.0581  0.0973
  698POPI   C3A11119  12.061  -0.147   7.297 -0.2730  0.1801 -0.0325
  698POPI   C4A11120  11.961  -0.001   7.674  0.1318  0.2437  0.0291
  698POPI   C1B11121  11.163  -0.447   6.412 -0.0563 -0.0208  0.0019
  698POPI   C2B11122  11.253  -0.577   6.852  0.2528  0.0857  0.0773
  698POPI   C3B11123  11.157  -0.403   7.148  0.1959 -0.1514  0.0382
  698POPI   C4B11124  11.074  -0.104   7.368  0.1756  0.1014  0.0292
  699POPI    C111125  14.418  13.267   5.590  0.0681 -0.0848 -0.0248
  699POPI    C211126  14.171  12.954   5.555 -0.1216  0.0677 -0.0698
  699POPI    C311127  14.378  13.083   5.237 -0.1683  0.0891 -0.0915
  699POPI   PO411128  14.615  13.221   5.843 -0.1440  0.0742 -0.0812
  699POPI   GL111129  14.543  13.267   6.326 -0.1136 -0.2811 -0.0237
  699POPI   GL211130  14.678  13.029   6.346 -0.3996 -0.0666 -0.1951
  699POPI   C1A11131  14.228  13.402   6.555 -0.0556 -0.1669  0.2822
  699POPI   D2A11132  13.952  13.326   6.932  0.0723 -0.1181 -0.0041
  699POPI   C3A11133  13.821  13.417   7.382  0.2465 -0.3328  0.0582
  699POPI   C4A11134  13.705  13.290   7.795 -0.0229 -0.1144  0.1720
  699POPI   C1B11135  14.779  13.117   6.772  0.0958  0.0207  0.2496
  699POPI   C2B11136  14.479  13.455   7.026  0.2218  0.0903 -0.1374
  699POPI   C3B11137  14.116  13.754   7.265 -0.0560  0.0734 -0.2065
  699POPI   C4B11138  14.340  14.162   7.370 -0.2614 -0.1328 -0.1282
  700POPI    C111139  15.391  12.376   5.926  0.0569 -0.3413 -0.1257
  700POPI    C211140  15.312  12.707   5.717 -0.1000 -0.2319  0.1021
  700POPI    C311141  15.686  12.568   5.738 -0.0346 -0.0740 -0.0013
  700POPI   PO411142  15.296  12.465   6.131  0.1566 -0.0313  0.1593
  700POPI   GL111143  15.502  12.328   6.528  0.1720  0.0722 -0.1603
  700POPI   GL211144  15.666  12.076   6.676 -0.0537 -0.0198  0.2193
  700POPI   C1A11145  15.261  12.597   6.799  0.0406 -0.1998 -0.1133
  700POPI   D2A11146  15.241  12.948   6.908  0.1411  0.0786 -0.0278
  700POPI   C3A11147  14.912  13.078   7.276  0.1119 -0.2956  0.0492
  700POPI   C4A11148  14.991  12.989   7.754  0.0483  0.2470  0.1752
  700POPI   C1B11149  15.403  12.140   7.004 -0.6264  0.0453 -0.0629
  700POPI   C2B11150  15.380  12.185   7.509  0.0686 -0.0024 -0.0568
  700POPI   C3B11151  15.138  12.436   7.795  0.0394 -0.0388  0.4416
  700POPI   C4B11152  14.895  12.678   8.142  0.1988 -0.0250 -0.2973
  701POPI    C111153   8.349   1.177   5.637 -0.0139 -0.0926 -0.0414
  701POPI    C211154   8.115   0.859   5.573  0.2697 -0.3824  0.3110
  701POPI    C311155   8.425   0.931   5.331 -0.0203 -0.1470  0.0004
  701POPI   PO411156   8.418   1.173   5.874  0.0653 -0.3222 -0.1994
  701POPI   GL111157   8.385   1.299   6.286  0.1307  0.2808  0.0209
  701POPI   GL211158   8.022   1.239   6.496  0.1071  0.1284 -0.0827
  701POPI   C1A11159   8.461   1.445   6.645 -0.3679 -0.3071  0.1161
  701POPI   D2A11160   8.343   1.464   7.006  0.0240 -0.1100 -0.0413
  701POPI   C3A11161   8.553   1.769   7.289 -0.2990 -0.0351  0.1174
  701POPI   C4A11162   8.943   1.867   7.434  0.2879 -0.0269  0.2257
  701POPI   C1B11163   7.999   1.091   6.916  0.0345 -0.0624  0.1014
  701POPI   C2B11164   7.834   0.969   7.258  0.2717  0.0834  0.1575
  701POPI   C3B11165   8.060   0.777   7.629  0.2464 -0.2650  0.2944
  701POPI   C4B11166   8.476   0.621   7.663  0.0765  0.0406  0.2333
  702POPI    C111167  17.387   4.927   5.818 -0.2667  0.1752 -0.1443
  702POPI    C211168  17.770   5.028   5.757 -0.2632  0.2123 -0.0609
  702POPI    C311169  17.534   4.943   5.446 -0.1442  0.0317 -0.1032
  702POPI   PO411170  17.373   4.747   5.944  0.1481 -0.0094 -0.0622
  702POPI   GL111171  17.266   4.656   6.371  0.1847 -0.1268 -0.2390
  702POPI   GL211172  17.429   4.297   6.276  0.4024  0.1000 -0.2107
  702POPI   C1A11173  17.407   4.936   6.667  0.2018 -0.2088 -0.3000
  702POPI   D2A11174  17.479   4.964   7.085 -0.0149 -0.0613 -0.0894
  702POPI   C3A11175  17.411   4.738   7.458  0.0084  0.0870  0.1395
  702POPI   C4A11176  17.055   4.496   7.738 -0.0740  0.2094  0.0689
  702POPI   C1B11177  17.250   4.103   6.616 -0.2381 -0.1114 -0.0876
  702POPI   C2B11178  17.022   4.041   7.034 -0.1241  0.0514  0.0360
  702POPI   C3B11179  16.901   4.106   7.420  0.1098 -0.0645  0.1426
  702POPI   C4B11180  17.183   3.940   7.794  0.0997  0.1354 -0.1243
  703POPI    C111181  12.386   6.013   5.162  0.2771 -0.1384  0.1179
  703POPI    C211182  12.108   5.751   5.044  0.1663  0.0018  0.0643
  703POPI    C311183  12.481   5.728   4.898  0.1317 -0.0657 -0.0143
  703POPI   PO411184  12.360   6.048   5.464 -0.2393 -0.0602 -0.2129
  703POPI   GL111185  12.366   5.798   5.842 -0.1120  0.0976 -0.1274
  703POPI   GL211186  12.003   5.672   5.974 -0.1293  0.0346  0.2694
  703POPI   C1A11187  12.470   6.102   6.237  0.0427  0.1508 -0.0314
  703POPI   D2A11188  12.818   6.047   6.497 -0.0797  0.0304  0.0996
  703POPI   C3A11189  12.835   6.155   6.886  0.0758  0.1006 -0.2587
  703POPI   C4A11190  12.740   6.122   7.340 -0.3649 -0.2930  0.0603
  703POPI   C1B11191  11.883   5.929   6.214 -0.0111  0.2599 -0.0449
  703POPI   C2B11192  11.537   5.926   6.458  0.1409 -0.1017 -0.3116
  703POPI   C3B11193  11.466   6.129   6.820  0.3240  0.0941 -0.3042
  703POPI   C4B11194  11.663   6.073   7.116  0.1646  0.0059 -0.1789
  704POPI    C111195   9.012  17.238   6.010 -0.0016  0.0485 -0.0399
  704POPI    C211196   8.679  17.332   5.810 -0.1300 -0.2177  0.0438
  704POPI    C311197   8.990  17.169   5.617 -0.1238 -0.1560  0.0012
  704POPI   PO411198   8.980  17.119   6.256  0.2654  0.4497 -0.3317
  704POPI   GL111199   8.771  17.002   6.585  0.1669  0.2770 -0.1425
  704POPI   GL211200   9.050  16.685   6.570 -0.0068 -0.0409  0.0101
  704POPI   C1A11201   8.478  17.194   6.884  0.0640  0.0496 -0.0585
  704POPI   D2A11202   8.154  16.965   7.194 -0.1710 -0.4863 -0.3572
  704POPI   C3A11203   7.659  16.854   7.077 -0.3131  0.2064  0.0241
  704POPI   C4A11204   7.498  16.948   6.715  0.1283 -0.2732 -0.0821
  704POPI   C1B11205   9.018  16.644   6.984 -0.3284  0.0442 -0.1596
  704POPI   C2B11206   9.298  16.693   7.234  0.1152  0.1449  0.0170
  704POPI   C3B11207   9.486  16.500   7.519  0.2609 -0.0299 -0.1734
  704POPI   C4B11208   9.445  16.088   7.580 -0.3195 -0.1735 -0.2069
  705POPI    C111209  13.040   8.742   5.498 -0.0742 -0.0473 -0.0323
  705POPI    C211210  12.906   9.119   5.490 -0.0347 -0.0358 -0.1552
  705POPI    C311211  13.153   8.987   5.203 -0.0341 -0.1498 -0.1028
  705POPI   PO411212  12.812   8.528   5.652  0.0927  0.0927 -0.2657
  705POPI   GL111213  12.828   8.463   6.148 -0.2639 -0.2801  0.3378
  705POPI   GL211214  12.512   8.642   6.001 -0.0468  0.4235 -0.0699
  705POPI   C1A11215  12.879   8.452   6.539 -0.1195 -0.1377  0.3364
  705POPI   D2A11216  12.982   8.457   6.974 -0.0932  0.0446  0.1933
  705POPI   C3A11217  12.729   8.424   7.224  0.0600 -0.4140 -0.0080
  705POPI   C4A11218  12.562   8.332   7.563  0.1148  0.2034  0.1791
  705POPI   C1B11219  12.537   8.803   6.462  0.2955 -0.3647  0.0061
  705POPI   C2B11220  12.546   8.752   6.829  0.0759  0.0407  0.1462
  705POPI   C3B11221  12.212   8.642   7.063 -0.1855 -0.2319 -0.1461
  705POPI   C4B11222  12.069   8.479   7.440  0.1085  0.3248 -0.1155
  706POPI    C111223  16.609  11.015   5.642  0.1117 -0.0411  0.0162
  706POPI    C211224  16.949  10.929   5.448  0.0323  0.1197 -0.1979
  706POPI    C311225  16.597  10.808   5.300  0.0052 -0.2036  0.1170
  706POPI   PO411226  16.770  11.140   5.904  0.0003 -0.1092  0.0185
  706POPI   GL111227  16.903  11.120   6.281 -0.1489  0.2198 -0.2263
  706POPI   GL211228  17.145  11.177   6.417 -0.0131 -0.2160 -0.2427
  706POPI   C1A11229  16.675  10.843   6.601  0.0109 -0.3426  0.1724
  706POPI   D2A11230  16.435  10.825   6.881  0.0574 -0.2107 -0.1358
  706POPI   C3A11231  16.073  10.680   6.983 -0.0140 -0.0240 -0.0614
  706POPI   C4A11232  15.837  10.372   7.156  0.0307 -0.0783  0.1026
  706POPI   C1B11233  17.271  10.989   6.762  0.0766 -0.2533 -0.1868
  706POPI   C2B11234  17.524  10.748   7.102 -0.2569 -0.1240  0.1530
  706POPI   C3B11235  17.713  10.988   7.477 -0.2056 -0.0534  0.1919
  706POPI   C4B11236  17.775  11.270   7.830 -0.3663  0.2752 -0.5132
  707POPI    C111237   5.815   0.447   6.400  0.0557  0.1474 -0.1735
  707POPI    C211238   6.039   0.145   6.265  0.2890  0.0740  0.3511
  707POPI    C311239   5.656   0.082   6.361  0.1193  0.1272 -0.2472
  707POPI   PO411240   5.873   0.534   6.616  0.2575  0.1769  0.0991
  707POPI   GL111241   6.125   0.533   6.811  0.3626  0.0972 -0.0194
  707POPI   GL211242   6.434   0.579   6.861 -0.1460  0.0272  0.0364
  707POPI   C1A11243   6.073   0.486   7.211  0.0981 -0.0306 -0.0670
  707POPI   D2A11244   5.996   0.543   7.594  0.2958  0.0814  0.2717
  707POPI   C3A11245   6.360   0.509   7.841 -0.0206 -0.0803  0.2777
  707POPI   C4A11246   6.580   0.562   8.214  0.0647 -0.0229  0.3724
  707POPI   C1B11247   6.602   0.537   7.260  0.0502  0.3427 -0.1875
  707POPI   C2B11248   6.938   0.665   7.502  0.0260 -0.0327  0.1596
  707POPI   C3B11249   7.224   0.869   7.820 -0.1017 -0.2617  0.1381
  707POPI   C4B11250   7.684   0.989   7.837  0.2198  0.3698  0.1697
  708POPI    C111251   6.960  11.373   5.840 -0.0803  0.2011 -0.0910
  708POPI    C211252   6.756  11.035   5.778  0.0631  0.0803  0.0840
  708POPI    C311253   6.800  11.299   5.481  0.2370 -0.2105 -0.1552
  708POPI   PO411254   6.907  11.379   6.128  0.1006  0.0302  0.1633
  708POPI   GL111255   7.119  11.369   6.570 -0.2973 -0.0360  0.0710
  708POPI   GL211256   6.960  11.768   6.498 -0.0368 -0.4169 -0.1994
  708POPI   C1A11257   7.176  11.636   6.951 -0.1231  0.1220 -0.2961
  708POPI   D2A11258   6.954  11.674   7.326 -0.0505 -0.2297  0.0542
  708POPI   C3A11259   7.084  11.528   7.774 -0.1500  0.0523  0.0431
  708POPI   C4A11260   7.280  11.423   8.132 -0.0013  0.0130 -0.0092
  708POPI   C1B11261   6.948  12.080   6.859 -0.0973 -0.0607  0.0167
  708POPI   C2B11262   7.086  12.436   7.085  0.0433 -0.0293 -0.0159
  708POPI   C3B11263   7.430  12.477   7.485  0.0958 -0.3092  0.0523
  708POPI   C4B11264   7.330  12.345   7.900  0.0538  0.1380 -0.0277
  709POPI    C111265  15.072   9.023   5.373 -0.0023 -0.0757  0.1911
  709POPI    C211266  15.300   9.349   5.338 -0.0024 -0.0808  0.1430
  709POPI    C311267  15.454   8.988   5.260 -0.0475 -0.0775  0.0379
  709POPI   PO411268  14.899   9.046   5.615  0.0906  0.0894 -0.0723
  709POPI   GL111269  14.978   9.137   6.045 -0.2235 -0.1189 -0.0271
  709POPI   GL211270  15.325   9.184   6.250 -0.1817 -0.0231 -0.0319
  709POPI   C1A11271  14.858   9.483   6.396  0.0703 -0.1175  0.2891
  709POPI   D2A11272  14.790   9.740   6.702  0.1604  0.2389 -0.0594
  709POPI   C3A11273  14.865   9.695   7.102  0.1691  0.2375 -0.2413
  709POPI   C4A11274  14.915  10.039   7.420  0.0701 -0.3655  0.1464
  709POPI   C1B11275  15.223   9.272   6.661 -0.2568 -0.0668  0.2174
  709POPI   C2B11276  15.118   9.227   7.069 -0.0917  0.1156  0.0627
  709POPI   C3B11277  15.059   9.149   7.494 -0.2825  0.0679  0.3108
  709POPI   C4B11278  15.042   8.813   7.643  0.0796 -0.1006  0.1301
  710POPI    C111279   6.366   5.225   5.792  0.1265 -0.1830  0.1073
  710POPI    C211280   6.732   5.208   5.631  0.0668  0.0751 -0.0616
  710POPI    C311281   6.415   5.288   5.400 -0.0934 -0.1111  0.0901
  710POPI   PO411282   6.400   5.259   6.119  0.0052  0.0039  0.2777
  710POPI   GL111283   6.500   5.229   6.505 -0.2034  0.3661  0.0263
  710POPI   GL211284   6.554   4.961   6.592 -0.1818  0.0577 -0.1811
  710POPI   C1A11285   6.597   5.369   6.856 -0.1255 -0.0433 -0.4809
  710POPI   D2A11286   6.598   5.272   7.204 -0.0272 -0.0533 -0.1210
  710POPI   C3A11287   6.817   5.565   7.535 -0.1288  0.0358 -0.0011
  710POPI   C4A11288   6.972   5.904   7.731 -0.0279  0.1230 -0.2667
  710POPI   C1B11289   6.643   4.713   6.939  0.1603  0.1025 -0.2208
  710POPI   C2B11290   6.703   4.541   7.333 -0.3076  0.0498  0.0309
  710POPI   C3B11291   6.680   4.627   7.766  0.3033 -0.0129 -0.0104
  710POPI   C4B11292   6.714   4.527   8.134  0.1447 -0.2891 -0.0333
  711POPI    C111293   2.315   5.674   5.479  0.0286  0.1405 -0.0541
  711POPI    C211294   1.957   5.680   5.300 -0.0120 -0.0638  0.0178
  711POPI    C311295   2.268   5.504   5.120  0.0679  0.1629 -0.0699
  711POPI   PO411296   2.216   5.721   5.796  0.1080 -0.0690  0.1433
  711POPI   GL111297   2.211   5.805   6.287  0.0374  0.1154  0.0817
  711POPI   GL211298   1.877   5.888   6.284  0.1093  0.0962 -0.0643
  711POPI   C1A11299   2.350   5.388   6.511  0.3134 -0.0104  0.3700
  711POPI   D2A11300   2.218   4.994   6.581  0.1961  0.0152 -0.1421
  711POPI   C3A11301   2.056   4.781   6.993 -0.1218 -0.2074  0.3359
  711POPI   C4A11302   2.124   4.796   7.384 -0.1120  0.1030  0.2651
  711POPI   C1B11303   1.883   5.943   6.818 -0.0825 -0.4791  0.0400
  711POPI   C2B11304   1.949   6.234   7.154  0.0031  0.1399 -0.0244
  711POPI   C3B11305   2.159   6.270   7.596 -0.1304  0.0128  0.0332
  711POPI   C4B11306   2.269   6.389   7.957  0.0108  0.0715  0.3482
  712POPI    C111307  14.532  10.160   5.880  0.0612 -0.1087 -0.0714
  712POPI    C211308  14.889   9.989   5.819  0.1924  0.1106  0.0649
  712POPI    C311309  14.734  10.233   5.543  0.2389  0.1705  0.0918
  712POPI   PO411310  14.527  10.326   6.139  0.1366 -0.1041  0.0646
  712POPI   GL111311  14.475  10.097   6.504 -0.0188  0.0411 -0.0084
  712POPI   GL211312  14.166  10.300   6.502  0.1595  0.3213  0.1516
  712POPI   C1A11313  14.621  10.140   6.945  0.0475  0.0194 -0.1028
  712POPI   D2A11314  14.518  10.253   7.374  0.0299 -0.0590  0.0155
  712POPI   C3A11315  14.668   9.993   7.848  0.2119 -0.3280 -0.0416
  712POPI   C4A11316  14.934   9.781   8.137 -0.3071  0.0519 -0.0663
  712POPI   C1B11317  14.096  10.147   6.873  0.2956  0.2863  0.0963
  712POPI   C2B11318  14.103  10.059   7.299  0.2281 -0.0617  0.2535
  712POPI   C3B11319  14.172   9.975   7.744 -0.0480 -0.0592  0.0099
  712POPI   C4B11320  14.406   9.546   7.912 -0.0943  0.1066 -0.0673
  713POPI    C111321   0.091  16.992   5.835  0.2058 -0.1780 -0.0103
  713POPI    C211322  -0.288  16.864   5.816  0.1532 -0.0424  0.1054
  713POPI    C311323  -0.000  16.667   5.620  0.0351 -0.1901  0.0786
  713POPI   PO411324   0.121  17.064   6.106  0.0317  0.0060  0.1193
  713POPI   GL111325   0.491  17.211   6.311 -0.1961 -0.2598  0.0064
  713POPI   GL211326   0.607  17.105   6.554  0.2021  0.0095 -0.4528
  713POPI   C1A11327   0.194  17.438   6.592  0.0040 -0.2515 -0.2310
  713POPI   D2A11328   0.041  17.490   7.003  0.0216  0.1628 -0.3176
  713POPI   C3A11329  -0.272  17.261   7.188 -0.1700 -0.0729 -0.0965
  713POPI   C4A11330  -0.450  17.211   7.498  0.1669  0.1596 -0.0236
  713POPI   C1B11331   0.842  17.213   6.807  0.0222 -0.3065 -0.1500
  713POPI   C2B11332   0.872  17.154   7.298  0.0982  0.1736 -0.0296
  713POPI   C3B11333   0.611  17.095   7.607  0.0454 -0.1095  0.1779
  713POPI   C4B11334   0.574  17.167   8.029  0.0287  0.3416  0.0975
  714POPI    C111335   9.064   5.718   5.548  0.3285 -0.1039  0.0260
  714POPI    C211336   8.973   5.818   5.172  0.0454  0.3069  0.1974
  714POPI    C311337   9.307   5.613   5.249  0.0029  0.0388 -0.2955
  714POPI   PO411338   9.207   5.901   5.684  0.1683  0.0056  0.2927
  714POPI   GL111339   9.411   5.990   6.121  0.0810 -0.3030  0.3103
  714POPI   GL211340   9.365   6.326   6.182  0.3507  0.0255 -0.1304
  714POPI   C1A11341   9.457   5.854   6.580  0.2693  0.1204 -0.2228
  714POPI   D2A11342   9.415   5.662   7.035 -0.0392  0.2500 -0.0224
  714POPI   C3A11343   9.388   5.313   7.324 -0.1223  0.3308  0.2536
  714POPI   C4A11344   9.489   4.904   7.353  0.2035 -0.0059 -0.0568
  714POPI   C1B11345   9.409   6.326   6.631  0.0183 -0.0558 -0.0264
  714POPI   C2B11346   9.377   6.125   6.982  0.0248 -0.1163  0.1348
  714POPI   C3B11347   9.323   6.027   7.408  0.0455  0.0012  0.0549
  714POPI   C4B11348   8.889   6.250   7.612  0.0466 -0.1263 -0.1316
  715POPI    C111349   2.631   7.845   5.526 -0.0165  0.1211 -0.0335
  715POPI    C211350   2.626   8.180   5.309  0.2113  0.0189 -0.2017
  715POPI    C311351   2.623   7.824   5.126 -0.0783 -0.0735 -0.0234
  715POPI   PO411352   2.803   7.904   5.741 -0.0909  0.1484  0.0151
  715POPI   GL111353   3.147   7.714   5.986  0.2033 -0.0698 -0.3425
  715POPI   GL211354   3.168   7.456   6.238 -0.2626 -0.0467 -0.0944
  715POPI   C1A11355   3.177   7.905   6.463 -0.0460 -0.1066  0.1540
  715POPI   D2A11356   2.933   8.036   6.589  0.0149  0.2158  0.0868
  715POPI   C3A11357   2.873   8.046   6.977  0.0173 -0.1173  0.3615
  715POPI   C4A11358   2.672   7.781   7.257  0.0165  0.0352 -0.0895
  715POPI   C1B11359   3.158   7.104   6.612  0.1353 -0.0513 -0.1056
  715POPI   C2B11360   2.677   6.934   6.746  0.0733  0.1070  0.0106
  715POPI   C3B11361   2.241   6.759   6.708 -0.3510 -0.2152  0.2424
  715POPI   C4B11362   1.901   6.478   6.714 -0.1045  0.1833 -0.1616
  716POPI    C111363   6.012   6.149   5.821  0.0310  0.0307  0.0596
  716POPI    C211364   6.387   6.184   5.684 -0.0976  0.0369 -0.3011
  716POPI    C311365   6.113   6.461   5.591 -0.2099 -0.0038 -0.0972
  716POPI   PO411366   6.107   6.023   6.073  0.1082  0.0278  0.1316
  716POPI   GL111367   6.225   6.050   6.444 -0.0083 -0.0710 -0.0764
  716POPI   GL211368   6.258   6.430   6.611  0.0733  0.1292 -0.1438
  716POPI   C1A11369   6.530   5.990   6.682  0.3233  0.2590 -0.3972
  716POPI   D2A11370   6.665   5.901   7.003 -0.2737 -0.1146 -0.0061
  716POPI   C3A11371   6.609   6.079   7.439  0.2677 -0.3526  0.2971
  716POPI   C4A11372   6.680   6.342   7.728  0.0459  0.1699 -0.1199
  716POPI   C1B11373   5.913   6.469   6.994 -0.0387 -0.0701 -0.1062
  716POPI   C2B11374   5.854   6.674   7.370 -0.1867 -0.0651 -0.2138
  716POPI   C3B11375   5.639   6.631   7.788  0.1451 -0.0488  0.1405
  716POPI   C4B11376   5.218   6.786   7.816  0.0349 -0.1364 -0.1695
  717POPI    C111377   2.289   1.848   5.714  0.1135 -0.3389 -0.0405
  717POPI    C211378   2.078   1.602   5.480 -0.0979 -0.0853 -0.1222
  717POPI    C311379   2.019   1.997   5.459 -0.1165 -0.0567  0.3566
  717POPI   PO411380   2.251   1.763   5.926  0.1728  0.0779 -0.2501
  717POPI   GL111381   2.349   2.045   6.289  0.0225  0.0016  0.0691
  717POPI   GL211382   2.661   2.206   6.452  0.1726  0.0182  0.1421
  717POPI   C1A11383   2.102   2.312   6.645 -0.0482  0.0709 -0.2034
  717POPI   D2A11384   2.073   2.360   7.079  0.1139  0.0125 -0.0523
  717POPI   C3A11385   2.062   2.728   7.413  0.2296 -0.1548  0.0095
  717POPI   C4A11386   1.731   2.968   7.623 -0.0889 -0.3505 -0.2710
  717POPI   C1B11387   2.497   2.067   6.781  0.1578  0.1725 -0.2780
  717POPI   C2B11388   2.397   1.903   7.181 -0.0578  0.0331 -0.1878
  717POPI   C3B11389   2.582   1.612   7.471 -0.0831  0.0275  0.0154
  717POPI   C4B11390   2.428   1.376   7.702  0.3985 -0.2758  0.0775
  718POPI    C111391  17.865  14.121   5.950 -0.3815 -0.2942  0.0260
  718POPI    C211392  18.026  13.804   5.768 -0.2054 -0.1656 -0.0451
  718POPI    C311393  17.758  14.029   5.575 -0.0912 -0.0857 -0.1117
  718POPI   PO411394  17.701  14.024   6.144  0.0931 -0.0655  0.3623
  718POPI   GL111395  17.619  13.926   6.523 -0.1116 -0.3561  0.3037
  718POPI   GL211396  17.414  14.049   6.633 -0.1563 -0.1073  0.0713
  718POPI   C1A11397  17.776  13.981   6.995  0.2634  0.3678  0.1340
  718POPI   D2A11398  17.642  13.854   7.318 -0.0715  0.0811 -0.0642
  718POPI   C3A11399  17.818  14.041   7.653 -0.1754  0.0505  0.1666
  718POPI   C4A11400  17.658  14.213   7.957 -0.0679 -0.1564  0.1338
  718POPI   C1B11401  17.241  13.886   7.002  0.1583 -0.1238  0.2991
  718POPI   C2B11402  16.931  14.009   7.331 -0.1065 -0.1195 -0.2113
  718POPI   C3B11403  16.820  13.871   7.723 -0.1382  0.1741 -0.1396
  718POPI   C4B11404  16.726  13.682   8.143  0.3117 -0.2356 -0.1202
  719POPI    C111405   0.020  12.772   6.082  0.1652  0.1825 -0.0300
  719POPI    C211406   0.096  12.559   5.753  0.0858  0.0085  0.0627
  719POPI    C311407  -0.031  12.937   5.721  0.1685  0.0234 -0.1041
  719POPI   PO411408  -0.185  12.626   6.280  0.1102 -0.0628  0.2293
  719POPI   GL111409  -0.181  12.408   6.597 -0.0343  0.0674 -0.1864
  719POPI   GL211410   0.103  12.387   6.579 -0.0849 -0.0352 -0.1919
  719POPI   C1A11411  -0.132  12.693   6.963  0.2769 -0.3612 -0.0745
  719POPI   D2A11412  -0.093  12.560   7.369  0.3276 -0.0105  0.2122
  719POPI   C3A11413  -0.180  12.667   7.786 -0.0619 -0.3243 -0.4017
  719POPI   C4A11414  -0.435  12.754   8.150  0.0911  0.3616  0.2936
  719POPI   C1B11415   0.253  12.425   7.062  0.4080  0.3553  0.1072
  719POPI   C2B11416   0.313  12.273   7.421 -0.3145 -0.3342 -0.1635
  719POPI   C3B11417   0.051  12.204   7.859 -0.2683 -0.2485 -0.0356
  719POPI   C4B11418   0.019  12.448   8.271 -0.3608 -0.1644 -0.1839
  720POPI    C111419  15.423   4.427   5.912  0.0527  0.0000  0.2568
  720POPI    C211420  15.420   4.438   5.512 -0.1246 -0.0324  0.2564
  720POPI    C311421  15.081   4.372   5.713 -0.1068  0.3557  0.4240
  720POPI   PO411422  15.623   4.316   5.981 -0.2045  0.0830 -0.0767
  720POPI   GL111423  15.921   4.381   6.254 -0.4368  0.1432  0.0460
  720POPI   GL211424  16.088   4.546   6.159 -0.2200  0.3317 -0.1587
  720POPI   C1A11425  15.984   4.376   6.678  0.1000  0.0453  0.1427
  720POPI   D2A11426  15.764   4.449   7.085 -0.2450  0.3169  0.1203
  720POPI   C3A11427  15.813   4.372   7.530 -0.3713  0.2067  0.2336
  720POPI   C4A11428  15.524   4.231   7.996 -0.0268 -0.1372 -0.0746
  720POPI   C1B11429  16.191   4.823   6.528 -0.0591 -0.2087  0.1142
  720POPI   C2B11430  16.072   4.910   6.995 -0.0212 -0.1099 -0.3642
  720POPI   C3B11431  16.128   4.752   7.397  0.2049  0.0295  0.3572
  720POPI   C4B11432  16.316   5.140   7.779  0.1023 -0.1022  0.0542
  721POPI    C111433   0.389  14.549   6.106 -0.0752 -0.1484  0.0377
  721POPI    C211434   0.000  14.504   6.021 -0.0684  0.1346 -0.1593
  721POPI    C311435   0.195  14.831   5.898  0.2525 -0.0411 -0.1296
  721POPI   PO411436   0.377  14.487   6.410 -0.0706 -0.0024 -0.0679
  721POPI   GL111437   0.237  14.330   6.766  0.1136 -0.0190 -0.3380
  721POPI   GL211438  -0.053  14.358   6.889 -0.1905  0.0179  0.4264
  721POPI   C1A11439   0.288  14.624   7.166  0.0460  0.1857 -0.2144
  721POPI   D2A11440   0.307  14.576   7.579  0.0321 -0.0759 -0.0068
  721POPI   C3A11441  -0.014  14.383   7.879 -0.1797  0.0653 -0.2221
  721POPI   C4A11442  -0.117  14.172   8.260  0.0455 -0.2012  0.2285
  721POPI   C1B11443  -0.164  14.472   7.331  0.3453  0.1927  0.1654
  721POPI   C2B11444  -0.437  14.596   7.682  0.1851 -0.1140 -0.0793
  721POPI   C3B11445  -0.612  14.915   7.779  0.0278  0.1064 -0.2990
  721POPI   C4B11446  -0.649  15.104   8.117  0.1663 -0.0572 -0.0104
  722POPI    C111447  11.256  15.539   5.560  0.1477 -0.1386 -0.0385
  722POPI    C211448  11.261  15.196   5.354 -0.3514 -0.1454 -0.0525
  722POPI    C311449  11.250  15.546   5.160 -0.0252 -0.1231 -0.0366
  722POPI   PO411450  11.118  15.426   5.840  0.0654  0.2488  0.0538
  722POPI   GL111451  11.161  15.372   6.234 -0.1481  0.0980  0.2104
  722POPI   GL211452  11.491  15.522   6.310  0.0057  0.2565  0.2870
  722POPI   C1A11453  11.197  15.435   6.751 -0.0829 -0.3286 -0.2445
  722POPI   D2A11454  11.403  15.420   7.109 -0.3246  0.2173 -0.1538
  722POPI   C3A11455  11.505  15.241   7.295 -0.1603  0.3500  0.2686
  722POPI   C4A11456  11.740  14.982   7.528  0.1809 -0.1599 -0.0608
  722POPI   C1B11457  11.770  15.590   6.664  0.0037 -0.4590  0.1958
  722POPI   C2B11458  11.824  15.692   7.114  0.1420  0.0174  0.1283
  722POPI   C3B11459  11.854  15.607   7.452 -0.0788  0.0049  0.2597
  722POPI   C4B11460  11.740  15.528   7.882 -0.0214  0.1441  0.1104
  723POPI    C111461   0.411  10.926   5.967  0.1251 -0.1503 -0.0688
  723POPI    C211462   0.719  10.856   5.720  0.2514  0.0356  0.0341
  723POPI    C311463   0.562  11.223   5.746 -0.1169 -0.1019 -0.1720
  723POPI   PO411464   0.497  10.879   6.207 -0.2412  0.0345 -0.2322
  723POPI   GL111465   0.546  10.586   6.549  0.0104 -0.1604 -0.5112
  723POPI   GL211466   0.748  10.267   6.382 -0.3548 -0.0490 -0.2093
  723POPI   C1A11467   0.660  10.494   7.033 -0.2209 -0.0354  0.0425
  723POPI   D2A11468   0.447  10.525   7.364 -0.3727  0.0916  0.0475
  723POPI   C3A11469   0.353  10.866   7.635 -0.0105 -0.4461  0.2308
  723POPI   C4A11470   0.316  11.250   7.723 -0.0857 -0.1752  0.0320
  723POPI   C1B11471   0.803   9.992   6.761  0.1235  0.0760  0.0705
  723POPI   C2B11472   1.080   9.848   7.119 -0.2652 -0.1189 -0.1233
  723POPI   C3B11473   1.106   9.691   7.526 -0.1580 -0.0228 -0.3113
  723POPI   C4B11474   0.878   9.616   7.844  0.2922  0.3655 -0.2515
  724POPI    C111475   5.229   0.966   6.099  0.2129 -0.1930  0.0431
  724POPI    C211476   5.095   1.208   5.810 -0.1766 -0.2774  0.1464
  724POPI    C311477   4.996   0.820   5.809  0.2542 -0.3936  0.1087
  724POPI   PO411478   5.097   1.072   6.338  0.5122  0.1784 -0.0103
  724POPI   GL111479   4.644   1.282   6.596 -0.0160  0.0908 -0.1046
  724POPI   GL211480   4.743   0.932   6.660  0.1048 -0.1810 -0.3043
  724POPI   C1A11481   4.766   1.322   6.983  0.0494  0.1365 -0.1789
  724POPI   D2A11482   4.713   1.399   7.398 -0.3929 -0.4093  0.2576
  724POPI   C3A11483   5.000   1.717   7.679  0.2860 -0.1528 -0.1073
  724POPI   C4A11484   5.353   1.588   7.903  0.2016  0.0509 -0.0975
  724POPI   C1B11485   4.591   0.742   7.054 -0.0123  0.0264 -0.0377
  724POPI   C2B11486   4.465   0.952   7.398  0.0365  0.1393  0.1241
  724POPI   C3B11487   4.618   1.229   7.825 -0.0703  0.0245  0.2439
  724POPI   C4B11488   4.729   1.638   8.081  0.1854 -0.0987  0.4701
  725POPI    C111489   6.574   0.260   6.084 -0.0610  0.1344 -0.3135
  725POPI    C211490   6.324   0.005   5.905  0.1421 -0.0809 -0.2961
  725POPI    C311491   6.715  -0.010   5.825  0.1604  0.2071 -0.2710
  725POPI   PO411492   6.567   0.265   6.289  0.4068 -0.3713  0.1189
  725POPI   GL111493   6.367   0.151   6.617  0.1440 -0.5329 -0.0169
  725POPI   GL211494   6.017  -0.012   6.720 -0.2201  0.3062  0.1707
  725POPI   C1A11495   6.389   0.084   7.059  0.2179 -0.1029  0.3533
  725POPI   D2A11496   6.217   0.117   7.534  0.0066  0.3189  0.1352
  725POPI   C3A11497   6.084  -0.251   7.660 -0.2586 -0.1537 -0.1839
  725POPI   C4A11498   6.204  -0.706   8.019  0.0361  0.2473 -0.0316
  725POPI   C1B11499   5.846   0.063   7.131 -0.2049 -0.2794 -0.1029
  725POPI   C2B11500   5.663   0.008   7.523 -0.0009 -0.1440 -0.2100
  725POPI   C3B11501   5.790   0.184   7.910 -0.0594  0.2117 -0.3679
  725POPI   C4B11502   5.965   0.491   8.265 -0.0809 -0.0131  0.2391
  726POPI    C111503   1.402  13.829   5.884 -0.0843 -0.1311 -0.0800
  726POPI    C211504   1.278  13.495   5.702  0.2412 -0.2336 -0.1202
  726POPI    C311505   1.365  13.820   5.486  0.1917 -0.2106 -0.1058
  726POPI   PO411506   1.639  13.826   6.111  0.1427  0.1430 -0.1088
  726POPI   GL111507   1.788  13.720   6.479 -0.0024  0.2185  0.1574
  726POPI   GL211508   1.798  13.522   6.722  0.0725  0.0754 -0.0702
  726POPI   C1A11509   1.330  13.682   6.675  0.0168  0.0642 -0.0966
  726POPI   D2A11510   0.999  13.291   6.682  0.0725 -0.3922 -0.0005
  726POPI   C3A11511   0.737  13.293   6.974  0.0702 -0.3618 -0.1419
  726POPI   C4A11512   0.781  13.169   7.401  0.1621 -0.2227 -0.2621
  726POPI   C1B11513   1.676  13.632   7.148 -0.1293  0.0425 -0.0202
  726POPI   C2B11514   1.627  13.703   7.463 -0.2297 -0.4403 -0.1699
  726POPI   C3B11515   1.499  13.787   7.931 -0.1911  0.0613 -0.0339
  726POPI   C4B11516   1.362  13.923   8.289  0.3966  0.1436 -0.0440
  727POPI    C111517  12.930   7.087   5.238 -0.0125 -0.0859  0.1544
  727POPI    C211518  12.746   6.837   4.986 -0.1902  0.1497  0.0461
  727POPI    C311519  13.077   7.029   4.870 -0.0492 -0.0380  0.1320
  727POPI   PO411520  12.694   7.165   5.351 -0.1872  0.1218  0.0996
  727POPI   GL111521  12.576   6.912   5.680 -0.2255  0.4114  0.2195
  727POPI   GL211522  12.378   7.155   5.766 -0.2034 -0.2160 -0.1540
  727POPI   C1A11523  12.648   7.145   6.144  0.1307  0.0056 -0.0353
  727POPI   D2A11524  12.434   6.977   6.622 -0.0562  0.1046  0.0839
  727POPI   C3A11525  12.236   7.052   7.003  0.1604  0.3090  0.0051
  727POPI   C4A11526  12.112   6.968   7.405 -0.3305  0.0745  0.0928
  727POPI   C1B11527  12.150   7.093   6.108 -0.0107 -0.0979  0.2812
  727POPI   C2B11528  12.108   7.355   6.430  0.1465  0.0450 -0.2376
  727POPI   C3B11529  11.936   7.378   6.817  0.1948  0.0782  0.1244
  727POPI   C4B11530  11.902   7.437   7.185  0.1783 -0.0751 -0.1176
  728POPI    C111531   6.764   6.073   6.049 -0.2269  0.1154 -0.1756
  728POPI    C211532   7.018   6.332   5.881  0.1038 -0.0214  0.1009
  728POPI    C311533   6.845   6.048   5.658  0.1577  0.1002 -0.0987
  728POPI   PO411534   6.606   6.219   6.148 -0.2083  0.0403  0.0534
  728POPI   GL111535   6.747   6.611   6.346  0.4019  0.0597  0.0293
  728POPI   GL211536   7.085   6.578   6.334 -0.0750 -0.0440 -0.2551
  728POPI   C1A11537   6.650   6.439   6.897 -0.0441 -0.0651 -0.2353
  728POPI   D2A11538   6.248   6.146   7.053  0.3853  0.2728  0.1489
  728POPI   C3A11539   6.022   6.142   7.403 -0.2355 -0.2128 -0.3248
  728POPI   C4A11540   5.637   6.236   7.526 -0.1534  0.0126  0.0317
  728POPI   C1B11541   7.509   6.572   6.482  0.0734  0.0818 -0.2034
  728POPI   C2B11542   7.757   6.737   6.777  0.0171 -0.0648 -0.1342
  728POPI   C3B11543   7.831   6.576   7.069 -0.2468  0.1079 -0.0678
  728POPI   C4B11544   7.570   6.303   7.517 -0.1583 -0.0233  0.2297
  729POPI    C111545  14.494   0.317   5.658 -0.0659 -0.2192 -0.1657
  729POPI    C211546  14.890   0.265   5.679 -0.0403 -0.0137 -0.1220
  729POPI    C311547  14.722   0.380   5.335 -0.0405  0.0697 -0.0944
  729POPI   PO411548  14.405   0.227   5.921 -0.1201 -0.2215  0.2216
  729POPI   GL111549  14.503   0.206   6.347 -0.1319  0.0063 -0.2059
  729POPI   GL211550  14.818   0.322   6.292 -0.0550  0.1365  0.1983
  729POPI   C1A11551  14.595   0.181   6.777  0.1238  0.1811 -0.2924
  729POPI   D2A11552  14.416   0.316   7.153  0.0740  0.1214 -0.2408
  729POPI   C3A11553  14.279   0.050   7.537 -0.0747 -0.0852 -0.0658
  729POPI   C4A11554  14.397   0.156   8.027 -0.0723 -0.0935  0.1761
  729POPI   C1B11555  15.056   0.366   6.644  0.0553  0.0905 -0.1781
  729POPI   C2B11556  15.037   0.346   7.079  0.0407 -0.1251 -0.1730
  729POPI   C3B11557  15.081   0.408   7.408 -0.0420  0.1907 -0.2296
  729POPI   C4B11558  15.036   0.709   7.829  0.0608  0.2571 -0.2257
  730POPI    C111559   2.351   4.800   5.458  0.0326 -0.0047  0.2798
  730POPI    C211560   2.709   4.952   5.366  0.0525 -0.2104  0.0028
  730POPI    C311561   2.392   5.035   5.136 -0.0120 -0.2857  0.0645
  730POPI   PO411562   2.338   4.831   5.792  0.1546 -0.1243  0.0233
  730POPI   GL111563   2.349   4.687   6.161 -0.2054 -0.0753 -0.0480
  730POPI   GL211564   2.001   4.520   6.116 -0.1220 -0.1688 -0.0907
  730POPI   C1A11565   2.398   4.468   6.575 -0.0906 -0.2348 -0.2158
  730POPI   D2A11566   2.493   4.085   6.790 -0.0568 -0.2679 -0.1786
  730POPI   C3A11567   2.230   3.856   7.045  0.1785  0.2687  0.0326
  730POPI   C4A11568   2.398   3.614   7.433  0.1337 -0.0701 -0.1184
  730POPI   C1B11569   1.905   4.397   6.469 -0.4545 -0.0745 -0.1078
  730POPI   C2B11570   1.977   4.234   6.828 -0.2286  0.1855 -0.0493
  730POPI   C3B11571   2.161   4.315   7.237 -0.0559  0.0218 -0.0026
  730POPI   C4B11572   2.024   4.314   7.588 -0.2528 -0.1634 -0.2625
  731POPI    C111573   1.340  15.056   6.009  0.0066  0.1156  0.1129
  731POPI    C211574   1.057  15.271   6.193 -0.2555 -0.1430  0.0204
  731POPI    C311575   1.034  15.205   5.799 -0.0048 -0.0736 -0.0077
  731POPI   PO411576   1.346  14.859   6.171  0.3491  0.0281 -0.1299
  731POPI   GL111577   1.444  14.724   6.599 -0.1581 -0.2659 -0.3668
  731POPI   GL211578   1.763  14.736   6.440 -0.0665  0.1736 -0.3155
  731POPI   C1A11579   1.380  14.706   7.064 -0.0774  0.0515 -0.2128
  731POPI   D2A11580   1.572  14.645   7.482 -0.0905 -0.0301  0.3064
  731POPI   C3A11581   1.595  14.828   7.924  0.0928  0.0252  0.3211
  731POPI   C4A11582   1.385  14.935   8.190 -0.0175  0.3802 -0.3520
  731POPI   C1B11583   1.898  14.615   6.849  0.1976 -0.0825 -0.1325
  731POPI   C2B11584   2.128  14.893   7.152 -0.1727  0.0509  0.1604
  731POPI   C3B11585   2.071  14.796   7.479  0.0446  0.0876 -0.0856
  731POPI   C4B11586   2.068  14.541   7.907  0.1937  0.2098  0.0354
  732POPI    C111587   9.987   2.677   5.274  0.1671 -0.1580  0.0284
  732POPI    C211588   9.961   2.304   5.415  0.1042  0.0456  0.5805
  732POPI    C311589  10.293   2.519   5.477  0.2414  0.0034  0.0437
  732POPI   PO411590   9.709   2.791   5.319 -0.0695  0.0748  0.2198
  732POPI   GL111591   9.556   2.720   5.721  0.0646  0.2073  0.1127
  732POPI   GL211592   9.739   2.485   5.784 -0.0974 -0.0261  0.1164
  732POPI   C1A11593   9.596   3.070   5.995  0.1337 -0.3794  0.0307
  732POPI   D2A11594   9.709   3.129   6.437  0.1697  0.0287 -0.2993
  732POPI   C3A11595  10.052   3.171   6.734 -0.0640  0.1214  0.2254
  732POPI   C4A11596  10.123   3.329   7.062 -0.1487  0.3758 -0.1677
  732POPI   C1B11597   9.837   2.679   6.137 -0.1531  0.1624  0.0029
  732POPI   C2B11598  10.098   3.018   6.173  0.0083  0.0776  0.0882
  732POPI   C3B11599  10.025   3.521   6.426 -0.2808  0.3917 -0.1328
  732POPI   C4B11600  10.136   3.774   6.752 -0.1661  0.1690  0.2146
  733POPI    C111601  17.865  14.834   6.411  0.1088  0.3210  0.0557
  733POPI    C211602  17.885  14.923   6.021  0.3855 -0.1222 -0.0381
  733POPI    C311603  17.556  15.013   6.230  0.0878 -0.2048 -0.4590
  733POPI   PO411604  18.036  14.651   6.476 -0.3790 -0.1031  0.0670
  733POPI   GL111605  18.273  14.832   6.738  0.0898 -0.0534 -0.0209
  733POPI   GL211606  18.666  14.858   6.730 -0.0463  0.0283 -0.2021
  733POPI   C1A11607  18.215  15.118   7.023 -0.0746  0.1761  0.0914
  733POPI   D2A11608  17.908  15.445   7.121 -0.1187  0.0815  0.0098
  733POPI   C3A11609  17.683  15.294   7.464 -0.2191  0.3802 -0.1545
  733POPI   C4A11610  17.917  15.301   7.892 -0.0828 -0.0993  0.0612
  733POPI   C1B11611  18.745  15.117   7.126  0.2780  0.3019  0.2868
  733POPI   C2B11612  18.495  15.081   7.508 -0.1352 -0.0309 -0.3693
  733POPI   C3B11613  18.445  15.267   7.956  0.0390  0.2291 -0.2337
  733POPI   C4B11614  18.272  15.151   8.316  0.1034 -0.0514 -0.2420
  734POPI    C111615  10.991   1.446   5.778 -0.1939 -0.1305 -0.1153
  734POPI    C211616  11.118   1.624   5.443  0.2345  0.0856  0.1533
  734POPI    C311617  10.736   1.659   5.555  0.1672  0.2978 -0.1328
  734POPI   PO411618  11.104   1.540   5.957 -0.1608 -0.0015 -0.0231
  734POPI   GL111619  11.069   1.752   6.401  0.4511  0.2562  0.0424
  734POPI   GL211620  11.171   1.973   6.271  0.1169 -0.0769 -0.3684
  734POPI   C1A11621  11.259   1.868   6.844  0.1633  0.2521  0.1585
  734POPI   D2A11622  11.219   2.046   7.305  0.2567 -0.0459  0.2540
  734POPI   C3A11623  11.562   1.820   7.615  0.0147 -0.0985  0.0152
  734POPI   C4A11624  11.692   1.406   7.614  0.0404  0.0541  0.0319
  734POPI   C1B11625  11.177   2.381   6.383 -0.3501  0.0304 -0.0802
  734POPI   C2B11626  10.978   2.568   6.746  0.0654 -0.0592 -0.0394
  734POPI   C3B11627  11.124   2.637   7.202  0.2778 -0.0031  0.1696
  734POPI   C4B11628  11.353   2.527   7.447 -0.3438 -0.1260  0.0505
  735POPI    C111629   3.041  11.243   6.288  0.4015 -0.0727  0.0178
  735POPI    C211630   3.037  11.481   6.609  0.0282  0.0802 -0.0943
  735POPI    C311631   3.266  11.574   6.294  0.2276  0.0465  0.0386
  735POPI   PO411632   3.067  11.039   6.384 -0.1425 -0.1669  0.2540
  735POPI   GL111633   3.115  10.745   6.752 -0.2255  0.0866  0.0007
  735POPI   GL211634   3.102  10.368   6.732  0.2214 -0.0215 -0.1349
  735POPI   C1A11635   2.933  10.621   7.174  0.1016 -0.2627 -0.1777
  735POPI   D2A11636   2.644  10.523   7.386 -0.0773  0.0065  0.1341
  735POPI   C3A11637   2.226  10.740   7.485  0.1262  0.1006  0.1140
  735POPI   C4A11638   2.132  11.074   7.798  0.2757 -0.0266  0.4038
  735POPI   C1B11639   3.358  10.416   7.106  0.1313  0.1782  0.1913
  735POPI   C2B11640   3.173  10.552   7.601 -0.1802  0.1151 -0.0950
  735POPI   C3B11641   2.913  10.558   8.006  0.5363 -0.0347  0.1004
  735POPI   C4B11642   2.852  10.813   8.359  0.2254 -0.1074  0.2949
  736POPI    C111643   8.007   4.482   5.625 -0.1834  0.2014  0.0456
  736POPI    C211644   8.149   4.836   5.504  0.2328  0.0497  0.0736
  736POPI    C311645   8.249   4.503   5.307 -0.2838 -0.0425 -0.0493
  736POPI   PO411646   8.066   4.522   5.920  0.1421 -0.1698 -0.2466
  736POPI   GL111647   8.170   4.626   6.364  0.0705  0.0702 -0.3332
  736POPI   GL211648   8.374   4.834   6.501 -0.2625  0.0817  0.1839
  736POPI   C1A11649   7.942   4.638   6.769  0.0856 -0.0854  0.1320
  736POPI   D2A11650   8.029   4.804   7.171  0.0788  0.1043  0.0834
  736POPI   C3A11651   8.341   4.895   7.532 -0.1582 -0.0226  0.2642
  736POPI   C4A11652   8.586   5.310   7.628 -0.1855 -0.0248  0.1716
  736POPI   C1B11653   8.489   4.873   6.922 -0.1441 -0.3405 -0.1927
  736POPI   C2B11654   8.732   4.831   7.289  0.1641  0.0454  0.0795
  736POPI   C3B11655   9.057   5.007   7.524  0.0650  0.2358  0.0163
  736POPI   C4B11656   9.360   5.102   7.840  0.0213 -0.1200  0.0458
  737POPI    C111657   4.580  12.205   6.138  0.0216 -0.0408  0.1386
  737POPI    C211658   4.952  12.344   6.186  0.0005  0.0595  0.0162
  737POPI    C311659   4.880  12.047   5.927  0.0272 -0.1025  0.1923
  737POPI   PO411660   4.468  12.267   6.390  0.2626  0.2303  0.0892
  737POPI   GL111661   4.480  12.178   6.852  0.0257 -0.0794  0.2558
  737POPI   GL211662   4.482  11.797   6.689  0.0419  0.1614 -0.2552
  737POPI   C1A11663   4.609  12.134   7.247  0.0274 -0.2638  0.2009
  737POPI   D2A11664   4.675  12.144   7.700  0.0904 -0.1715 -0.1470
  737POPI   C3A11665   4.960  12.088   7.898  0.1256 -0.0369 -0.0606
  737POPI   C4A11666   5.070  12.223   8.353 -0.2146 -0.2263  0.0427
  737POPI   C1B11667   4.808  11.675   6.902  0.1295 -0.0212 -0.2261
  737POPI   C2B11668   4.822  11.655   7.338  0.2187  0.3094 -0.1799
  737POPI   C3B11669   4.505  11.660   7.600  0.0615 -0.1396 -0.1948
  737POPI   C4B11670   4.072  11.478   7.573 -0.0803  0.0877  0.0776
  738POPI    C111671   3.124   5.986   6.035  0.0619 -0.0963  0.1305
  738POPI    C211672   2.943   6.221   5.766  0.0091 -0.2022  0.0726
  738POPI    C311673   3.021   6.360   6.134  0.1023 -0.0491 -0.0037
  738POPI   PO411674   3.289   5.832   5.896 -0.0063  0.0674 -0.0787
  738POPI   GL111675   3.505   5.504   6.108 -0.0705 -0.0602 -0.1695
  738POPI   GL211676   3.115   5.428   6.114  0.1099 -0.0445 -0.1534
  738POPI   C1A11677   3.526   5.717   6.517 -0.1004 -0.0184 -0.3256
  738POPI   D2A11678   3.580   5.768   6.898 -0.1821 -0.0799 -0.1456
  738POPI   C3A11679   3.829   5.723   7.240 -0.1551  0.1937 -0.5187
  738POPI   C4A11680   3.833   5.600   7.681  0.1161 -0.0679  0.0366
  738POPI   C1B11681   3.003   5.612   6.491 -0.1631 -0.0263 -0.1877
  738POPI   C2B11682   3.057   5.774   6.965  0.0747 -0.0458 -0.1800
  738POPI   C3B11683   3.017   6.011   7.400 -0.4170  0.0844  0.0094
  738POPI   C4B11684   3.386   5.897   7.786  0.0374  0.1567  0.2176
  739POPI    C111685   6.541   1.297   5.966  0.0403 -0.0227  0.0827
  739POPI    C211686   6.353   1.643   5.896 -0.0708 -0.1279 -0.1506
  739POPI    C311687   6.602   1.491   5.622  0.1881 -0.0995  0.0646
  739POPI   PO411688   6.347   1.118   6.096 -0.0262 -0.2156  0.2964
  739POPI   GL111689   6.472   1.157   6.514  0.1573  0.1894 -0.4083
  739POPI   GL211690   6.156   1.061   6.708 -0.3897 -0.1626  0.3655
  739POPI   C1A11691   6.643   1.009   6.834 -0.0183 -0.1557  0.2671
  739POPI   D2A11692   6.832   1.024   7.164  0.1336 -0.0151 -0.1254
  739POPI   C3A11693   6.861   1.313   7.518 -0.1864 -0.3519 -0.1618
  739POPI   C4A11694   7.008   1.500   7.936 -0.0037 -0.0241  0.3538
  739POPI   C1B11695   6.201   0.956   7.159  0.2003 -0.1263 -0.1386
  739POPI   C2B11696   6.475   0.941   7.574 -0.1153  0.2338  0.0821
  739POPI   C3B11697   6.741   0.887   7.906 -0.2205 -0.2968  0.0653
  739POPI   C4B11698   6.902   1.130   8.171  0.1200  0.0859 -0.1592
  740POPI    C111699   2.449  11.126   6.178  0.0149  0.0200 -0.0552
  740POPI    C211700   2.160  11.350   6.018  0.1130  0.2199  0.0441
  740POPI    C311701   2.475  11.242   5.796  0.0826  0.2090  0.0060
  740POPI   PO411702   2.554  11.224   6.388 -0.0539 -0.1562 -0.0554
  740POPI   GL111703   2.561  11.543   6.656 -0.0683  0.0802  0.3943
  740POPI   GL211704   2.334  11.471   6.903  0.3349 -0.1589 -0.1888
  740POPI   C1A11705   2.789  11.657   7.115 -0.1826 -0.2247  0.2313
  740POPI   D2A11706   2.591  11.817   7.511  0.1412  0.0490 -0.0534
  740POPI   C3A11707   2.772  11.873   7.868  0.0235  0.1170 -0.2732
  740POPI   C4A11708   2.842  11.999   8.277  0.1600 -0.0196 -0.3262
  740POPI   C1B11709   2.098  11.796   7.177 -0.0348 -0.0274  0.0025
  740POPI   C2B11710   1.910  11.998   7.496  0.2907 -0.0776  0.1045
  740POPI   C3B11711   1.770  12.286   7.830  0.2487 -0.2036 -0.1035
  740POPI   C4B11712   1.303  12.252   7.916 -0.2509 -0.0790  0.3056
  741POPI    C111713   5.849   0.967   6.313  0.0142 -0.2134 -0.0017
  741POPI    C211714   5.815   1.152   5.960  0.0999  0.0003  0.0996
  741POPI    C311715   5.976   0.786   5.980  0.0235 -0.0452 -0.0908
  741POPI   PO411716   5.586   0.974   6.406 -0.0541 -0.1878  0.2182
  741POPI   GL111717   5.577   1.266   6.644 -0.1908 -0.0350  0.1368
  741POPI   GL211718   5.162   1.405   6.686  0.1262 -0.0267  0.1703
  741POPI   C1A11719   5.902   1.511   6.999  0.2167 -0.0870  0.1435
  741POPI   D2A11720   5.946   1.758   7.328  0.1918 -0.1424  0.1630
  741POPI   C3A11721   6.078   1.857   7.636 -0.0742 -0.0988  0.2697
  741POPI   C4A11722   6.300   2.091   7.980  0.1395 -0.1388 -0.2290
  741POPI   C1B11723   5.231   1.422   7.120  0.0876 -0.0239  0.0251
  741POPI   C2B11724   5.204   1.275   7.534  0.0720 -0.0608  0.2427
  741POPI   C3B11725   5.132   1.182   7.930 -0.2065  0.0655 -0.1096
  741POPI   C4B11726   5.215   0.938   8.338  0.2789 -0.0069  0.1614
  742POPI    C111727  13.035  14.563   5.706  0.1215  0.1227  0.0500
  742POPI    C211728  13.114  14.554   5.314  0.1976 -0.1200  0.0692
  742POPI    C311729  12.907  14.256   5.484 -0.2005  0.1876  0.1398
  742POPI   PO411730  13.242  14.538   5.776  0.0941  0.0646 -0.1276
  742POPI   GL111731  13.373  14.797   6.025  0.3654  0.2361 -0.0862
  742POPI   GL211732  13.720  14.757   6.133 -0.1803  0.0738  0.0620
  742POPI   C1A11733  13.257  14.839   6.479  0.2891  0.0670 -0.2192
  742POPI   D2A11734  13.236  14.834   6.825  0.4001 -0.1012 -0.2201
  742POPI   C3A11735  13.151  15.267   7.124  0.1570 -0.0028 -0.0664
  742POPI   C4A11736  13.221  15.597   7.459 -0.4019  0.3356 -0.1042
  742POPI   C1B11737  13.689  14.679   6.612 -0.0167  0.0793  0.0438
  742POPI   C2B11738  13.683  14.771   7.116 -0.0060  0.1935  0.2099
  742POPI   C3B11739  13.981  14.912   7.563  0.1750 -0.0700  0.1050
  742POPI   C4B11740  14.193  15.098   7.912 -0.2126  0.0421  0.1535
  743POPI    C111741   7.232   3.631   5.486  0.1948 -0.2852 -0.0934
  743POPI    C211742   6.853   3.757   5.471  0.3317  0.2005  0.2834
  743POPI    C311743   6.955   3.412   5.298 -0.2088  0.2315 -0.1250
  743POPI   PO411744   7.252   3.658   5.731 -0.1064  0.0005  0.1091
  743POPI   GL111745   7.234   3.373   6.085 -0.2321 -0.1411 -0.0995
  743POPI   GL211746   7.020   3.558   6.226  0.0494 -0.0382  0.0022
  743POPI   C1A11747   7.428   3.572   6.434  0.1667 -0.1788 -0.0160
  743POPI   D2A11748   7.693   3.829   6.573 -0.0175  0.0201 -0.0094
  743POPI   C3A11749   7.715   3.706   6.905 -0.1130  0.0175 -0.3891
  743POPI   C4A11750   7.871   3.437   7.196 -0.1483 -0.2906  0.1335
  743POPI   C1B11751   6.926   3.734   6.586  0.2569 -0.1684 -0.2254
  743POPI   C2B11752   7.176   3.624   6.917 -0.0885 -0.0539 -0.3569
  743POPI   C3B11753   7.419   3.551   7.340 -0.0667 -0.0781 -0.1382
  743POPI   C4B11754   7.750   3.766   7.538  0.3519  0.0689 -0.4119
  744POPS   CNO11755  14.831   5.025   5.857  0.0491  0.1151 -0.1895
  744POPS   PO411756  14.655   4.606   5.799  0.1005  0.4304  0.1500
  744POPS   GL111757  14.935   4.668   6.230  0.0114 -0.0508  0.0423
  744POPS   GL211758  15.197   4.725   6.332 -0.1834 -0.2955  0.0245
  744POPS   C1A11759  14.777   4.794   6.604 -0.1942  0.0120  0.2394
  744POPS   D2A11760  14.801   4.907   7.110  0.1976 -0.1907  0.0341
  744POPS   C3A11761  14.865   4.575   7.479  0.0406  0.0491 -0.2462
  744POPS   C4A11762  14.964   4.527   7.853  0.0103  0.2882 -0.0235
  744POPS   C1B11763  15.200   5.017   6.739  0.0936  0.1489  0.1650
  744POPS   C2B11764  15.315   4.862   7.055  0.1401 -0.0517 -0.0939
  744POPS   C3B11765  15.642   4.887   7.385  0.0634  0.3883 -0.0347
  744POPS   C4B11766  15.805   5.176   7.654  0.2970  0.0032 -0.2360
  745POPS   CNO11767  18.032  16.175   5.725  0.1539  0.3166  0.0381
  745POPS   PO411768  17.746  16.352   5.945 -0.1253 -0.0024 -0.2779
  745POPS   GL111769  17.619  16.274   6.393  0.2129  0.1740 -0.2855
  745POPS   GL211770  17.277  16.149   6.339 -0.2091  0.0044  0.2818
  745POPS   C1A11771  17.820  16.240   6.744 -0.2079  0.0107 -0.2274
  745POPS   D2A11772  18.209  16.290   6.836  0.0781  0.0710 -0.1202
  745POPS   C3A11773  18.183  16.507   7.250  0.1429 -0.0433 -0.1092
  745POPS   C4A11774  17.952  16.750   7.524 -0.0195 -0.1370 -0.0347
  745POPS   C1B11775  17.270  16.235   6.785 -0.1438 -0.1220  0.0478
  745POPS   C2B11776  17.337  16.293   7.245 -0.0885  0.0192 -0.0181
  745POPS   C3B11777  17.088  16.409   7.664  0.2863 -0.1891  0.0377
  745POPS   C4B11778  16.763  16.281   8.047  0.1100  0.3331  0.0207
  746POPS   CNO11779  17.184   9.853   5.492 -0.4412  0.0690  0.1443
  746POPS   PO411780  17.146   9.548   5.913  0.0900  0.1304  0.1685
  746POPS   GL111781  17.239   9.460   6.294  0.4744  0.2971  0.0769
  746POPS   GL211782  16.869   9.582   6.367  0.1653 -0.0220  0.1335
  746POPS   C1A11783  17.127   9.157   6.606  0.1726  0.0635  0.0265
  746POPS   D2A11784  17.249   9.052   7.004 -0.2166  0.2338  0.0084
  746POPS   C3A11785  17.123   8.758   7.258 -0.0476 -0.3581  0.0253
  746POPS   C4A11786  17.231   8.437   7.494 -0.1013  0.0520  0.1947
  746POPS   C1B11787  16.780   9.972   6.586 -0.1269  0.0723  0.2439
  746POPS   C2B11788  16.830  10.096   7.049  0.0206  0.0253 -0.0459
  746POPS   C3B11789  17.140   9.852   7.326 -0.0378 -0.3750 -0.3195
  746POPS   C4B11790  17.325   9.422   7.300 -0.4030  0.1142 -0.1378
  747POPS   CNO11791  10.748  13.507   5.566 -0.0350 -0.4038  0.2751
  747POPS   PO411792  10.941  13.549   5.905  0.2283  0.2005  0.1174
  747POPS   GL111793  11.019  13.238   6.142  0.1543 -0.3243 -0.0372
  747POPS   GL211794  10.705  13.237   6.316 -0.1430  0.0444 -0.1391
  747POPS   C1A11795  11.210  13.099   6.480  0.0791  0.2073  0.0225
  747POPS   D2A11796  11.438  13.211   6.712 -0.2385 -0.1099  0.2630
  747POPS   C3A11797  11.482  12.993   7.134 -0.0011 -0.2290 -0.0483
  747POPS   C4A11798  11.601  12.894   7.483  0.0192 -0.0787  0.1185
  747POPS   C1B11799  10.595  13.038   6.711  0.2648  0.2687  0.0745
  747POPS   C2B11800  10.673  13.061   7.124 -0.1888 -0.2135 -0.2842
  747POPS   C3B11801  10.718  13.297   7.530 -0.0355 -0.2175  0.4099
  747POPS   C4B11802  10.472  13.225   7.743  0.0156  0.1384  0.0601
  748POPS   CNO11803  10.710  11.698   5.464 -0.0935  0.0207  0.0536
  748POPS   PO411804  10.407  11.561   5.839  0.0413 -0.2063 -0.1493
  748POPS   GL111805  10.136  11.523   6.164 -0.1047 -0.1189  0.0525
  748POPS   GL211806   9.834  11.365   6.259 -0.1181  0.0419 -0.1696
  748POPS   C1A11807  10.121  11.491   6.635  0.2457 -0.1587  0.0978
  748POPS   D2A11808   9.919  11.586   7.119 -0.1872 -0.1347 -0.3777
  748POPS   C3A11809  10.124  11.759   7.449 -0.2917  0.0741  0.2146
  748POPS   C4A11810  10.242  11.894   7.921 -0.0317  0.2944  0.1513
  748POPS   C1B11811   9.595  11.426   6.580  0.1754 -0.0140  0.0953
  748POPS   C2B11812   9.499  11.394   6.940 -0.0732 -0.0113  0.1598
  748POPS   C3B11813   9.605  11.417   7.444 -0.1049 -0.3026 -0.2104
  748POPS   C4B11814   9.270  11.549   7.723  0.0535 -0.1457  0.2848
  749POPS   CNO11815   9.814   1.890   5.582 -0.0920  0.0848 -0.1813
  749POPS   PO411816   9.480   2.049   5.454  0.1781 -0.2537 -0.2594
  749POPS   GL111817   9.532   2.047   5.948  0.2609 -0.0868 -0.1600
  749POPS   GL211818   9.770   2.228   6.275  0.3850  0.2273 -0.1021
  749POPS   C1A11819   9.305   1.965   6.335 -0.0496 -0.2777 -0.1675
  749POPS   D2A11820   9.050   2.201   6.607  0.0950  0.0653  0.0094
  749POPS   C3A11821   9.053   2.254   7.055  0.1277 -0.4276 -0.0564
  749POPS   C4A11822   9.328   2.210   7.349 -0.0720 -0.2233 -0.2565
  749POPS   C1B11823   9.725   2.259   6.741  0.0999  0.1035  0.0669
  749POPS   C2B11824   9.824   2.463   7.278  0.0108  0.3758 -0.2066
  749POPS   C3B11825   9.604   2.587   7.671 -0.0478  0.0162  0.2049
  749POPS   C4B11826   9.552   2.276   8.056 -0.3691 -0.1019  0.3609
  750POPS   CNO11827   3.773   5.659   5.114  0.1543 -0.1437  0.2177
  750POPS   PO411828   4.033   5.440   5.408 -0.0111 -0.0329 -0.1902
  750POPS   GL111829   4.069   5.527   5.865 -0.0381  0.3254  0.2538
  750POPS   GL211830   3.978   5.291   6.058 -0.1777  0.0870  0.0742
  750POPS   C1A11831   4.178   5.638   6.318 -0.1374 -0.1408  0.0585
  750POPS   D2A11832   4.091   5.585   6.785 -0.1532  0.0628 -0.2030
  750POPS   C3A11833   4.332   5.813   7.065 -0.0442  0.0450 -0.1103
  750POPS   C4A11834   4.290   5.747   7.484  0.1156 -0.2251  0.0573
  750POPS   C1B11835   3.844   5.233   6.402 -0.1932 -0.1738 -0.2127
  750POPS   C2B11836   3.761   5.259   6.899 -0.0726  0.2454  0.2105
  750POPS   C3B11837   3.798   5.179   7.249 -0.0805 -0.1754 -0.3504
  750POPS   C4B11838   3.526   5.235   7.607 -0.1069  0.0804 -0.0897
  751POPS   CNO11839   9.315   5.239   5.577 -0.2065  0.1140 -0.0717
  751POPS   PO411840   9.701   5.536   5.707  0.1089 -0.0502 -0.1808
  751POPS   GL111841   9.430   5.417   6.092  0.0485 -0.0515  0.0541
  751POPS   GL211842   9.237   5.528   6.180 -0.1499 -0.0999 -0.2770
  751POPS   C1A11843   9.695   5.420   6.424  0.1600  0.2593  0.3032
  751POPS   D2A11844   9.837   5.404   6.768  0.0336 -0.5251 -0.2267
  751POPS   C3A11845   9.827   5.339   7.102  0.0040  0.1593 -0.3539
  751POPS   C4A11846   9.891   5.186   7.505 -0.0062 -0.1919  0.4500
  751POPS   C1B11847   9.062   5.466   6.583  0.2228 -0.0900 -0.2955
  751POPS   C2B11848   8.918   5.708   6.931  0.1887 -0.1238 -0.2708
  751POPS   C3B11849   9.010   5.672   7.344 -0.1587  0.1455  0.1292
  751POPS   C4B11850   9.024   5.508   7.793  0.0389  0.2428  0.5049
  752POPS   CNO11851   0.661   2.421   5.697  0.2098 -0.1066  0.0677
  752POPS   PO411852   0.914   2.736   5.719  0.1246 -0.1399 -0.1680
  752POPS   GL111853   0.635   2.850   6.099 -0.1593 -0.1687 -0.1676
  752POPS   GL211854   0.349   3.003   6.220 -0.0636  0.1694  0.0180
  752POPS   C1A11855   0.813   2.703   6.562 -0.0173 -0.0296 -0.1015
  752POPS   D2A11856   0.692   2.583   6.929  0.2316  0.0306  0.0529
  752POPS   C3A11857   0.425   2.889   7.105 -0.4920 -0.1833  0.0976
  752POPS   C4A11858   0.406   3.294   7.192 -0.2510 -0.3256 -0.2543
  752POPS   C1B11859   0.275   2.964   6.656  0.1351 -0.0905 -0.1430
  752POPS   C2B11860   0.003   3.152   6.960  0.0232  0.1823 -0.0860
  752POPS   C3B11861   0.076   3.036   7.442 -0.0114  0.0507  0.1121
  752POPS   C4B11862   0.316   2.775   7.728  0.2921 -0.2331 -0.0793
  753POPS   CNO11863   7.175  15.912   5.942 -0.0952 -0.0202 -0.1521
  753POPS   PO411864   6.896  15.610   6.158 -0.1437 -0.2328  0.1794
  753POPS   GL111865   7.172  15.713   6.477  0.2079  0.0542  0.0909
  753POPS   GL211866   7.513  15.580   6.506 -0.2783 -0.0032  0.2875
  753POPS   C1A11867   7.270  15.512   6.898  0.3201 -0.0687 -0.0521
  753POPS   D2A11868   7.209  15.487   7.325  0.2903 -0.0353  0.0205
  753POPS   C3A11869   7.075  15.157   7.641  0.1160 -0.1156  0.5522
  753POPS   C4A11870   6.973  15.124   8.116 -0.1588 -0.0390 -0.2835
  753POPS   C1B11871   7.758  15.339   6.865 -0.2225 -0.2209 -0.0599
  753POPS   C2B11872   7.937  15.248   7.242 -0.1334 -0.1216 -0.1876
  753POPS   C3B11873   7.971  15.438   7.647 -0.2148 -0.0989 -0.2325
  753POPS   C4B11874   8.202  15.323   8.044 -0.0805  0.3020  0.0638
  754POPS   CNO11875  16.598   3.648   6.076 -0.0130 -0.2194 -0.0502
  754POPS   PO411876  16.149   3.557   6.094 -0.4972 -0.6161  0.0672
  754POPS   GL111877  16.254   3.386   6.513 -0.1291 -0.0178 -0.0521
  754POPS   GL211878  16.003   3.070   6.673 -0.2363  0.1033 -0.0337
  754POPS   C1A11879  16.427   3.433   6.831  0.1103  0.2185  0.0735
  754POPS   D2A11880  16.613   3.777   7.068 -0.0434 -0.0918  0.0694
  754POPS   C3A11881  16.471   3.713   7.557 -0.4693 -0.1335  0.0407
  754POPS   C4A11882  16.005   3.578   7.746  0.2807  0.1696  0.4185
  754POPS   C1B11883  16.145   3.042   7.092 -0.2720  0.0596 -0.2036
  754POPS   C2B11884  16.491   3.225   7.345  0.1676  0.1031  0.1309
  754POPS   C3B11885  16.960   3.357   7.459  0.1835  0.1204 -0.2238
  754POPS   C4B11886  17.242   3.715   7.345 -0.0128  0.1144  0.0257
  755POPS   CNO11887  15.319   1.336   5.230  0.0176 -0.0325 -0.3996
  755POPS   PO411888  15.040   1.235   5.581  0.0258  0.0939 -0.2779
  755POPS   GL111889  15.130   1.385   5.983  0.3173  0.0153  0.1082
  755POPS   GL211890  15.040   1.177   6.095 -0.0940  0.0399  0.2489
  755POPS   C1A11891  15.159   1.558   6.379 -0.2248 -0.0053  0.0659
  755POPS   D2A11892  15.221   1.444   6.790 -0.2719 -0.3683  0.5327
  755POPS   C3A11893  15.274   1.610   7.150 -0.2631  0.0480  0.0868
  755POPS   C4A11894  15.635   1.719   7.469 -0.1215 -0.3227 -0.0127
  755POPS   C1B11895  14.700   1.222   6.345  0.0420  0.0546 -0.4350
  755POPS   C2B11896  14.590   1.229   6.735 -0.0174 -0.1441  0.2666
  755POPS   C3B11897  14.382   1.144   7.086  0.2280  0.0530 -0.1861
  755POPS   C4B11898  14.289   1.115   7.482  0.2107  0.0628  0.2512
  756POPS   CNO11899   4.668   4.325   6.168 -0.1855  0.0948 -0.2683
  756POPS   PO411900   5.056   4.078   6.014 -0.1559 -0.2415 -0.0905
  756POPS   GL111901   5.196   4.374   6.361  0.3152  0.1333 -0.0106
  756POPS   GL211902   5.429   4.253   6.509 -0.0721 -0.1784 -0.0452
  756POPS   C1A11903   5.167   4.555   6.814  0.3486  0.0798  0.0323
  756POPS   D2A11904   5.101   4.620   7.205  0.0916  0.0796  0.2030
  756POPS   C3A11905   4.871   4.593   7.560 -0.1023  0.0495 -0.0227
  756POPS   C4A11906   4.579   4.553   7.815  0.0864 -0.1196 -0.0682
  756POPS   C1B11907   5.541   4.333   7.019 -0.1155  0.0504  0.2197
  756POPS   C2B11908   5.433   4.338   7.434  0.0802 -0.0522  0.1690
  756POPS   C3B11909   5.453   4.103   7.847 -0.3159 -0.2720  0.0345
  756POPS   C4B11910   5.264   4.028   8.251 -0.2271 -0.0320 -0.0802
  757POPS   CNO11911   5.847  15.125   5.848 -0.2876  0.3084 -0.1960
  757POPS   PO411912   5.659  15.322   6.217 -0.1455 -0.3047 -0.0618
  757POPS   GL111913   5.701  15.402   6.666  0.0153 -0.3806 -0.0214
  757POPS   GL211914   5.506  15.131   6.729 -0.6153 -0.0890 -0.1138
  757POPS   C1A11915   5.844  15.395   7.060 -0.0496  0.2184 -0.2937
  757POPS   D2A11916   6.006  15.314   7.527  0.1618 -0.0304 -0.1470
  757POPS   C3A11917   6.177  14.857   7.729  0.0504  0.0224  0.1120
  757POPS   C4A11918   6.269  14.530   7.932 -0.2043 -0.2497  0.1441
  757POPS   C1B11919   5.473  15.126   7.232  0.2147  0.0502  0.1031
  757POPS   C2B11920   5.539  15.046   7.547  0.0480  0.0865  0.1282
  757POPS   C3B11921   5.729  15.004   7.938  0.3231  0.1109  0.1016
  757POPS   C4B11922   6.024  15.190   8.138  0.0519  0.3128  0.1112
  758POPS   CNO11923   0.290   0.340   5.864  0.0364  0.4110 -0.1667
  758POPS   PO411924   0.026   0.763   5.735 -0.1378  0.0371  0.0571
  758POPS   GL111925   0.158   0.865   6.078 -0.1536 -0.2226 -0.1014
  758POPS   GL211926   0.567   0.849   6.154 -0.1259  0.1754 -0.1854
  758POPS   C1A11927   0.168   0.894   6.547 -0.0320  0.0950 -0.0246
  758POPS   D2A11928   0.046   0.773   6.998  0.0495 -0.0769 -0.0470
  758POPS   C3A11929   0.379   0.662   7.297 -0.2119 -0.0674  0.0090
  758POPS   C4A11930   0.421   0.531   7.633 -0.2826 -0.1095 -0.1743
  758POPS   C1B11931   0.329   0.480   6.397  0.3317  0.1881 -0.1162
  758POPS   C2B11932  -0.097   0.478   6.405 -0.1167  0.0208 -0.2901
  758POPS   C3B11933  -0.331   0.616   6.686  0.1128 -0.3433 -0.2020
  758POPS   C4B11934  -0.570   1.013   6.789  0.3353  0.1901  0.3217
  759POPS   CNO11935  14.267  12.312   6.102 -0.0947 -0.1784  0.1496
  759POPS   PO411936  14.217  11.857   6.166 -0.1983  0.0715 -0.2701
  759POPS   GL111937  14.185  11.772   6.477 -0.2774 -0.0682 -0.1351
  759POPS   GL211938  14.549  11.715   6.639 -0.1717  0.0621 -0.0633
  759POPS   C1A11939  14.206  11.953   6.883  0.1939  0.0403 -0.1507
  759POPS   D2A11940  14.048  11.965   7.317  0.1152 -0.2235 -0.0960
  759POPS   C3A11941  13.797  11.801   7.519 -0.1098 -0.3528  0.1192
  759POPS   C4A11942  13.343  11.971   7.748 -0.1450 -0.1981  0.0760
  759POPS   C1B11943  14.491  11.641   7.132  0.1369 -0.0814 -0.2305
  759POPS   C2B11944  14.392  11.666   7.534 -0.0333 -0.1911 -0.0360
  759POPS   C3B11945  14.206  11.945   7.827  0.2483  0.1597  0.0579
  759POPS   C4B11946  14.187  12.292   8.168  0.2671  0.2825 -0.0186
  760POPS   CNO11947  10.241   0.333   6.392  0.0377 -0.1512 -0.4425
  760POPS   PO411948  10.442   0.012   6.322 -0.4192 -0.0181 -0.1979
  760POPS   GL111949  10.411  -0.123   6.702 -0.1601 -0.0869 -0.1920
  760POPS   GL211950  10.089   0.040   6.812  0.0953 -0.0705 -0.1145
  760POPS   C1A11951  10.634  -0.154   7.071  0.3848 -0.0084 -0.1379
  760POPS   D2A11952  10.606  -0.367   7.394  0.1508 -0.2560  0.0940
  760POPS   C3A11953  10.894  -0.412   7.766 -0.2121 -0.1335  0.0883
  760POPS   C4A11954  11.083  -0.267   8.004 -0.0941  0.0030  0.2240
  760POPS   C1B11955  10.114   0.222   7.192  0.3325 -0.1244 -0.1666
  760POPS   C2B11956  10.498   0.220   7.403  0.2182 -0.0343 -0.2014
  760POPS   C3B11957  10.833   0.349   7.653  0.0164  0.0867  0.1064
  760POPS   C4B11958  11.117   0.217   8.007 -0.0218 -0.1218  0.1565
  761POPS   CNO11959   9.451   8.163   5.655 -0.1764  0.2992  0.4438
  761POPS   PO411960   9.285   8.603   5.501  0.0854 -0.2641 -0.2775
  761POPS   GL111961   9.072   8.367   5.994 -0.1934 -0.0254 -0.1709
  761POPS   GL211962   9.182   8.066   6.040 -0.0002 -0.0005 -0.2364
  761POPS   C1A11963   8.996   8.607   6.297  0.1970 -0.0030  0.1664
  761POPS   D2A11964   9.133   8.724   6.714  0.2612 -0.1734  0.0388
  761POPS   C3A11965   8.868   8.743   7.103 -0.0349  0.2770  0.3170
  761POPS   C4A11966   8.560   8.616   7.373 -0.1106 -0.1976  0.2424
  761POPS   C1B11967   9.305   8.232   6.443  0.1354 -0.2429  0.0129
  761POPS   C2B11968   9.331   8.310   6.890 -0.0829 -0.0475 -0.2074
  761POPS   C3B11969   9.576   8.314   7.328 -0.3037  0.1632  0.2051
  761POPS   C4B11970   9.815   8.256   7.732 -0.1278  0.0381  0.1873
  762POPS   CNO11971   0.563  16.792   6.104 -0.0475  0.0203  0.1218
  762POPS   PO411972   0.954  16.776   6.269  0.2103  0.1420  0.0077
  762POPS   GL111973   0.710  16.647   6.742 -0.3257  0.3221  0.2224
  762POPS   GL211974   0.538  16.401   6.727  0.1443 -0.1976  0.1286
  762POPS   C1A11975   0.560  16.643   7.154 -0.0513 -0.0919  0.3976
  762POPS   D2A11976   0.432  16.550   7.589  0.0738 -0.2588 -0.0550
  762POPS   C3A11977   0.688  16.208   7.748 -0.1286  0.1425  0.1238
  762POPS   C4A11978   0.940  15.920   8.094 -0.1137 -0.0625 -0.0015
  762POPS   C1B11979   0.495  16.174   7.085  0.1756 -0.1561  0.4490
  762POPS   C2B11980   0.357  15.981   7.381 -0.0103 -0.0105 -0.0152
  762POPS   C3B11981   0.131  16.144   7.831 -0.2833 -0.3370  0.2767
  762POPS   C4B11982  -0.071  16.413   7.856  0.2669  0.1772 -0.1035
  763POPS   CNO11983   7.891  13.165   5.819 -0.1026  0.1578 -0.0488
  763POPS   PO411984   7.564  12.986   5.759  0.1214  0.1477 -0.1345
  763POPS   GL111985   7.565  13.144   6.194  0.1673  0.0133 -0.0831
  763POPS   GL211986   7.723  13.353   6.301  0.2212  0.1748 -0.0906
  763POPS   C1A11987   7.316  13.308   6.590  0.0374 -0.2985  0.0163
  763POPS   D2A11988   7.128  13.445   6.945 -0.2742 -0.0950 -0.1383
  763POPS   C3A11989   6.648  13.465   6.870  0.0439  0.1178 -0.2361
  763POPS   C4A11990   6.384  13.165   7.130  0.0424  0.1685  0.1198
  763POPS   C1B11991   7.763  13.075   6.696  0.2396  0.1686 -0.1525
  763POPS   C2B11992   7.931  12.967   7.044 -0.1172 -0.2039 -0.2412
  763POPS   C3B11993   8.248  13.004   7.282  0.1432 -0.3020  0.1210
  763POPS   C4B11994   8.595  12.749   7.371 -0.1780 -0.0080 -0.2464
  764POPS   CNO11995   4.392  13.054   5.764 -0.2038  0.0587 -0.1005
  764POPS   PO411996   4.444  13.166   6.122 -0.0684 -0.1684  0.1944
  764POPS   GL111997   4.423  13.174   6.589 -0.0453 -0.0228  0.3044
  764POPS   GL211998   4.709  13.052   6.782 -0.0754 -0.0745 -0.5029
  764POPS   C1A11999   4.154  13.025   6.982  0.2850 -0.0727  0.0571
  764POPS   D2A12000   4.213  13.161   7.397 -0.2708  0.1420 -0.0034
  764POPS   C3A12001   4.093  12.957   7.766  0.2402  0.1544  0.1558
  764POPS   C4A12002   3.942  13.044   8.174 -0.3385  0.0632  0.1619
  764POPS   C1B12003   4.722  13.017   7.217 -0.2921 -0.3029  0.0271
  764POPS   C2B12004   4.634  13.039   7.640 -0.0126  0.0734  0.1508
  764POPS   C3B12005   4.754  13.155   8.052 -0.1321  0.0626 -0.2381
  764POPS   C4B12006   4.954  13.467   8.368  0.1859  0.1556 -0.2538
  765POPS   CNO12007  12.662  17.122   6.142  0.2086 -0.1406  0.3054
  765POPS   PO412008  13.058  17.351   6.005  0.1463 -0.2027  0.3923
  765POPS   GL112009  13.088  17.582   6.365  0.0394 -0.0785  0.0870
  765POPS   GL212010  12.739  17.695   6.496  0.1129 -0.1017 -0.2844
  765POPS   C1A12011  13.204  17.518   6.822  0.3746 -0.1995 -0.0295
  765POPS   D2A12012  13.345  17.816   7.106  0.1364  0.2156 -0.2244
  765POPS   C3A12013  13.101  17.707   7.483  0.1180 -0.2491 -0.0864
  765POPS   C4A12014  12.840  17.881   7.726 -0.1427  0.1764 -0.0591
  765POPS   C1B12015  12.646  17.429   6.745 -0.1055 -0.3325 -0.2517
  765POPS   C2B12016  12.727  17.344   7.218 -0.0858 -0.1998  0.2445
  765POPS   C3B12017  12.833  17.172   7.581  0.0080  0.1785 -0.1740
  765POPS   C4B12018  12.669  17.030   7.955  0.5405 -0.2497 -0.0110
  766POPS   CNO12019  14.623   6.270   5.490  0.2000 -0.1444 -0.0357
  766POPS   PO412020  14.505   6.513   5.825 -0.0312  0.3355 -0.0659
  766POPS   GL112021  14.571   6.406   6.208 -0.2621 -0.0092  0.4789
  766POPS   GL212022  14.798   6.530   6.255  0.3649 -0.1437  0.2415
  766POPS   C1A12023  14.633   6.208   6.705 -0.3605 -0.0415  0.3194
  766POPS   D2A12024  14.537   6.309   7.020 -0.0812  0.0187 -0.1770
  766POPS   C3A12025  14.527   6.661   7.412 -0.0868 -0.1753  0.0878
  766POPS   C4A12026  14.745   7.044   7.380 -0.3398 -0.0001  0.2950
  766POPS   C1B12027  14.691   6.923   6.446 -0.0719  0.2605 -0.0609
  766POPS   C2B12028  14.581   7.316   6.647  0.0389 -0.1289  0.1094
  766POPS   C3B12029  14.549   7.363   7.041 -0.1749 -0.2044  0.2319
  766POPS   C4B12030  14.555   7.521   7.477 -0.2426 -0.1502  0.1448
  767POPS   CNO12031  16.768   1.723   5.547 -0.1210  0.1089  0.1108
  767POPS   PO412032  16.474   1.477   5.761 -0.4071 -0.1826  0.0518
  767POPS   GL112033  16.103   1.586   5.994 -0.0339 -0.0294  0.0836
  767POPS   GL212034  16.206   1.398   6.206  0.0031  0.0118  0.3691
  767POPS   C1A12035  16.001   1.865   6.300 -0.0429 -0.2530  0.0006
  767POPS   D2A12036  15.754   2.210   6.496  0.1583  0.1964  0.1770
  767POPS   C3A12037  15.845   2.204   6.914 -0.3425 -0.2715  0.2824
  767POPS   C4A12038  15.762   2.392   7.269 -0.0389  0.0910 -0.0570
  767POPS   C1B12039  16.145   1.481   6.675  0.2245 -0.2097  0.1550
  767POPS   C2B12040  16.227   1.391   7.135  0.3668 -0.0133 -0.0715
  767POPS   C3B12041  16.144   1.517   7.546  0.0502  0.0431  0.3591
  767POPS   C4B12042  16.066   1.670   7.885 -0.1445 -0.0248  0.0670
  768POPS   CNO12043  14.535   5.762   5.503  0.2860  0.1398 -0.0140
  768POPS   PO412044  14.243   5.588   5.870  0.0340  0.1433  0.1270
  768POPS   GL112045  14.367   5.446   6.227 -0.3123 -0.0473  0.3011
  768POPS   GL212046  14.073   5.232   6.272 -0.0298 -0.0433 -0.0428
  768POPS   C1A12047  14.402   5.502   6.592  0.2792  0.2944 -0.0854
  768POPS   D2A12048  14.627   5.795   7.019  0.0814 -0.1452  0.0508
  768POPS   C3A12049  14.448   5.827   7.353 -0.2408 -0.3594 -0.2329
  768POPS   C4A12050  14.153   5.638   7.461  0.0175 -0.3806  0.2394
  768POPS   C1B12051  13.916   5.079   6.683 -0.3928  0.2911  0.0326
  768POPS   C2B12052  13.889   5.044   7.130  0.1609  0.0623 -0.2244
  768POPS   C3B12053  13.870   5.258   7.451 -0.1773  0.0225 -0.0259
  768POPS   C4B12054  14.170   5.239   7.835 -0.2872 -0.1035 -0.0103
  769POPS   CNO12055   5.255   1.707   5.797 -0.0236 -0.1240 -0.2442
  769POPS   PO412056   4.803   1.873   5.887 -0.0517 -0.1729 -0.3072
  769POPS   GL112057   4.959   2.099   6.361 -0.0226 -0.0199 -0.1917
  769POPS   GL212058   5.112   1.891   6.465 -0.2817 -0.0131  0.2697
  769POPS   C1A12059   5.018   2.372   6.735 -0.0338  0.0327 -0.0000
  769POPS   D2A12060   5.125   2.334   7.093  0.2575  0.1128 -0.2390
  769POPS   C3A12061   5.345   2.435   7.493 -0.0444  0.1704 -0.3978
  769POPS   C4A12062   5.404   2.681   7.729  0.0309 -0.1513 -0.1665
  769POPS   C1B12063   4.886   1.825   6.833 -0.0651  0.3565  0.0717
  769POPS   C2B12064   4.930   1.833   7.189 -0.1700  0.1259  0.0599
  769POPS   C3B12065   4.869   2.172   7.501  0.1551  0.1432  0.1582
  769POPS   C4B12066   4.720   2.125   7.923  0.0326 -0.0447  0.0053
  770POPS   CNO12067   7.816  12.669   6.126 -0.0706 -0.2082 -0.1333
  770POPS   PO412068   8.302  12.454   6.203 -0.0979 -0.4324 -0.0518
  770POPS   GL112069   8.185  12.652   6.525  0.2646 -0.1627 -0.0501
  770POPS   GL212070   7.872  12.517   6.703 -0.0151  0.2438 -0.2997
  770POPS   C1A12071   8.285  12.594   6.918  0.2003  0.0878 -0.1329
  770POPS   D2A12072   7.996  12.497   7.243  0.2985  0.2121 -0.0877
  770POPS   C3A12073   7.852  12.821   7.546  0.1375  0.1635  0.0376
  770POPS   C4A12074   7.744  13.015   7.901  0.0977  0.0693 -0.0374
  770POPS   C1B12075   7.934  12.127   6.880 -0.1973  0.1978 -0.0012
  770POPS   C2B12076   8.003  11.929   7.271 -0.1865 -0.0107  0.3265
  770POPS   C3B12077   8.135  11.701   7.663 -0.2072  0.1688 -0.1761
  770POPS   C4B12078   8.515  11.659   7.880  0.0692  0.3700  0.1087
  771POPS   CNO12079  13.481  17.684   6.043  0.3103 -0.0095 -0.2706
  771POPS   PO412080  13.825  17.624   5.801  0.0402 -0.0761 -0.2812
  771POPS   GL112081  14.020  17.535   6.217 -0.2452  0.0818 -0.0261
  771POPS   GL212082  14.282  17.355   6.345  0.1661 -0.1156  0.2857
  771POPS   C1A12083  14.126  17.782   6.590 -0.2003 -0.1010  0.0917
  771POPS   D2A12084  14.323  17.955   6.993 -0.0516 -0.2401  0.0513
  771POPS   C3A12085  14.708  18.110   7.288 -0.2456  0.0512  0.1009
  771POPS   C4A12086  15.014  18.069   7.663 -0.2416 -0.2654  0.2106
  771POPS   C1B12087  14.404  17.419   6.806 -0.0574  0.0641  0.1871
  771POPS   C2B12088  14.465  17.329   7.284 -0.0943 -0.1473  0.1326
  771POPS   C3B12089  14.585  17.101   7.698 -0.0812 -0.2172 -0.2713
  771POPS   C4B12090  14.723  16.749   8.017  0.2860  0.1253  0.4327
  772POPS   CNO12091   1.174  10.505   5.589  0.0233 -0.3031 -0.0652
  772POPS   PO412092   1.006  10.689   6.108 -0.1594 -0.4353 -0.2185
  772POPS   GL112093   1.076  10.604   6.497 -0.0738  0.2016 -0.0766
  772POPS   GL212094   1.419  10.500   6.499 -0.1127  0.2091  0.0456
  772POPS   C1A12095   1.095  10.792   6.977  0.0239  0.0295 -0.1135
  772POPS   D2A12096   1.284  10.801   7.357  0.1074  0.2759  0.0195
  772POPS   C3A12097   1.341  10.632   7.757 -0.0067  0.2340  0.1063
  772POPS   C4A12098   1.156  10.562   8.026  0.5343  0.0205  0.2779
  772POPS   C1B12099   1.179  10.289   6.841  0.0966 -0.0987 -0.1280
  772POPS   C2B12100   1.173  10.316   7.331 -0.0912 -0.0699  0.2811
  772POPS   C3B12101   0.886  10.492   7.553 -0.0611  0.3275 -0.0408
  772POPS   C4B12102   0.661  10.479   7.842  0.3920 -0.3142  0.0106
  773POPS   CNO12103   8.221   7.816   5.837  0.0555  0.2114 -0.1811
  773POPS   PO412104   8.439   7.491   5.552 -0.2211 -0.0630  0.2202
  773POPS   GL112105   8.729   7.482   5.919 -0.0409 -0.0552  0.0073
  773POPS   GL212106   8.724   7.861   5.988  0.1481  0.1128  0.1971
  773POPS   C1A12107   9.168   7.317   5.992 -0.0278 -0.0025  0.0082
  773POPS   D2A12108   9.505   7.187   6.147  0.0594 -0.0072  0.2159
  773POPS   C3A12109   9.674   7.230   6.527 -0.4073  0.0795  0.1671
  773POPS   C4A12110   9.698   7.502   6.736  0.2503 -0.1542  0.0223
  773POPS   C1B12111   8.983   7.758   6.387  0.0795  0.0201 -0.0204
  773POPS   C2B12112   9.171   7.393   6.511 -0.1290 -0.0074 -0.1397
  773POPS   C3B12113   9.307   7.248   6.872  0.1776 -0.0004  0.4193
  773POPS   C4B12114   9.362   6.979   7.235 -0.0324  0.2113 -0.1193
  774POPS   CNO12115  10.646  16.174   5.601  0.3456 -0.3965 -0.0744
  774POPS   PO412116  10.329  15.986   5.802 -0.2241  0.1963  0.3258
  774POPS   GL112117  10.393  15.783   6.169  0.2773  0.1410 -0.0099
  774POPS   GL212118  10.320  16.016   6.399  0.0016  0.0065  0.2998
  774POPS   C1A12119  10.268  15.406   6.202 -0.0139 -0.2204 -0.1766
  774POPS   D2A12120  10.548  15.123   6.485 -0.1920  0.1752  0.1383
  774POPS   C3A12121  10.395  15.003   6.920 -0.0426  0.0642 -0.1494
  774POPS   C4A12122  10.388  14.681   7.155 -0.3110  0.0194  0.0104
  774POPS   C1B12123  10.080  15.928   6.581 -0.0058  0.0459  0.0069
  774POPS   C2B12124   9.985  15.944   6.955  0.3660  0.1703  0.0862
  774POPS   C3B12125  10.277  15.966   7.206 -0.1622 -0.0390 -0.1185
  774POPS   C4B12126  10.556  16.115   7.604 -0.1832  0.0201  0.1081
  775POPS   CNO12127   3.463  14.745   5.729 -0.2909  0.1012  0.1172
  775POPS   PO412128   3.409  14.894   6.020  0.1338  0.3051  0.0357
  775POPS   GL112129   3.220  15.226   6.355 -0.0730 -0.2972  0.2209
  775POPS   GL212130   2.898  15.330   6.183  0.4140 -0.0774 -0.4077
  775POPS   C1A12131   3.108  15.380   6.729  0.3614 -0.0199  0.1119
  775POPS   D2A12132   2.991  15.679   6.936  0.1184  0.0196 -0.1511
  775POPS   C3A12133   2.919  15.565   7.317 -0.0564 -0.2095  0.0093
  775POPS   C4A12134   2.835  15.671   7.717 -0.0064 -0.4692  0.0926
  775POPS   C1B12135   2.677  15.539   6.536 -0.1668 -0.1172 -0.1681
  775POPS   C2B12136   2.519  15.787   6.941 -0.0883  0.1731 -0.0268
  775POPS   C3B12137   2.164  15.889   7.066 -0.0015  0.0306 -0.0286
  775POPS   C4B12138   1.838  16.102   6.925  0.2809  0.2093  0.1782
  776POPS   CNO12139  14.065   2.310   5.304  0.1179 -0.1861 -0.1371
  776POPS   PO412140  14.182   2.310   5.752 -0.0257 -0.0331 -0.2636
  776POPS   GL112141  14.230   2.124   6.208  0.3080  0.0987  0.1133
  776POPS   GL212142  13.991   2.268   6.330 -0.0168  0.2166  0.1548
  776POPS   C1A12143  14.435   2.055   6.616  0.1006  0.0083 -0.1619
  776POPS   D2A12144  14.609   2.169   7.001 -0.1664 -0.1775  0.0980
  776POPS   C3A12145  14.606   1.979   7.355  0.1035  0.1612  0.1430
  776POPS   C4A12146  14.703   2.006   7.798 -0.3131  0.1476  0.1478
  776POPS   C1B12147  13.993   2.340   6.732  0.0165 -0.1219  0.0084
  776POPS   C2B12148  14.073   2.189   7.122 -0.1410 -0.2037  0.0420
  776POPS   C3B12149  14.114   2.085   7.470  0.2296  0.0859 -0.1109
  776POPS   C4B12150  14.228   1.942   7.886  0.0551 -0.1786 -0.0651
  777POPS   CNO12151   5.853   8.760   5.501  0.0836  0.0030 -0.0924
  777POPS   PO412152   5.481   8.490   5.645 -0.1122  0.1107  0.3500
  777POPS   GL112153   5.383   8.380   5.999 -0.0333 -0.2409 -0.0086
  777POPS   GL212154   5.237   8.599   6.199 -0.2686  0.0806 -0.2762
  777POPS   C1A12155   5.605   8.213   6.341 -0.1893 -0.1508  0.3496
  777POPS   D2A12156   5.484   8.058   6.710  0.0138 -0.2282  0.0484
  777POPS   C3A12157   5.635   8.161   7.165  0.1679  0.1046 -0.2092
  777POPS   C4A12158   5.767   8.129   7.614  0.2820 -0.2453  0.1767
  777POPS   C1B12159   5.244   8.451   6.563 -0.1925 -0.0492  0.1274
  777POPS   C2B12160   5.251   8.434   7.000 -0.0439 -0.1473 -0.4666
  777POPS   C3B12161   5.104   7.983   7.121  0.1617  0.0326 -0.2014
  777POPS   C4B12162   4.667   7.752   7.089 -0.1451 -0.0626  0.0542
  778POPS   CNO12163  16.099   2.957   5.672  0.0895 -0.2125 -0.3534
  778POPS   PO412164  15.803   2.689   5.784 -0.0137 -0.1467  0.2002
  778POPS   GL112165  15.989   2.623   6.112 -0.0320  0.1703  0.0658
  778POPS   GL212166  15.747   2.736   6.393  0.1230  0.0644 -0.1961
  778POPS   C1A12167  16.264   2.270   6.336  0.0135 -0.0284 -0.1681
  778POPS   D2A12168  16.517   2.258   6.725  0.1339 -0.1727  0.2195
  778POPS   C3A12169  16.573   2.141   7.231  0.1759  0.0189  0.1317
  778POPS   C4A12170  16.674   2.319   7.604 -0.4038 -0.0822 -0.1030
  778POPS   C1B12171  16.058   2.618   6.627 -0.1059 -0.0969  0.3981
  778POPS   C2B12172  16.248   2.553   7.038  0.1000 -0.1968  0.4314
  778POPS   C3B12173  16.508   2.692   7.323  0.4343  0.2464 -0.3882
  778POPS   C4B12174  16.516   2.726   7.817 -0.0810 -0.3276 -0.1074
  779POPS   CNO12175   9.925   1.746   6.085  0.2824  0.1761 -0.2456
  779POPS   PO412176  10.330   1.671   5.837  0.3382 -0.4143  0.0275
  779POPS   GL112177  10.407   1.959   6.232 -0.0551  0.1773 -0.0993
  779POPS   GL212178  10.555   1.836   6.507  0.2719  0.2532 -0.2320
  779POPS   C1A12179  10.083   1.895   6.542  0.1959 -0.0799 -0.0816
  779POPS   D2A12180   9.702   1.744   6.636 -0.0101  0.2560 -0.0478
  779POPS   C3A12181   9.719   1.442   7.022 -0.0166  0.0212 -0.0402
  779POPS   C4A12182  10.026   1.205   7.221 -0.0790 -0.1562  0.3981
  779POPS   C1B12183  10.733   1.957   6.817 -0.0502  0.0661 -0.1783
  779POPS   C2B12184  10.794   2.185   7.073 -0.1425 -0.0462  0.0142
  779POPS   C3B12185  10.874   2.307   7.520 -0.1301  0.0780 -0.0549
  779POPS   C4B12186  10.565   2.358   7.884  0.0044 -0.0291  0.0142
  780POPS   CNO12187   8.888   3.846   5.162  0.4359  0.3118  0.1156
  780POPS   PO412188   9.002   3.943   5.581  0.2152  0.3125  0.0371
  780POPS   GL112189   8.892   4.011   5.991  0.0175 -0.2928  0.0627
  780POPS   GL212190   8.742   3.768   6.007  0.1592  0.0222  0.1663
  780POPS   C1A12191   9.050   3.952   6.406 -0.3715 -0.1869 -0.1298
  780POPS   D2A12192   9.029   3.653   6.816 -0.1461 -0.0930  0.1969
  780POPS   C3A12193   9.296   3.717   7.126  0.1059  0.4536  0.1416
  780POPS   C4A12194   9.562   3.662   7.534  0.2089  0.0192  0.0399
  780POPS   C1B12195   9.023   3.523   6.187  0.1766 -0.1643  0.0334
  780POPS   C2B12196   9.412   3.560   6.476  0.2089  0.1337 -0.2977
  780POPS   C3B12197   9.683   3.496   6.831 -0.1581  0.0342  0.2901
  780POPS   C4B12198   9.788   3.765   7.124 -0.2066  0.2497  0.1148
  781POPS   CNO12199   3.785   4.287   5.346  0.1484 -0.2244  0.1461
  781POPS   PO412200   3.539   4.483   5.742 -0.0792 -0.1183 -0.2275
  781POPS   GL112201   3.604   4.356   6.103 -0.0617 -0.1612 -0.1499
  781POPS   GL212202   3.376   4.252   6.211 -0.0565 -0.2693 -0.1122
  781POPS   C1A12203   3.808   4.233   6.565  0.1440  0.3652 -0.1802
  781POPS   D2A12204   3.973   4.357   6.902 -0.1716 -0.0621 -0.3873
  781POPS   C3A12205   3.697   4.473   7.217 -0.2259  0.1085  0.2035
  781POPS   C4A12206   3.501   4.500   7.552 -0.0915 -0.0165  0.2618
  781POPS   C1B12207   3.323   4.409   6.618 -0.1636 -0.0147 -0.1029
  781POPS   C2B12208   3.147   4.457   7.129  0.0646 -0.1710  0.0617
  781POPS   C3B12209   2.936   4.565   7.515 -0.0426  0.1377 -0.1336
  781POPS   C4B12210   2.652   4.789   7.722  0.2265  0.1628  0.1627
  782POPS   CNO12211   8.901  15.607   5.219 -0.2219 -0.2714  0.3000
  782POPS   PO412212   8.968  15.314   5.441  0.1285 -0.2299 -0.1470
  782POPS   GL112213   9.049  15.295   5.877 -0.1516 -0.0028  0.0498
  782POPS   GL212214   8.935  15.447   5.951  0.3528 -0.0954  0.0344
  782POPS   C1A12215   8.962  14.955   6.127  0.0376 -0.0487 -0.0246
  782POPS   D2A12216   8.679  14.854   6.332 -0.4490  0.2910 -0.2299
  782POPS   C3A12217   8.540  14.760   6.783 -0.1444 -0.0713 -0.1145
  782POPS   C4A12218   8.562  14.721   7.291  0.2135  0.3101  0.1034
  782POPS   C1B12219   8.785  15.399   6.365  0.0781 -0.3440  0.0271
  782POPS   C2B12220   8.908  15.145   6.677  0.3472 -0.3619  0.1471
  782POPS   C3B12221   9.050  14.758   6.789  0.0473  0.1484  0.1957
  782POPS   C4B12222   9.244  14.369   6.541 -0.0767 -0.0663  0.1997
  783POPS   CNO12223  17.580   0.743   5.275  0.1508 -0.0293  0.0935
  783POPS   PO412224  17.224   0.571   5.597 -0.0799  0.2220  0.0799
  783POPS   GL112225  17.147   0.716   6.029  0.3226 -0.1826  0.1824
  783POPS   GL212226  17.086   1.075   6.139 -0.2834  0.1391  0.1389
  783POPS   C1A12227  17.096   0.718   6.493 -0.0291  0.0644  0.2917
  783POPS   D2A12228  17.130   0.822   6.883  0.2723  0.1868 -0.2202
  783POPS   C3A12229  17.464   0.755   7.238 -0.1131 -0.3087  0.0223
  783POPS   C4A12230  17.741   0.526   7.167 -0.1477 -0.0301  0.0200
  783POPS   C1B12231  17.256   1.321   6.529  0.3210 -0.1065 -0.0473
  783POPS   C2B12232  17.351   1.397   6.983 -0.0460 -0.1642 -0.0176
  783POPS   C3B12233  17.481   1.345   7.299 -0.2827  0.0311 -0.0866
  783POPS   C4B12234  17.810   1.548   7.561 -0.0068 -0.2859 -0.0303
  784POPS   CNO12235   8.117   0.791   6.071  0.2956 -0.0149 -0.1888
  784POPS   PO412236   8.180   0.299   6.194  0.1848  0.0923  0.1443
  784POPS   GL112237   8.385   0.264   6.527 -0.1489 -0.0245  0.0739
  784POPS   GL212238   8.401  -0.092   6.599 -0.3858  0.2805 -0.0209
  784POPS   C1A12239   8.601   0.549   6.833 -0.1392  0.4727 -0.0384
  784POPS   D2A12240   8.894   0.760   6.938  0.0242 -0.1648  0.0009
  784POPS   C3A12241   8.990   0.837   7.389 -0.2382 -0.0721 -0.0312
  784POPS   C4A12242   9.293   0.886   7.767  0.0932 -0.1138  0.1920
  784POPS   C1B12243   8.574   0.058   7.056  0.4922 -0.0563 -0.0919
  784POPS   C2B12244   8.797   0.260   7.385 -0.1417  0.0140  0.0606
  784POPS   C3B12245   8.974   0.449   7.701  0.0892  0.0550 -0.1291
  784POPS   C4B12246   9.324   0.440   7.973 -0.1782  0.1669  0.3560
  785POPS   CNO12247   7.489  11.387   5.755  0.1010  0.1625 -0.1963
  785POPS   PO412248   7.537  10.946   5.764  0.1104 -0.0290 -0.1975
  785POPS   GL112249   7.792  10.957   6.223 -0.1295  0.0540  0.1115
  785POPS   GL212250   7.865  10.672   6.298 -0.3044 -0.3663 -0.0726
  785POPS   C1A12251   7.575  11.041   6.634 -0.1158  0.1345 -0.1080
  785POPS   D2A12252   7.272  11.082   6.980  0.1614 -0.1230  0.0752
  785POPS   C3A12253   7.373  11.309   7.373 -0.0192 -0.0037 -0.0981
  785POPS   C4A12254   7.729  11.423   7.730  0.0268  0.0996 -0.1746
  785POPS   C1B12255   7.999  10.776   6.706  0.1446 -0.1990 -0.4875
  785POPS   C2B12256   8.171  10.800   7.167  0.0944 -0.3647  0.1663
  785POPS   C3B12257   8.325  10.360   7.195 -0.0293 -0.0484  0.2576
  785POPS   C4B12258   8.181   9.974   7.033  0.1776  0.0057  0.1384
  786POPS   CNO12259   1.804   4.912   5.837 -0.0160  0.0184 -0.1520
  786POPS   PO412260   1.509   4.620   5.911 -0.0320 -0.0549  0.1692
  786POPS   GL112261   1.382   4.435   6.333  0.1376 -0.2747  0.2240
  786POPS   GL212262   1.097   4.485   6.244  0.1327  0.0167  0.0400
  786POPS   C1A12263   1.459   4.127   6.570  0.0869 -0.0355  0.0791
  786POPS   D2A12264   1.396   4.069   6.939  0.0759 -0.0455 -0.1426
  786POPS   C3A12265   1.047   4.239   6.952  0.0840  0.1915 -0.0147
  786POPS   C4A12266   0.700   4.240   7.283 -0.0192 -0.2294 -0.1978
  786POPS   C1B12267   1.012   4.692   6.657  0.1450 -0.2459  0.3132
  786POPS   C2B12268   0.954   4.795   7.045 -0.0964  0.2724  0.0232
  786POPS   C3B12269   0.793   4.796   7.473  0.0379 -0.0814 -0.2775
  786POPS   C4B12270   0.694   5.103   7.786 -0.2183  0.2598 -0.1773
  787POPS   CNO12271   6.692  14.497   6.140 -0.2282  0.1764 -0.0401
  787POPS   PO412272   6.893  14.818   5.968  0.3592 -0.2562  0.0711
  787POPS   GL112273   6.964  14.769   6.405  0.1059 -0.0953 -0.0219
  787POPS   GL212274   7.147  14.563   6.542  0.0157 -0.3992  0.1569
  787POPS   C1A12275   6.775  14.890   6.784 -0.0631  0.1114 -0.1898
  787POPS   D2A12276   6.981  14.708   7.138  0.1591  0.0179  0.0237
  787POPS   C3A12277   7.053  14.677   7.593 -0.0832 -0.1263  0.1563
  787POPS   C4A12278   7.333  14.831   7.951 -0.1373  0.2864  0.0657
  787POPS   C1B12279   7.191  14.324   6.928  0.1121 -0.3947 -0.0025
  787POPS   C2B12280   7.357  14.329   7.396 -0.3677 -0.0012 -0.2225
  787POPS   C3B12281   7.547  14.452   7.677  0.0071 -0.1673 -0.0326
  787POPS   C4B12282   7.915  14.533   7.800  0.1936 -0.0164 -0.0749
  788POPS   CNO12283   8.266  13.339   5.509 -0.1464 -0.1519  0.1307
  788POPS   PO412284   7.976  13.676   5.522  0.0570 -0.1906  0.1875
  788POPS   GL112285   8.183  13.693   5.948 -0.0060 -0.0340  0.0472
  788POPS   GL212286   8.095  13.556   6.075  0.1589  0.1679  0.0419
  788POPS   C1A12287   8.544  13.766   6.163  0.2445 -0.2255 -0.0155
  788POPS   D2A12288   8.547  13.642   6.547  0.1351  0.1633 -0.1162
  788POPS   C3A12289   8.798  13.590   6.836  0.1737 -0.1635  0.0720
  788POPS   C4A12290   9.183  13.517   7.090  0.1458 -0.1671  0.0924
  788POPS   C1B12291   8.129  13.398   6.541 -0.0974  0.2494 -0.1366
  788POPS   C2B12292   8.219  13.416   7.016 -0.3555 -0.2676 -0.1569
  788POPS   C3B12293   8.309  13.585   7.424  0.2614 -0.0997 -0.0575
  788POPS   C4B12294   8.380  13.667   7.851 -0.1735  0.0004 -0.1434
  789POPS   CNO12295  10.477  10.413   5.559 -0.1213  0.0029 -0.3032
  789POPS   PO412296  10.674  10.699   5.750  0.0978 -0.1568 -0.0565
  789POPS   GL112297  10.747  10.531   6.229 -0.1787  0.0089  0.5409
  789POPS   GL212298  10.590  10.243   6.424 -0.4109 -0.0561  0.2383
  789POPS   C1A12299  10.921  10.672   6.618  0.2910 -0.0893  0.2731
  789POPS   D2A12300  10.889  10.506   7.060 -0.0986  0.2773 -0.1612
  789POPS   C3A12301  10.713  10.718   7.306  0.1141 -0.1419  0.2465
  789POPS   C4A12302  10.638  10.942   7.595  0.0085  0.0409 -0.1627
  789POPS   C1B12303  10.540  10.255   6.816 -0.0074 -0.0689 -0.1753
  789POPS   C2B12304  10.448  10.155   7.211 -0.1190 -0.2056  0.1013
  789POPS   C3B12305  10.302   9.880   7.492  0.2343 -0.3163 -0.2047
  789POPS   C4B12306  10.170   9.476   7.705 -0.1265 -0.0017 -0.0536
  790POPS   CNO12307   0.999   0.409   5.346  0.2022 -0.1207 -0.0364
  790POPS   PO412308   0.767   0.372   5.728  0.0540  0.1863  0.2090
  790POPS   GL112309   0.728   0.311   6.182 -0.3206  0.0837 -0.2408
  790POPS   GL212310   0.600   0.082   6.212  0.3160 -0.2024 -0.2220
  790POPS   C1A12311   1.128   0.250   6.456  0.2461  0.0470 -0.3894
  790POPS   D2A12312   1.262   0.523   6.832  0.0260  0.3858 -0.1353
  790POPS   C3A12313   1.149   0.455   7.296  0.0826  0.0182  0.1707
  790POPS   C4A12314   0.886   0.389   7.582 -0.2103 -0.0248  0.1103
  790POPS   C1B12315   0.676   0.061   6.686 -0.2931  0.0732 -0.0136
  790POPS   C2B12316   0.984   0.074   6.969 -0.0285 -0.0960  0.0047
  790POPS   C3B12317   0.929  -0.131   7.344 -0.1008  0.1969 -0.2432
  790POPS   C4B12318   0.985  -0.079   7.833 -0.1108 -0.2413 -0.3787
  791POPS   CNO12319  12.284   9.942   5.510  0.1094  0.1925 -0.1073
  791POPS   PO412320  12.029   9.908   5.851 -0.0374 -0.0595  0.2378
  791POPS   GL112321  12.011   9.702   6.308  0.0911  0.4515 -0.0853
  791POPS   GL212322  11.703   9.554   6.181 -0.1970  0.0760  0.1558
  791POPS   C1A12323  11.963   9.743   6.682  0.0726 -0.0448  0.1810
  791POPS   D2A12324  11.907   9.582   7.099 -0.1470 -0.0489 -0.1004
  791POPS   C3A12325  12.100   9.627   7.459  0.3063 -0.2945 -0.3219
  791POPS   C4A12326  12.392   9.722   7.822  0.0198 -0.0216  0.1942
  791POPS   C1B12327  11.364   9.581   6.473  0.0832 -0.2583  0.0097
  791POPS   C2B12328  11.086   9.636   6.828  0.1961 -0.2075 -0.0336
  791POPS   C3B12329  11.144   9.607   7.267 -0.0439 -0.3320  0.0877
  791POPS   C4B12330  11.540   9.420   7.451 -0.1126  0.2044  0.2408
  792POPS   CNO12331  16.230   4.316   5.672  0.2668  0.3195 -0.0561
  792POPS   PO412332  16.485   4.571   5.876  0.2928 -0.0600 -0.1306
  792POPS   GL112333  16.572   4.720   6.265  0.3745 -0.0084 -0.2221
  792POPS   GL212334  16.691   4.981   6.362 -0.0519  0.2395 -0.1707
  792POPS   C1A12335  16.808   4.392   6.549 -0.3985 -0.2558  0.0599
  792POPS   D2A12336  16.778   3.919   6.598  0.0056 -0.2663 -0.1925
  792POPS   C3A12337  16.824   3.511   6.444 -0.2961  0.2645  0.0770
  792POPS   C4A12338  16.825   3.158   6.238 -0.0554  0.0589 -0.1006
  792POPS   C1B12339  16.640   4.807   6.754  0.0438  0.0304 -0.1087
  792POPS   C2B12340  16.391   4.431   6.899  0.0059 -0.2508  0.1759
  792POPS   C3B12341  16.294   4.203   7.273 -0.2572  0.1642  0.1992
  792POPS   C4B12342  16.115   3.970   7.456  0.0978  0.0675  0.3015
  793POPS   CNO12343   1.528   2.108   6.006  0.1009  0.0862  0.2628
  793POPS   PO412344   1.745   1.763   5.869  0.0992  0.0368  0.1638
  793POPS   GL112345   1.857   1.939   6.344  0.1574 -0.4109 -0.3003
  793POPS   GL212346   1.562   2.038   6.465  0.1375  0.0174 -0.0965
  793POPS   C1A12347   2.060   1.754   6.724 -0.2830 -0.0063 -0.1386
  793POPS   D2A12348   2.084   1.544   7.134 -0.0082 -0.0599 -0.0433
  793POPS   C3A12349   2.362   1.317   7.147 -0.1291 -0.4339  0.2595
  793POPS   C4A12350   2.683   1.089   6.927  0.0925  0.2142 -0.2891
  793POPS   C1B12351   1.594   1.922   6.818  0.3012 -0.0808  0.0618
  793POPS   C2B12352   1.798   2.006   7.167  0.2208  0.0684  0.0959
  793POPS   C3B12353   2.111   2.096   7.543  0.1023  0.3446 -0.6103
  793POPS   C4B12354   2.102   2.196   7.959 -0.3255 -0.2259 -0.0653
  794POPS   CNO12355   1.944  12.166   5.893 -0.0446  0.0155 -0.1227
  794POPS   PO412356   1.836  12.146   6.277 -0.1778  0.1501  0.0709
  794POPS   GL112357   1.461  12.265   6.600 -0.1001 -0.0140 -0.1359
  794POPS   GL212358   1.156  12.058   6.660  0.0697  0.3243 -0.1660
  794POPS   C1A12359   1.241  12.441   7.007 -0.3778  0.1738 -0.1584
  794POPS   D2A12360   1.226  12.368   7.439 -0.0312 -0.1864  0.1165
  794POPS   C3A12361   1.086  12.647   7.711  0.0466  0.0628 -0.0705
  794POPS   C4A12362   1.011  12.752   8.160 -0.0802 -0.3805 -0.2202
  794POPS   C1B12363   1.009  11.917   7.076 -0.1122 -0.0417  0.2649
  794POPS   C2B12364   0.808  11.635   7.313 -0.0491  0.2777 -0.1705
  794POPS   C3B12365   0.737  11.539   7.704 -0.0623 -0.1863 -0.2433
  794POPS   C4B12366   0.617  11.390   8.078  0.0685  0.1459  0.0503
  795POPS   CNO12367  13.408   4.125   5.654 -0.1269 -0.0901 -0.1508
  795POPS   PO412368  13.373   3.946   5.906 -0.2752 -0.0097 -0.2523
  795POPS   GL112369  13.548   3.864   6.200  0.3058  0.1638  0.3013
  795POPS   GL212370  13.311   3.639   6.292 -0.0302 -0.0810 -0.1501
  795POPS   C1A12371  13.562   4.014   6.633  0.1448  0.0456 -0.0311
  795POPS   D2A12372  13.692   4.107   7.019 -0.0533 -0.0603  0.1345
  795POPS   C3A12373  13.559   3.967   7.461  0.0931  0.3561 -0.1977
  795POPS   C4A12374  13.699   4.253   7.849  0.0270 -0.0378  0.0428
  795POPS   C1B12375  13.485   3.455   6.580  0.0506 -0.3369  0.0542
  795POPS   C2B12376  13.464   3.178   6.839  0.1458  0.0571 -0.1697
  795POPS   C3B12377  13.552   2.952   7.224  0.1300 -0.0902  0.3227
  795POPS   C4B12378  13.367   2.660   7.421  0.2182 -0.0630  0.3283
  796POPS   CNO12379   7.390   8.677   5.735  0.0563 -0.3789 -0.0031
  796POPS   PO412380   7.692   8.746   5.832  0.1313 -0.2418  0.2368
  796POPS   GL112381   7.519   8.773   6.212  0.1059  0.2219 -0.5061
  796POPS   GL212382   7.241   8.550   6.211  0.2696  0.2182 -0.0650
  796POPS   C1A12383   7.452   8.671   6.679  0.4038 -0.0061 -0.0413
  796POPS   D2A12384   7.281   8.657   7.059 -0.0083 -0.1826 -0.1603
  796POPS   C3A12385   7.563   8.615   7.367 -0.3868 -0.0808 -0.3007
  796POPS   C4A12386   7.737   8.310   7.652 -0.3376  0.0296  0.0685
  796POPS   C1B12387   7.187   8.218   6.504 -0.2762 -0.1058 -0.0589
  796POPS   C2B12388   7.148   8.163   6.986 -0.0401  0.1736 -0.1028
  796POPS   C3B12389   7.229   8.229   7.354 -0.3560  0.3525 -0.3193
  796POPS   C4B12390   7.225   8.222   7.782  0.3799  0.1235  0.4646
  797POPS   CNO12391   2.740  16.509   6.216 -0.1564  0.1741  0.1013
  797POPS   PO412392   3.157  16.402   6.276  0.0681  0.2181 -0.0420
  797POPS   GL112393   3.326  16.756   6.466 -0.2096 -0.2148  0.1603
  797POPS   GL212394   2.986  16.976   6.351 -0.1234  0.0403  0.3690
  797POPS   C1A12395   3.432  16.732   6.841 -0.2035 -0.3060 -0.0113
  797POPS   D2A12396   3.118  16.680   7.127  0.2125 -0.1760 -0.0077
  797POPS   C3A12397   3.089  16.561   7.612  0.1389  0.0533 -0.1641
  797POPS   C4A12398   3.305  16.844   7.759  0.1116  0.1561  0.0298
  797POPS   C1B12399   3.034  17.079   6.814 -0.1541 -0.0417  0.1375
  797POPS   C2B12400   3.003  17.214   7.182  0.2645  0.3411  0.0137
  797POPS   C3B12401   2.869  17.047   7.547  0.1846 -0.2365  0.0373
  797POPS   C4B12402   2.923  17.329   7.913  0.1758  0.0113  0.2538
  798POPS   CNO12403  13.744   7.571   5.738  0.1026  0.1603  0.2420
  798POPS   PO412404  13.374   7.627   5.765  0.1093  0.0537  0.1879
  798POPS   GL112405  13.407   7.622   6.168  0.0296  0.1207 -0.2059
  798POPS   GL212406  13.663   7.552   6.426 -0.0093 -0.0348 -0.0458
  798POPS   C1A12407  13.199   7.611   6.635 -0.2327  0.1163 -0.3150
  798POPS   D2A12408  13.324   7.532   7.079  0.0688 -0.0769  0.0994
  798POPS   C3A12409  12.896   7.484   7.348  0.1954 -0.1499 -0.3612
  798POPS   C4A12410  12.669   7.090   7.378 -0.0488 -0.0158  0.1817
  798POPS   C1B12411  13.731   7.568   6.760 -0.0361 -0.1037  0.1754
  798POPS   C2B12412  13.797   7.633   7.110  0.2230 -0.0359  0.1434
  798POPS   C3B12413  13.713   7.870   7.384  0.0200  0.2909 -0.2487
  798POPS   C4B12414  13.333   7.928   7.540 -0.2161 -0.2205  0.0785
  799POPS   CNO12415   7.019  14.113   6.274 -0.0142 -0.0646 -0.1237
  799POPS   PO412416   7.232  14.427   6.067  0.1361  0.2244 -0.1368
  799POPS   GL112417   7.557  14.269   6.336  0.3317  0.1308 -0.2215
  799POPS   GL212418   7.866  14.398   6.217 -0.1383  0.1532 -0.0728
  799POPS   C1A12419   7.698  14.129   6.723 -0.2903  0.1932  0.2051
  799POPS   D2A12420   7.684  14.369   7.013  0.1734 -0.1098 -0.0464
  799POPS   C3A12421   7.963  14.406   7.344  0.3032  0.2655  0.1537
  799POPS   C4A12422   8.333  14.318   7.516 -0.0715 -0.1776 -0.1908
  799POPS   C1B12423   8.030  14.013   6.388  0.1276  0.1663 -0.0613
  799POPS   C2B12424   8.154  13.836   6.804  0.0217 -0.0800  0.0856
  799POPS   C3B12425   7.895  13.910   7.171  0.1317  0.1713 -0.1297
  799POPS   C4B12426   7.964  13.969   7.568 -0.1334  0.0926 -0.1372
  800POPS   CNO12427  15.041  15.020   5.885  0.0049 -0.0794  0.3264
  800POPS   PO412428  15.458  14.899   5.741  0.0774 -0.0034  0.3360
  800POPS   GL112429  15.583  14.996   6.163 -0.3095 -0.0552  0.0925
  800POPS   GL212430  15.330  14.860   6.303  0.1267  0.1107  0.0362
  800POPS   C1A12431  15.708  15.006   6.585 -0.1895 -0.3889  0.0991
  800POPS   D2A12432  15.664  14.991   7.034  0.1225 -0.0831 -0.2427
  800POPS   C3A12433  15.357  14.987   7.361  0.0935  0.0883  0.2143
  800POPS   C4A12434  15.387  14.901   7.804  0.0549 -0.0203 -0.0374
  800POPS   C1B12435  15.346  14.755   6.734 -0.1353  0.0867 -0.1701
  800POPS   C2B12436  15.202  14.592   7.150  0.1273  0.0310 -0.1909
  800POPS   C3B12437  15.038  14.684   7.588  0.0088 -0.1120 -0.1147
  800POPS   C4B12438  14.937  15.004   8.008 -0.0736  0.1818 -0.1181
  801POPS   CNO12439  11.266  10.064   5.506  0.2035 -0.0774 -0.0182
  801POPS   PO412440  11.067   9.966   5.841  0.1620  0.1443 -0.2377
  801POPS   GL112441  11.078  10.106   6.241 -0.4048 -0.0476  0.1275
  801POPS   GL212442  10.942   9.863   6.325 -0.1496  0.0133  0.1276
  801POPS   C1A12443  11.084  10.246   6.617  0.3104 -0.3104  0.0362
  801POPS   D2A12444  10.963  10.037   7.109  0.0343  0.1167  0.2300
  801POPS   C3A12445  11.177  10.328   7.392 -0.0755  0.2082  0.0033
  801POPS   C4A12446  11.572  10.439   7.468  0.1563  0.0459  0.0579
  801POPS   C1B12447  10.626   9.801   6.637 -0.1318  0.1870 -0.0476
  801POPS   C2B12448  10.564   9.655   6.970 -0.1639  0.1905  0.3360
  801POPS   C3B12449  10.349   9.349   7.239  0.1072 -0.1588 -0.0435
  801POPS   C4B12450  10.065   9.012   7.525  0.1100  0.0191 -0.3844
  802POPS   CNO12451  16.856   8.115   6.289 -0.1246 -0.1144  0.0866
  802POPS   PO412452  16.557   7.826   6.093 -0.0696 -0.0368  0.2993
  802POPS   GL112453  16.589   7.856   6.589  0.0075  0.0218 -0.1754
  802POPS   GL212454  16.750   7.551   6.546 -0.2411 -0.0857  0.1355
  802POPS   C1A12455  16.697   8.028   6.872 -0.0746  0.2397 -0.0568
  802POPS   D2A12456  16.789   8.110   7.297 -0.0302 -0.0387 -0.0388
  802POPS   C3A12457  16.552   8.267   7.548 -0.1470  0.1196  0.0774
  802POPS   C4A12458  16.461   8.314   7.941 -0.1147 -0.2329  0.0206
  802POPS   C1B12459  16.762   7.537   7.029  0.1242  0.0804  0.0704
  802POPS   C2B12460  16.814   7.629   7.462 -0.1452  0.2229  0.1792
  802POPS   C3B12461  17.022   7.904   7.629 -0.0512  0.2090 -0.0068
  802POPS   C4B12462  16.941   8.334   7.885 -0.1396 -0.0229  0.0535
  803POPS   CNO12463  13.831   6.986   5.621  0.3326  0.0700  0.1115
  803POPS   PO412464  13.569   6.691   5.734  0.3211  0.1742 -0.2368
  803POPS   GL112465  13.674   6.809   6.111  0.0858  0.3218 -0.0918
  803POPS   GL212466  13.599   7.172   6.030 -0.0578 -0.2428  0.1915
  803POPS   C1A12467  13.815   6.668   6.615 -0.1373 -0.0699 -0.1615
  803POPS   D2A12468  13.991   6.540   6.964 -0.0493  0.0361  0.2143
  803POPS   C3A12469  14.026   6.700   7.370 -0.1263  0.1283  0.3132
  803POPS   C4A12470  13.844   6.953   7.732  0.2018  0.1729  0.0346
  803POPS   C1B12471  13.472   7.127   6.440 -0.0261  0.1417  0.0605
  803POPS   C2B12472  13.576   7.048   6.861 -0.2571 -0.4182 -0.1331
  803POPS   C3B12473  13.593   7.176   7.359 -0.1719 -0.1777  0.2199
  803POPS   C4B12474  13.512   7.471   7.615  0.0728 -0.1353  0.2498
  804POPS   CNO12475  11.015   0.444   5.648 -0.0614 -0.0494 -0.4300
  804POPS   PO412476  11.093   0.632   6.054 -0.1696 -0.0696 -0.0850
  804POPS   GL112477  11.334   0.471   6.321 -0.3761 -0.0427 -0.0433
  804POPS   GL212478  11.272   0.663   6.634 -0.3388  0.0098  0.0448
  804POPS   C1A12479  11.484   0.173   6.590  0.0559 -0.3986  0.2425
  804POPS   D2A12480  11.467  -0.115   6.940  0.2354  0.0546  0.1485
  804POPS   C3A12481  11.551   0.050   7.212  0.1347 -0.2323 -0.1218
  804POPS   C4A12482  11.457   0.153   7.573  0.4051 -0.0735 -0.0020
  804POPS   C1B12483  10.799   0.711   6.899 -0.0303  0.0672  0.0583
  804POPS   C2B12484  10.640   0.680   7.330 -0.4135  0.0199  0.0358
  804POPS   C3B12485  10.530   0.843   7.765 -0.1062 -0.0267  0.0968
  804POPS   C4B12486  10.274   0.849   8.157  0.3631  0.1004 -0.0902
  805POPS   CNO12487  10.804   1.900   5.964  0.0277 -0.0445  0.0511
  805POPS   PO412488  10.596   2.201   5.746 -0.4074  0.2140 -0.1605
  805POPS   GL112489  10.603   2.414   6.142  0.2647 -0.3051 -0.1981
  805POPS   GL212490  10.325   2.574   6.135  0.4329  0.3211 -0.0714
  805POPS   C1A12491  10.592   2.342   6.558 -0.3202  0.1842  0.1739
  805POPS   D2A12492  10.303   2.242   6.987 -0.3611 -0.0948 -0.1593
  805POPS   C3A12493  10.444   2.403   7.315  0.2642 -0.0998  0.1333
  805POPS   C4A12494  10.423   2.805   7.565  0.0056 -0.2731  0.1149
  805POPS   C1B12495  10.139   2.594   6.613 -0.0258 -0.0682  0.2376
  805POPS   C2B12496  10.152   2.743   7.016  0.1945  0.1469  0.0145
  805POPS   C3B12497  10.006   3.007   7.439 -0.2498  0.0665  0.0929
  805POPS   C4B12498   9.740   3.145   7.725  0.5134  0.1570 -0.0201
  806POPS   CNO12499   7.261  13.975   5.835 -0.0893  0.1055 -0.5410
  806POPS   PO412500   7.021  13.657   5.847  0.0667 -0.3193  0.0405
  806POPS   GL112501   7.289  13.702   6.279 -0.3462 -0.1996  0.1044
  806POPS   GL212502   7.547  13.811   6.305 -0.1055  0.2102 -0.2461
  806POPS   C1A12503   7.194  13.833   6.662 -0.1050 -0.1068 -0.0430
  806POPS   D2A12504   7.392  13.878   7.043 -0.0444  0.1743  0.1909
  806POPS   C3A12505   7.443  13.753   7.428  0.2181 -0.1902 -0.2415
  806POPS   C4A12506   7.543  13.936   7.816 -0.2408  0.1470 -0.1767
  806POPS   C1B12507   7.661  13.600   6.733  0.2275  0.1482  0.1037
  806POPS   C2B12508   7.664  13.411   7.120  0.2347 -0.1270  0.0721
  806POPS   C3B12509   7.860  13.330   7.500  0.0195  0.0596  0.2293
  806POPS   C4B12510   7.939  13.462   7.788  0.0758 -0.2227  0.2616
  807POPS   CNO12511   2.139  17.243   6.709 -0.2595 -0.0368  0.0452
  807POPS   PO412512   2.013  17.500   6.351 -0.1020  0.2972 -0.0613
  807POPS   GL112513   2.322  17.666   6.472  0.1762  0.1638 -0.3022
  807POPS   GL212514   2.515  17.883   6.260 -0.0738  0.0538  0.0730
  807POPS   C1A12515   2.334  17.831   6.870  0.1615 -0.0107 -0.1778
  807POPS   D2A12516   2.218  17.904   7.367  0.0527  0.1242  0.1623
  807POPS   C3A12517   2.549  18.175   7.648  0.0819 -0.1456  0.2117
  807POPS   C4A12518   3.037  18.316   7.832 -0.1538  0.1135  0.1321
  807POPS   C1B12519   2.735  17.987   6.651 -0.3371  0.1188  0.0369
  807POPS   C2B12520   2.960  18.255   6.824  0.0097  0.2407  0.1102
  807POPS   C3B12521   3.222  18.641   6.974  0.0742  0.2429  0.4463
  807POPS   C4B12522   3.209  19.062   6.843 -0.3116 -0.0133  0.0185
  808POPS   CNO12523  12.220   8.405   5.594  0.0346  0.3233 -0.0220
  808POPS   PO412524  11.902   8.399   5.708 -0.1138 -0.0487  0.0210
  808POPS   GL112525  11.930   8.323   6.138 -0.1693 -0.2148 -0.1600
  808POPS   GL212526  12.071   8.612   6.264  0.0982  0.1085  0.0679
  808POPS   C1A12527  11.890   8.237   6.565  0.2555  0.4492 -0.0371
  808POPS   D2A12528  11.560   7.957   6.651  0.1550 -0.1898  0.0320
  808POPS   C3A12529  11.581   7.801   7.051 -0.0813  0.1990  0.1467
  808POPS   C4A12530  11.640   7.729   7.517  0.0898  0.0684 -0.5280
  808POPS   C1B12531  12.059   8.859   6.615  0.0424 -0.2614  0.0361
  808POPS   C2B12532  11.947   9.064   6.952 -0.0170 -0.0860 -0.5024
  808POPS   C3B12533  11.875   9.111   7.403 -0.2279  0.1942  0.0965
  808POPS   C4B12534  11.805   8.908   7.841  0.2127  0.0369  0.1939
  809POPS   CNO12535   5.075  14.120   5.899  0.0355 -0.1885  0.1983
  809POPS   PO412536   4.937  14.092   6.271 -0.0049  0.2991 -0.1858
  809POPS   GL112537   4.761  13.838   6.663  0.0078  0.1186  0.0044
  809POPS   GL212538   4.811  13.562   6.759 -0.0811 -0.0593  0.0722
  809POPS   C1A12539   4.636  14.001   7.098 -0.2074  0.1560 -0.0577
  809POPS   D2A12540   4.293  13.864   7.314  0.1771 -0.1350  0.0996
  809POPS   C3A12541   4.247  13.622   7.538 -0.2410  0.2589 -0.1448
  809POPS   C4A12542   4.356  13.419   7.870  0.0612  0.1875  0.0852
  809POPS   C1B12543   4.408  13.429   7.037  0.0812 -0.0654  0.1943
  809POPS   C2B12544   3.948  13.492   7.114  0.3306 -0.1058 -0.0513
  809POPS   C3B12545   3.786  13.323   7.318 -0.4026  0.1220 -0.1339
  809POPS   C4B12546   3.630  13.063   7.701  0.0496  0.1714 -0.4242
  810POPS   CNO12547  15.294  11.893   5.913  0.4202 -0.1158  0.3364
  810POPS   PO412548  15.395  11.854   6.367 -0.1546 -0.2099  0.1958
  810POPS   GL112549  15.267  11.708   6.848 -0.1412 -0.0219 -0.1485
  810POPS   GL212550  15.015  11.517   6.974  0.3624 -0.0873 -0.0533
  810POPS   C1A12551  15.258  11.706   7.393 -0.0629 -0.2601  0.1489
  810POPS   D2A12552  15.249  11.414   7.632 -0.1749 -0.0314  0.1878
  810POPS   C3A12553  15.549  11.347   7.973 -0.0663  0.2761  0.2791
  810POPS   C4A12554  15.739  11.122   8.244  0.2349  0.3488 -0.3174
  810POPS   C1B12555  14.821  11.443   7.391  0.1901 -0.0715 -0.1449
  810POPS   C2B12556  14.779  11.223   7.819  0.2236  0.0892  0.2242
  810POPS   C3B12557  14.849  10.892   8.100 -0.2086  0.4838  0.0409
  810POPS   C4B12558  15.276  10.690   8.107  0.0869  0.3344 -0.2928
  811POPS   CNO12559   3.276   8.201   6.019 -0.0191  0.0617  0.0077
  811POPS   PO412560   3.315   8.708   6.010  0.0751 -0.0135 -0.0233
  811POPS   GL112561   3.383   8.626   6.439 -0.3240 -0.1445 -0.0548
  811POPS   GL212562   3.258   8.400   6.540 -0.0312  0.3660  0.2156
  811POPS   C1A12563   3.623   8.658   6.706 -0.1622  0.2330 -0.0574
  811POPS   D2A12564   3.834   8.459   7.056  0.0830 -0.2685 -0.1735
  811POPS   C3A12565   3.579   8.484   7.312 -0.0091  0.3644 -0.1798
  811POPS   C4A12566   3.585   8.158   7.688 -0.0636 -0.1146  0.0959
  811POPS   C1B12567   3.280   8.267   7.028 -0.0108 -0.1285  0.2494
  811POPS   C2B12568   3.142   8.105   7.354 -0.1877  0.2050 -0.2257
  811POPS   C3B12569   2.742   8.095   7.653  0.0439 -0.0554  0.0999
  811POPS   C4B12570   2.546   7.798   7.806 -0.0346 -0.1893  0.2167
  812POPS   CNO12571  13.802   8.563   6.452 -0.1277 -0.0076 -0.1546
  812POPS   PO412572  14.171   8.435   6.295 -0.0916  0.2504  0.3091
  812POPS   GL112573  14.012   8.117   6.602 -0.1542 -0.3795  0.1009
  812POPS   GL212574  13.648   8.054   6.490 -0.0977 -0.0415 -0.4222
  812POPS   C1A12575  14.020   8.121   7.010 -0.3668 -0.1526 -0.1471
  812POPS   D2A12576  14.120   8.190   7.423  0.3701 -0.0942 -0.2257
  812POPS   C3A12577  13.993   8.523   7.715  0.1122 -0.1507  0.0070
  812POPS   C4A12578  13.787   8.666   8.099  0.3183  0.0846  0.0834
  812POPS   C1B12579  13.576   8.053   6.829 -0.0580  0.0522 -0.3296
  812POPS   C2B12580  13.366   8.153   7.085  0.1016 -0.1469 -0.2218
  812POPS   C3B12581  13.126   8.365   7.511 -0.0665 -0.0072 -0.0583
  812POPS   C4B12582  13.008   8.283   7.906 -0.1781 -0.0412  0.2043
  813POPS   CNO12583  11.728  13.995   5.676 -0.3920 -0.2821  0.0891
  813POPS   PO412584  11.203  14.089   5.698  0.1487  0.2895 -0.4927
  813POPS   GL112585  11.309  14.007   6.156 -0.0605  0.3239  0.0231
  813POPS   GL212586  11.649  14.036   6.314  0.0936 -0.1701 -0.3150
  813POPS   C1A12587  11.158  14.170   6.566  0.3919  0.0066 -0.0847
  813POPS   D2A12588  11.070  14.312   6.903 -0.0131  0.1445  0.1441
  813POPS   C3A12589  11.081  13.983   7.218 -0.1920 -0.0331 -0.4385
  813POPS   C4A12590  10.856  13.792   7.592 -0.0981  0.0248  0.1900
  813POPS   C1B12591  11.907  14.051   6.616  0.0316  0.1384 -0.4822
  813POPS   C2B12592  12.258  13.732   6.779 -0.0585  0.0704  0.0004
  813POPS   C3B12593  12.517  13.726   7.040 -0.1976  0.0685  0.2930
  813POPS   C4B12594  12.481  13.944   7.431 -0.1336  0.0636  0.1941
  814YOPS   CNO12595  12.497   4.965   5.391 -0.2631 -0.2315  0.1937
  814YOPS   PO412596  12.680   4.914   5.728  0.1031  0.0120  0.0478
  814YOPS   GL112597  12.550   4.713   6.108  0.2478 -0.0356  0.2044
  814YOPS   GL212598  12.824   4.686   6.301  0.1116  0.0415  0.0165
  814YOPS   C1A12599  12.278   4.731   6.446  0.2874 -0.0250  0.2125
  814YOPS   D2A12600  12.195   4.738   6.912  0.0197 -0.0339  0.4148
  814YOPS   C3A12601  11.737   4.629   7.041 -0.0089  0.2291 -0.1064
  814YOPS   C4A12602  11.598   4.870   7.277  0.0916 -0.1621  0.0855
  814YOPS   C1B12603  12.595   5.119   6.461  0.1758 -0.3404 -0.1301
  814YOPS   C2B12604  12.258   5.190   6.736  0.1620 -0.2497 -0.0698
  814YOPS   D3B12605  12.098   5.232   7.111 -0.0584 -0.0515 -0.0163
  814YOPS   C4B12606  11.909   5.629   7.123  0.2000 -0.3513  0.0014
  815YOPS   CNO12607  16.803  16.472   5.603 -0.0441  0.2561 -0.1736
  815YOPS   PO412608  16.314  16.667   5.665  0.2396  0.1589  0.2916
  815YOPS   GL112609  16.574  16.725   6.024  0.1040 -0.0786 -0.0340
  815YOPS   GL212610  16.906  16.894   6.035  0.1206  0.0942  0.0020
  815YOPS   C1A12611  16.762  16.883   6.554  0.0145  0.2649  0.2712
  815YOPS   D2A12612  16.786  16.964   6.968  0.0647 -0.1699  0.3425
  815YOPS   C3A12613  16.804  17.261   7.129 -0.1827  0.0469 -0.0458
  815YOPS   C4A12614  16.999  17.677   7.089 -0.1238 -0.0217  0.0860
  815YOPS   C1B12615  17.247  17.177   6.149  0.0158  0.1844 -0.0492
  815YOPS   C2B12616  17.582  17.177   6.391 -0.2982 -0.1037 -0.0114
  815YOPS   D3B12617  18.010  17.108   6.592  0.5412 -0.0235  0.0196
  815YOPS   C4B12618  17.878  16.708   6.787 -0.1340 -0.0457  0.2179
  816YOPS   CNO12619   5.158  12.775   6.237 -0.2113 -0.0019 -0.3085
  816YOPS   PO412620   5.422  12.362   6.064 -0.2300  0.1652  0.1774
  816YOPS   GL112621   5.373  12.210   6.505  0.0403 -0.0987  0.1502
  816YOPS   GL212622   5.461  11.941   6.734  0.0662  0.0436 -0.0916
  816YOPS   C1A12623   5.390  12.520   6.903  0.0928 -0.2447  0.1152
  816YOPS   D2A12624   5.117  12.774   7.117  0.2493 -0.2092  0.0817
  816YOPS   C3A12625   5.080  13.149   7.552  0.0427 -0.2411 -0.2000
  816YOPS   C4A12626   5.491  12.946   7.817  0.1841  0.2265  0.0247
  816YOPS   C1B12627   5.700  11.843   7.107 -0.0841 -0.0887 -0.1557
  816YOPS   C2B12628   5.854  12.062   7.365 -0.0037  0.1870  0.1257
  816YOPS   D3B12629   6.221  12.168   7.595  0.1772  0.3376 -0.1307
  816YOPS   C4B12630   6.314  12.509   7.809  0.1136 -0.2131 -0.1701
  817YOPS   CNO12631   3.394  12.382   6.165 -0.1800 -0.0385  0.1897
  817YOPS   PO412632   3.791  12.446   6.204 -0.6065  0.2069  0.0361
  817YOPS   GL112633   3.968  12.714   6.627 -0.1110 -0.2324  0.0509
  817YOPS   GL212634   4.236  12.671   6.594 -0.1661  0.3695 -0.0297
  817YOPS   C1A12635   4.101  12.469   7.045 -0.2238  0.1024 -0.1677
  817YOPS   D2A12636   4.270  12.593   7.433  0.1423  0.0852 -0.0154
  817YOPS   C3A12637   4.452  12.551   7.881  0.0193 -0.2838 -0.1170
  817YOPS   C4A12638   4.851  12.651   7.961 -0.1683 -0.1754  0.0839
  817YOPS   C1B12639   4.512  12.667   6.989  0.6011 -0.1543 -0.0087
  817YOPS   C2B12640   4.775  12.547   7.395 -0.4353  0.1496  0.1510
  817YOPS   D3B12641   5.219  12.660   7.560 -0.0647  0.1271 -0.1288
  817YOPS   C4B12642   5.357  12.467   7.953  0.1114 -0.0583 -0.1161
  818YOPS   CNO12643  11.548  15.924   5.201 -0.0806  0.1557  0.1691
  818YOPS   PO412644  11.705  15.849   5.660 -0.1216 -0.1212  0.1251
  818YOPS   GL112645  11.909  15.842   6.035  0.3785  0.0647 -0.1469
  818YOPS   GL212646  11.672  15.970   6.260 -0.0548 -0.1898  0.1007
  818YOPS   C1A12647  12.212  15.980   6.271  0.3442 -0.0342  0.2642
  818YOPS   D2A12648  12.244  16.367   6.373 -0.0688  0.3515 -0.0442
  818YOPS   C3A12649  12.010  16.556   6.800 -0.1037 -0.1935  0.1691
  818YOPS   C4A12650  11.770  16.949   6.811 -0.2065 -0.2285 -0.0812
  818YOPS   C1B12651  11.828  16.139   6.620  0.0661  0.0684  0.0634
  818YOPS   C2B12652  11.874  16.156   7.072 -0.1800  0.2168  0.0582
  818YOPS   D3B12653  12.091  16.109   7.365 -0.0818 -0.4167 -0.0841
  818YOPS   C4B12654  12.532  16.254   7.381 -0.2217 -0.0286  0.0046
  819YOPS   CNO12655   1.798  15.403   5.742 -0.1512 -0.1748 -0.2793
  819YOPS   PO412656   1.863  15.121   6.137  0.0030 -0.1504 -0.0991
  819YOPS   GL112657   1.746  15.407   6.492  0.1436 -0.1032 -0.2206
  819YOPS   GL212658   1.478  15.247   6.534 -0.0228  0.0395 -0.2003
  819YOPS   C1A12659   1.721  15.581   6.881  0.1039 -0.0168 -0.5159
  819YOPS   D2A12660   2.005  15.411   7.172  0.2158 -0.0191  0.4451
  819YOPS   C3A12661   2.108  15.322   7.637  0.0405  0.0662  0.0050
  819YOPS   C4A12662   2.428  15.439   7.851  0.0750 -0.3136 -0.1108
  819YOPS   C1B12663   1.162  15.119   6.855 -0.0614  0.2391 -0.0530
  819YOPS   C2B12664   0.957  15.100   7.361 -0.2608  0.1051 -0.0036
  819YOPS   D3B12665   0.729  15.020   7.753 -0.4033 -0.1095 -0.2499
  819YOPS   C4B12666   0.850  15.235   8.101 -0.0928 -0.1827  0.1668
  820YOPS   CNO12667   0.799   5.118   5.416  0.3041  0.3685  0.1360
  820YOPS   PO412668   0.859   5.348   5.743  0.2252  0.1783  0.0135
  820YOPS   GL112669   0.829   5.145   6.157  0.1203 -0.0829  0.0442
  820YOPS   GL212670   1.148   4.981   6.273 -0.0934 -0.1222 -0.0614
  820YOPS   C1A12671   0.627   5.113   6.548 -0.1167  0.1330 -0.3248
  820YOPS   D2A12672   0.898   5.244   6.871 -0.3659  0.0917 -0.2938
  820YOPS   C3A12673   0.991   5.169   7.314 -0.5569 -0.2604  0.2023
  820YOPS   C4A12674   1.272   5.010   7.535  0.1112 -0.1001 -0.2859
  820YOPS   C1B12675   1.330   5.199   6.590  0.1164  0.0736 -0.0828
  820YOPS   C2B12676   1.391   5.180   7.009  0.1744  0.0268 -0.1500
  820YOPS   D3B12677   1.693   5.003   7.277  0.0086  0.1647 -0.2438
  820YOPS   C4B12678   1.681   4.686   7.614  0.2815  0.2676  0.0603
  821YOPS   CNO12679  10.291   6.055   5.225  0.2231 -0.0438 -0.0362
  821YOPS   PO412680  10.572   6.214   5.092 -0.1209 -0.0313 -0.0632
  821YOPS   GL112681  10.515   6.209   5.617 -0.1406  0.1908  0.1764
  821YOPS   GL212682  10.439   6.459   5.677 -0.2068  0.1905 -0.0941
  821YOPS   C1A12683  10.500   6.067   6.066  0.1629 -0.3647  0.0360
  821YOPS   D2A12684  10.623   5.772   6.342 -0.1549  0.1089  0.1691
  821YOPS   C3A12685  10.699   5.345   6.421  0.1417 -0.0441 -0.0623
  821YOPS   C4A12686  11.101   5.326   6.195 -0.2446 -0.0455  0.3149
  821YOPS   C1B12687  10.798   6.532   5.842 -0.1688  0.1298  0.2009
  821YOPS   C2B12688  10.837   6.416   6.322 -0.0188  0.0072 -0.1852
  821YOPS   D3B12689  11.073   6.454   6.678  0.1061  0.0964 -0.1836
  821YOPS   C4B12690  11.439   6.760   6.660  0.1816  0.1474  0.0783
  822YOPS   CNO12691   4.086   0.214   5.813  0.3363  0.0615 -0.1360
  822YOPS   PO412692   4.275   0.228   6.168 -0.1295 -0.1193  0.1295
  822YOPS   GL112693   4.345   0.190   6.698  0.0521 -0.0101  0.3048
  822YOPS   GL212694   4.001   0.008   6.654 -0.2208 -0.4585 -0.1024
  822YOPS   C1A12695   4.311   0.194   7.085 -0.2201  0.1269  0.1028
  822YOPS   D2A12696   4.253   0.207   7.606 -0.2103 -0.1761  0.0272
  822YOPS   C3A12697   4.077  -0.038   7.850  0.0764 -0.1429 -0.3059
  822YOPS   C4A12698   4.270  -0.349   8.098  0.4549  0.1201  0.0117
  822YOPS   C1B12699   3.571  -0.086   6.758 -0.0526  0.2403 -0.2468
  822YOPS   C2B12700   3.399  -0.019   7.138 -0.3552  0.0285  0.2153
  822YOPS   D3B12701   3.269  -0.260   7.513  0.0717  0.0882 -0.1233
  822YOPS   C4B12702   3.370  -0.691   7.681  0.0838 -0.3372  0.2583
  823YOPS   CNO12703   0.884  12.765   5.985 -0.0971  0.0320 -0.4446
  823YOPS   PO412704   0.461  12.979   5.882 -0.0156  0.1350  0.2494
  823YOPS   GL112705   0.476  13.066   6.296  0.0735  0.0276  0.1429
  823YOPS   GL212706   0.408  13.392   6.510  0.0885  0.2972 -0.1585
  823YOPS   C1A12707   0.390  12.866   6.723 -0.2393  0.0361  0.1635
  823YOPS   D2A12708   0.331  12.856   7.213  0.2931 -0.0584  0.0989
  823YOPS   C3A12709   0.591  12.680   7.567 -0.2108 -0.1235  0.0295
  823YOPS   C4A12710   0.342  12.605   7.914  0.0673 -0.0082 -0.0304
  823YOPS   C1B12711   0.204  13.271   6.972 -0.0629  0.0974 -0.1221
  823YOPS   C2B12712   0.323  13.407   7.383 -0.0180  0.3928  0.2978
  823YOPS   D3B12713   0.450  13.168   7.789 -0.3991 -0.2240  0.2107
  823YOPS   C4B12714   0.919  13.151   7.908 -0.2375 -0.1804 -0.2034
  824YOPS   CNO12715   2.384   8.219   5.739 -0.0161  0.1119  0.2562
  824YOPS   PO412716   2.233   7.841   5.919 -0.1265  0.0155  0.1431
  824YOPS   GL112717   2.150   7.671   6.321  0.0999  0.3018  0.0445
  824YOPS   GL212718   1.953   7.839   6.604  0.2788 -0.0191  0.0749
  824YOPS   C1A12719   2.327   7.640   6.851 -0.0640 -0.3428  0.0667
  824YOPS   D2A12720   2.646   7.279   7.144 -0.0610 -0.1271  0.1025
  824YOPS   C3A12721   2.731   6.775   7.205  0.0320  0.0382 -0.2909
  824YOPS   C4A12722   2.993   6.505   7.246  0.2906  0.1299 -0.0507
  824YOPS   C1B12723   1.917   7.866   7.000  0.1765 -0.0418  0.0402
  824YOPS   C2B12724   2.086   7.627   7.392  0.0742  0.0494 -0.2269
  824YOPS   D3B12725   2.077   7.450   7.785  0.2465 -0.2815 -0.2166
  824YOPS   C4B12726   1.780   7.559   7.989 -0.1451 -0.0088 -0.0727
  825YOPS   CNO12727   6.515   3.610   6.196  0.0798  0.1430 -0.3565
  825YOPS   PO412728   6.699   3.976   6.072  0.1048 -0.0599 -0.4230
  825YOPS   GL112729   6.443   4.012   6.465  0.2321 -0.2179  0.0610
  825YOPS   GL212730   6.230   3.789   6.586  0.0236 -0.0222  0.4207
  825YOPS   C1A12731   6.419   4.222   6.836  0.0857  0.2134 -0.1372
  825YOPS   D2A12732   6.457   4.088   7.311 -0.2486 -0.0479  0.0984
  825YOPS   C3A12733   6.303   3.746   7.389 -0.0539  0.1524 -0.2370
  825YOPS   C4A12734   6.145   3.785   7.838  0.0434  0.1343  0.0420
  825YOPS   C1B12735   6.453   3.743   6.927 -0.0338 -0.0875  0.1492
  825YOPS   C2B12736   6.657   3.421   7.310 -0.2471  0.0230 -0.2159
  825YOPS   D3B12737   6.639   3.540   7.839 -0.0182 -0.0007 -0.1551
  825YOPS   C4B12738   6.630   4.051   7.899  0.0827 -0.2890 -0.2422
  826YOPS   CNO12739   9.087  14.883   5.635  0.1133 -0.0606  0.1117
  826YOPS   PO412740   9.552  14.745   5.663  0.0759 -0.1847  0.1427
  826YOPS   GL112741   9.445  14.993   6.017  0.0928 -0.1423  0.1826
  826YOPS   GL212742   9.720  15.123   6.138  0.2680 -0.3927  0.0969
  826YOPS   C1A12743   9.336  14.837   6.408  0.2250  0.1830  0.1606
  826YOPS   D2A12744   9.578  14.697   6.751 -0.1811  0.0416  0.2873
  826YOPS   C3A12745   9.856  14.983   6.970  0.1698  0.1648  0.3329
  826YOPS   C4A12746  10.103  14.981   7.381  0.1302  0.0178 -0.0749
  826YOPS   C1B12747   9.985  15.093   6.480 -0.1503  0.2848 -0.0954
  826YOPS   C2B12748  10.215  15.477   6.694 -0.2732  0.0383 -0.3252
  826YOPS   D3B12749  10.155  15.465   7.111 -0.4682  0.2869  0.0563
  826YOPS   C4B12750  10.513  15.306   7.330 -0.2957  0.3159 -0.1789
  827YOPS   CNO12751  12.639   3.642   5.427 -0.2429  0.0236 -0.0439
  827YOPS   PO412752  12.560   3.355   5.754  0.0480 -0.1168 -0.0185
  827YOPS   GL112753  12.722   3.238   6.099  0.0287  0.1671  0.1731
  827YOPS   GL212754  12.553   2.973   6.234 -0.0277 -0.3201  0.0504
  827YOPS   C1A12755  12.821   3.390   6.537  0.0380  0.1131 -0.0685
  827YOPS   D2A12756  13.074   3.488   6.907 -0.0311  0.2372 -0.0851
  827YOPS   C3A12757  13.492   3.682   7.019  0.0137  0.1052 -0.0868
  827YOPS   C4A12758  13.864   3.460   7.390  0.2624 -0.2548  0.3608
  827YOPS   C1B12759  12.565   2.989   6.633  0.0027 -0.0866 -0.2010
  827YOPS   C2B12760  12.686   3.193   7.031 -0.0023  0.4071 -0.2792
  827YOPS   D3B12761  13.074   3.110   7.241 -0.2941  0.3326 -0.0788
  827YOPS   C4B12762  13.349   3.338   7.461 -0.1887  0.0550 -0.1127
  828YOPS   CNO12763   4.089  13.971   6.041 -0.0818  0.1207  0.1748
  828YOPS   PO412764   4.036  13.649   6.327 -0.0142  0.0655  0.1205
  828YOPS   GL112765   3.647  13.541   6.505  0.1093  0.2021 -0.0910
  828YOPS   GL212766   3.508  13.232   6.588  0.2502 -0.3070 -0.0265
  828YOPS   C1A12767   3.452  13.610   6.966 -0.0621  0.1865 -0.0037
  828YOPS   D2A12768   3.320  13.626   7.401  0.0788  0.2520 -0.0718
  828YOPS   C3A12769   3.463  13.588   7.836 -0.0359 -0.1723 -0.0675
  828YOPS   C4A12770   3.890  13.489   7.804 -0.2059  0.0881 -0.0506
  828YOPS   C1B12771   3.614  12.996   6.963  0.0367 -0.0682 -0.0553
  828YOPS   C2B12772   3.771  12.732   7.344  0.0300  0.0679 -0.3433
  828YOPS   D3B12773   3.812  12.490   7.720  0.0340  0.1384  0.0323
  828YOPS   C4B12774   3.935  12.527   8.043  0.0759 -0.1185 -0.2281
  829YOPS   CNO12775   2.703  13.127   5.857 -0.2616  0.0721 -0.1922
  829YOPS   PO412776   2.701  12.832   6.149 -0.1884  0.0441  0.0741
  829YOPS   GL112777   3.037  12.651   6.372 -0.1175 -0.1412 -0.0821
  829YOPS   GL212778   3.154  12.824   6.597  0.2802  0.1051  0.1607
  829YOPS   C1A12779   2.992  12.341   6.762  0.3424  0.0945 -0.0393
  829YOPS   D2A12780   3.009  12.268   7.233  0.0667 -0.2076 -0.0918
  829YOPS   C3A12781   3.087  12.183   7.689  0.2376 -0.1390  0.0667
  829YOPS   C4A12782   3.436  12.156   7.837  0.3859  0.2419 -0.0056
  829YOPS   C1B12783   3.173  12.740   7.044 -0.0951  0.3236 -0.3689
  829YOPS   C2B12784   3.259  12.591   7.445  0.0463  0.4147  0.1544
  829YOPS   D3B12785   3.330  12.694   7.839  0.0951  0.0817 -0.2036
  829YOPS   C4B12786   3.078  12.455   8.087 -0.1314 -0.0067  0.1614
  830YOPS   CNO12787   4.921  15.886   5.736  0.2695  0.1627 -0.2135
  830YOPS   PO412788   4.777  16.008   6.121 -0.1340 -0.1639 -0.0273
  830YOPS   GL112789   4.610  16.279   6.468  0.4267  0.2404  0.0358
  830YOPS   GL212790   4.647  16.591   6.573 -0.0631  0.0376 -0.0276
  830YOPS   C1A12791   4.709  16.152   6.882  0.1624  0.3373 -0.2536
  830YOPS   D2A12792   4.827  16.214   7.304  0.0171  0.1976 -0.0564
  830YOPS   C3A12793   4.716  16.421   7.667 -0.2223  0.0982  0.0464
  830YOPS   C4A12794   4.685  16.390   8.137 -0.3390 -0.2123 -0.2227
  830YOPS   C1B12795   4.990  16.554   6.903 -0.2359 -0.0595 -0.1001
  830YOPS   C2B12796   5.029  16.683   7.385  0.1792 -0.0525 -0.3786
  830YOPS   D3B12797   5.050  16.767   7.837  0.3079  0.0098  0.2106
  830YOPS   C4B12798   5.237  17.202   7.936 -0.0081 -0.1838 -0.3288
  831YOPS   CNO12799   1.424   6.498   5.836 -0.2395 -0.2539 -0.2314
  831YOPS   PO412800   1.247   6.218   5.780  0.1199  0.2372 -0.0031
  831YOPS   GL112801   1.380   6.027   6.129 -0.0366  0.1588 -0.1765
  831YOPS   GL212802   1.256   6.257   6.293 -0.1107  0.2660 -0.2821
  831YOPS   C1A12803   1.335   5.719   6.444 -0.0213 -0.0672 -0.1257
  831YOPS   D2A12804   1.443   5.622   6.828 -0.1779 -0.0103  0.2294
  831YOPS   C3A12805   1.566   5.590   7.242  0.0217  0.0993 -0.2695
  831YOPS   C4A12806   1.907   5.795   7.406 -0.1379  0.0361 -0.1254
  831YOPS   C1B12807   1.458   6.270   6.680  0.1483 -0.2028 -0.2797
  831YOPS   C2B12808   1.493   6.079   7.044  0.2469 -0.2173 -0.1370
  831YOPS   D3B12809   1.325   5.989   7.409 -0.0328 -0.0856  0.0764
  831YOPS   C4B12810   1.003   6.084   7.636 -0.0168 -0.2196 -0.0992
  832YOPS   CNO12811   4.695  15.295   6.314 -0.0305 -0.1812 -0.1534
  832YOPS   PO412812   4.270  15.447   6.312 -0.1215 -0.0853 -0.1507
  832YOPS   GL112813   4.191  15.520   6.618  0.1306 -0.1372  0.3410
  832YOPS   GL212814   4.326  15.824   6.734 -0.4905 -0.1771  0.1058
  832YOPS   C1A12815   4.057  15.463   6.982 -0.1422  0.0187 -0.1329
  832YOPS   D2A12816   3.986  15.263   7.323 -0.0418 -0.1804 -0.0787
  832YOPS   C3A12817   3.588  15.157   7.477  0.1194 -0.2454  0.0087
  832YOPS   C4A12818   3.490  15.093   7.844 -0.2355 -0.1457 -0.0939
  832YOPS   C1B12819   4.400  15.898   7.121  0.2123 -0.2135  0.3742
  832YOPS   C2B12820   4.416  15.931   7.470  0.1942  0.0607 -0.1552
  832YOPS   D3B12821   4.231  16.067   7.879  0.0840  0.1233 -0.2460
  832YOPS   C4B12822   4.128  15.867   8.304 -0.0401 -0.1533  0.0739
  833YOPS   CNO12823  15.836  17.867   6.306 -0.3257 -0.0048 -0.1019
  833YOPS   PO412824  15.603  17.629   5.957 -0.1334  0.0197  0.0342
  833YOPS   GL112825  15.667  17.344   6.392  0.1826 -0.0140  0.3981
  833YOPS   GL212826  15.319  17.260   6.574 -0.3878 -0.3437 -0.1313
  833YOPS   C1A12827  15.794  17.173   6.765  0.0998  0.1282 -0.1661
  833YOPS   D2A12828  15.835  17.000   7.154  0.1535  0.1412  0.1267
  833YOPS   C3A12829  15.883  17.088   7.553 -0.2390 -0.1066  0.0823
  833YOPS   C4A12830  15.677  17.382   7.650 -0.2285 -0.1033  0.1067
  833YOPS   C1B12831  15.028  17.499   6.854  0.1441 -0.1816 -0.2355
  833YOPS   C2B12832  14.754  17.675   7.105  0.1057 -0.0459 -0.1701
  833YOPS   D3B12833  14.771  17.696   7.516 -0.1162  0.3720  0.1563
  833YOPS   C4B12834  14.593  17.944   7.781  0.0558 -0.2673  0.0157
  834YOPS   CNO12835  10.713   9.315   5.500  0.0763  0.1873  0.2096
  834YOPS   PO412836  10.355   9.241   5.550  0.1441  0.0967 -0.0685
  834YOPS   GL112837  10.465   9.020   5.973 -0.4431  0.0733  0.0564
  834YOPS   GL212838  10.676   9.142   6.076  0.1436 -0.0348 -0.1557
  834YOPS   C1A12839  10.378   8.932   6.401 -0.2061  0.1274 -0.1232
  834YOPS   D2A12840  10.092   8.872   6.783 -0.1750 -0.0923 -0.1971
  834YOPS   C3A12841   9.865   8.928   7.088 -0.1985 -0.3797 -0.0437
  834YOPS   C4A12842   9.429   8.804   7.061  0.1511 -0.2647 -0.2443
  834YOPS   C1B12843  10.839   9.414   6.330  0.4080 -0.0724 -0.1512
  834YOPS   C2B12844  10.814   9.221   6.786 -0.0944 -0.0270  0.2282
  834YOPS   D3B12845  10.815   9.207   7.156 -0.0068 -0.1568 -0.2052
  834YOPS   C4B12846  10.688   9.571   7.548  0.1826  0.1547 -0.3511
  835YOPS   CNO12847  13.638   4.455   5.915 -0.0845  0.0961  0.0055
  835YOPS   PO412848  13.594   4.818   5.597 -0.1477 -0.0110 -0.1147
  835YOPS   GL112849  13.453   4.972   5.950  0.2885 -0.3261  0.1226
  835YOPS   GL212850  13.746   4.875   6.106  0.1840  0.2364 -0.1333
  835YOPS   C1A12851  13.288   4.904   6.401 -0.0956 -0.1225 -0.0902
  835YOPS   D2A12852  12.924   4.867   6.827  0.1158  0.0321 -0.2804
  835YOPS   C3A12853  12.545   5.033   7.066 -0.3160  0.1693  0.1655
  835YOPS   C4A12854  12.434   5.084   7.500  0.0268 -0.1462 -0.1391
  835YOPS   C1B12855  13.768   4.597   6.494 -0.0810  0.2660 -0.2344
  835YOPS   C2B12856  13.581   4.576   6.962  0.0544 -0.0839  0.1687
  835YOPS   D3B12857  13.656   4.491   7.336  0.2162 -0.2464  0.0892
  835YOPS   C4B12858  13.996   4.771   7.544  0.0197  0.0661 -0.0122
  836YOPS   CNO12859   9.195   1.452   5.562 -0.0805  0.0947  0.2142
  836YOPS   PO412860   9.224   1.203   5.909  0.2653 -0.0056  0.1444
  836YOPS   GL112861   9.271   1.463   6.282  0.3624  0.1046 -0.0203
  836YOPS   GL212862   9.583   1.376   6.257  0.1059 -0.0114  0.1106
  836YOPS   C1A12863   9.270   1.465   6.699  0.1167  0.0666  0.4635
  836YOPS   D2A12864   9.248   1.508   7.232  0.0117  0.1901 -0.0636
  836YOPS   C3A12865   9.504   1.712   7.480 -0.0938 -0.2095  0.0675
  836YOPS   C4A12866   9.243   1.900   7.818 -0.3545 -0.0744  0.2075
  836YOPS   C1B12867   9.718   1.186   6.613 -0.1215  0.0245  0.4181
  836YOPS   C2B12868   9.990   0.992   6.787  0.2642 -0.1198 -0.2375
  836YOPS   D3B12869  10.291   0.689   6.731  0.0641  0.0515 -0.2043
  836YOPS   C4B12870  10.462   0.346   6.867 -0.1163  0.1104 -0.0688
  837YOPS   CNO12871  17.726  12.177   6.104  0.2828  0.1182 -0.2886
  837YOPS   PO412872  17.480  12.436   6.228  0.1630  0.2263 -0.0124
  837YOPS   GL112873  17.518  12.320   6.612  0.0755  0.0396 -0.0556
  837YOPS   GL212874  17.261  12.446   6.778  0.2285  0.2335  0.0699
  837YOPS   C1A12875  17.749  12.216   7.008  0.2978 -0.3384 -0.3162
  837YOPS   D2A12876  17.411  12.132   7.315  0.2711  0.4222 -0.1803
  837YOPS   C3A12877  17.158  12.208   7.681  0.2498  0.0935 -0.1150
  837YOPS   C4A12878  17.197  12.132   8.006 -0.1231  0.2134  0.1908
  837YOPS   C1B12879  17.020  12.341   7.065  0.1811 -0.1442  0.2325
  837YOPS   C2B12880  16.985  12.587   7.432 -0.0394 -0.0006  0.3093
  837YOPS   D3B12881  16.725  12.860   7.634 -0.2522 -0.0202  0.0564
  837YOPS   C4B12882  16.596  12.861   7.971  0.0971  0.1358 -0.2374
  838YOPS   CNO12883  17.070  15.180   6.490 -0.0721  0.2663  0.3321
  838YOPS   PO412884  17.128  14.710   6.369 -0.1774 -0.0652 -0.2003
  838YOPS   GL112885  17.193  14.877   6.852  0.0079 -0.1622  0.0745
  838YOPS   GL212886  17.508  14.986   6.725 -0.0022 -0.1406  0.3737
  838YOPS   C1A12887  17.238  14.965   7.407  0.1271 -0.4563 -0.0856
  838YOPS   D2A12888  17.115  14.838   7.791 -0.0182  0.3481  0.1181
  838YOPS   C3A12889  17.260  14.563   7.988  0.0026  0.0637 -0.2033
  838YOPS   C4A12890  17.249  14.544   8.411 -0.1037 -0.1820  0.0249
  838YOPS   C1B12891  17.729  14.915   7.129 -0.1766 -0.1320  0.2435
  838YOPS   C2B12892  18.047  14.928   7.471  0.0722  0.1420  0.1855
  838YOPS   D3B12893  18.133  14.857   7.920  0.1336  0.0103  0.1411
  838YOPS   C4B12894  17.774  14.618   8.190 -0.0332  0.0333 -0.1392
  839YOPS   CNO12895   7.927  16.227   5.685  0.1045  0.0642  0.3816
  839YOPS   PO412896   8.099  16.147   6.051  0.0115  0.1659  0.0118
  839YOPS   GL112897   8.296  16.334   6.473  0.0088  0.0098  0.1879
  839YOPS   GL212898   8.254  16.048   6.691  0.1947 -0.1532  0.0020
  839YOPS   C1A12899   8.556  16.579   6.846 -0.0234 -0.0848  0.0187
  839YOPS   D2A12900   8.588  16.752   7.237  0.2061  0.0843 -0.1423
  839YOPS   C3A12901   8.472  16.739   7.630  0.3950  0.3931 -0.3702
  839YOPS   C4A12902   8.166  16.917   7.859 -0.1508 -0.1702  0.0801
  839YOPS   C1B12903   8.564  16.123   7.059  0.0415  0.0870  0.0792
  839YOPS   C2B12904   8.604  16.181   7.447  0.0510  0.0883 -0.1858
  839YOPS   D3B12905   8.530  16.214   7.892 -0.1066  0.1377  0.1505
  839YOPS   C4B12906   8.512  15.887   8.154  0.2071 -0.1371 -0.3080
  840YOPS   CNO12907  13.302   1.986   5.282  0.1504  0.3515 -0.0601
  840YOPS   PO412908  13.159   2.326   5.600  0.2780  0.1042  0.0437
  840YOPS   GL112909  13.319   2.332   5.997  0.1093 -0.0283  0.0906
  840YOPS   GL212910  13.622   2.166   6.027  0.1763  0.2964  0.1085
  840YOPS   C1A12911  13.492   2.427   6.463  0.0463 -0.0847  0.0643
  840YOPS   D2A12912  13.506   2.434   6.929  0.1663 -0.1604  0.0996
  840YOPS   C3A12913  13.599   2.211   7.323 -0.0971 -0.2783  0.0970
  840YOPS   C4A12914  13.910   2.553   7.468  0.1839 -0.2746  0.2481
  840YOPS   C1B12915  13.621   1.902   6.367  0.0911 -0.3056 -0.1727
  840YOPS   C2B12916  13.681   1.979   6.874 -0.1033  0.3766 -0.1633
  840YOPS   D3B12917  13.732   1.728   7.247 -0.1244 -0.1776 -0.0400
  840YOPS   C4B12918  13.500   1.749   7.577 -0.3579 -0.1236 -0.5167
  841YOPS   CNO12919  17.218   1.873   5.701  0.0341 -0.6326 -0.3428
  841YOPS   PO412920  17.197   1.528   5.792  0.1108 -0.0536  0.0878
  841YOPS   GL112921  17.031   1.633   6.125 -0.0533 -0.2745 -0.0499
  841YOPS   GL212922  16.724   1.773   6.036  0.0526 -0.2022 -0.0946
  841YOPS   C1A12923  16.999   1.719   6.565 -0.2296 -0.2477  0.2755
  841YOPS   D2A12924  17.024   1.770   7.056  0.2237 -0.1064 -0.0999
  841YOPS   C3A12925  17.114   2.038   7.514  0.1852  0.3226  0.1252
  841YOPS   C4A12926  17.461   1.926   7.776 -0.3672  0.0008 -0.1420
  841YOPS   C1B12927  16.487   1.795   6.421 -0.2752 -0.0383  0.2633
  841YOPS   C2B12928  16.559   1.774   6.829 -0.0518  0.1148  0.0417
  841YOPS   D3B12929  16.630   1.575   7.357 -0.1123 -0.2220  0.0616
  841YOPS   C4B12930  16.966   1.483   7.633  0.1260  0.1362 -0.2962
  842YOPS   CNO12931   1.488  12.979   5.643  0.0717  0.0638 -0.2330
  842YOPS   PO412932   1.364  12.969   6.037 -0.0608  0.1154 -0.2064
  842YOPS   GL112933   1.326  12.771   6.397 -0.2404  0.1561 -0.2186
  842YOPS   GL212934   1.007  12.658   6.488  0.0522 -0.1836  0.0541
  842YOPS   C1A12935   1.396  12.902   6.875  0.2132  0.2645  0.0564
  842YOPS   D2A12936   1.360  13.305   7.037  0.3708  0.0187 -0.0610
  842YOPS   C3A12937   1.133  13.623   7.083 -0.0921  0.1087 -0.1192
  842YOPS   C4A12938   0.866  13.754   6.891  0.2568 -0.1705  0.0717
  842YOPS   C1B12939   0.841  12.860   6.864 -0.0556 -0.2405 -0.2568
  842YOPS   C2B12940   1.061  12.836   7.222 -0.1752  0.1817  0.2429
  842YOPS   D3B12941   1.344  13.105   7.533  0.2141 -0.2801 -0.2056
  842YOPS   C4B12942   1.209  13.460   7.608  0.0759  0.0312  0.1762
  843YOPS   CNO12943   0.411   5.660   5.767  0.1046 -0.2649  0.0160
  843YOPS   PO412944   0.022   5.888   5.760 -0.2851 -0.2129  0.1679
  843YOPS   GL112945   0.180   5.604   6.228 -0.2373  0.2288  0.1293
  843YOPS   GL212946   0.507   5.558   6.334 -0.1318  0.0441 -0.2175
  843YOPS   C1A12947   0.032   5.474   6.780 -0.0449  0.1085 -0.0613
  843YOPS   D2A12948   0.027   5.608   7.173 -0.1105 -0.0142 -0.2945
  843YOPS   C3A12949  -0.180   5.553   7.578 -0.1819 -0.4916 -0.1237
  843YOPS   C4A12950   0.073   5.173   7.689  0.0876 -0.0460 -0.1295
  843YOPS   C1B12951   0.858   5.682   6.640 -0.1733 -0.2276  0.1188
  843YOPS   C2B12952   1.015   5.623   7.137  0.0066  0.1298 -0.0132
  843YOPS   D3B12953   1.188   5.513   7.551 -0.2523  0.2113  0.0517
  843YOPS   C4B12954   1.695   5.498   7.730  0.4341 -0.0600 -0.0083
  844POPE   NH312955   9.973  10.478   5.654 -0.2266  0.0701 -0.1196
  844POPE   PO412956   9.925  10.813   5.917  0.0191 -0.2113  0.1543
  844POPE   GL112957   9.993  10.500   6.241  0.2711 -0.0068 -0.5463
  844POPE   GL212958  10.283  10.554   6.122  0.0565  0.0196  0.0193
  844POPE   C1A12959   9.821  10.474   6.644 -0.3565 -0.0570 -0.1248
  844POPE   D2A12960   9.847  10.490   7.078 -0.0222 -0.0994  0.2685
  844POPE   C3A12961   9.864  10.188   7.438  0.2160  0.0461  0.2082
  844POPE   C4A12962  10.014  10.356   7.710 -0.0417 -0.1198 -0.1267
  844POPE   C1B12963  10.295  10.612   6.592  0.1233  0.1626  0.0540
  844POPE   C2B12964  10.333  10.632   7.009  0.2520 -0.0697 -0.0602
  844POPE   C3B12965  10.227  10.602   7.367  0.0564  0.2036  0.2135
  844POPE   C4B12966  10.171  10.855   7.696 -0.0920  0.4278  0.0084
  845POPE   NH312967  16.846   4.928   5.860  0.2955  0.1377  0.1887
  845POPE   PO412968  16.600   5.281   5.780  0.3542 -0.1543 -0.0491
  845POPE   GL112969  16.447   5.427   6.192 -0.0960  0.2656  0.0518
  845POPE   GL212970  16.456   5.677   6.160 -0.2576  0.2480 -0.2261
  845POPE   C1A12971  16.520   5.343   6.629 -0.1162 -0.1775  0.1205
  845POPE   D2A12972  16.471   5.244   6.961  0.1060 -0.1358  0.2770
  845POPE   C3A12973  16.144   5.323   7.255  0.2220 -0.1480 -0.2591
  845POPE   C4A12974  15.849   5.595   7.431  0.4587 -0.1079  0.1179
  845POPE   C1B12975  16.713   5.789   6.508 -0.0238 -0.0221  0.0222
  845POPE   C2B12976  16.757   5.714   6.903 -0.0450  0.1267 -0.1777
  845POPE   C3B12977  17.011   5.657   7.244  0.0596  0.4224 -0.1140
  845POPE   C4B12978  17.252   5.703   7.569  0.1906 -0.2931  0.1763
  846POPE   NH312979   8.503   8.031   5.468 -0.4020 -0.0350  0.1991
  846POPE   PO412980   8.406   8.487   5.588 -0.2108  0.0151 -0.2610
  846POPE   GL112981   8.505   8.277   5.951  0.3003 -0.0049  0.1310
  846POPE   GL212982   8.504   8.597   6.078  0.1757 -0.2033  0.0608
  846POPE   C1A12983   8.646   8.212   6.376  0.0727 -0.4050  0.1641
  846POPE   D2A12984   8.859   8.355   6.751  0.4546 -0.3140  0.0355
  846POPE   C3A12985   8.780   8.077   7.154  0.0058  0.1057 -0.0159
  846POPE   C4A12986   8.991   8.024   7.477 -0.0015 -0.6679  0.3311
  846POPE   C1B12987   8.584   8.760   6.485  0.3789 -0.4767  0.0449
  846POPE   C2B12988   8.477   9.033   6.814 -0.1541  0.2028  0.0510
  846POPE   C3B12989   8.384   9.173   7.150  0.0659  0.4082  0.1176
  846POPE   C4B12990   8.437   9.508   7.540 -0.0643  0.0068  0.1920
  847POPE   NH312991   9.514  15.469   5.833  0.2488  0.0804  0.0517
  847POPE   PO412992   9.278  15.835   5.934  0.3792 -0.0871  0.1522
  847POPE   GL112993   9.283  15.657   6.371  0.0186 -0.1007 -0.0194
  847POPE   GL212994   9.302  15.363   6.286 -0.1574 -0.0726 -0.0365
  847POPE   C1A12995   9.131  15.615   6.785  0.3298 -0.4453  0.0574
  847POPE   D2A12996   8.791  15.616   7.121  0.3211  0.1632 -0.0091
  847POPE   C3A12997   8.911  15.802   7.485 -0.0344  0.0480  0.0225
  847POPE   C4A12998   8.988  15.925   7.838 -0.1654  0.1794  0.0110
  847POPE   C1B12999   9.384  15.163   6.807 -0.1802 -0.3202 -0.1043
  847POPE   C2B13000   9.386  14.956   7.114 -0.0010 -0.0457 -0.2900
  847POPE   C3B13001   9.051  14.732   7.339  0.2282  0.2339 -0.1142
  847POPE   C4B13002   8.960  14.695   7.746 -0.0042  0.0966 -0.1315
  848POPE   NH313003   3.264   1.853   5.833  0.0164 -0.1616 -0.1400
  848POPE   PO413004   3.570   2.014   6.090  0.1753  0.1748  0.0426
  848POPE   GL113005   3.936   2.008   6.335  0.1700  0.1409  0.1725
  848POPE   GL213006   4.146   1.831   6.454  0.1010  0.3470 -0.3821
  848POPE   C1A13007   3.965   2.285   6.742 -0.1049 -0.0279 -0.2577
  848POPE   D2A13008   4.017   2.392   7.183  0.3681  0.0499 -0.2998
  848POPE   C3A13009   4.256   2.230   7.424 -0.0919 -0.0681  0.0918
  848POPE   C4A13010   4.343   2.475   7.757  0.0035  0.0959  0.0981
  848POPE   C1B13011   4.341   1.673   6.812 -0.3953  0.0794  0.0369
  848POPE   C2B13012   4.457   1.794   7.173  0.2780  0.1671  0.0587
  848POPE   C3B13013   4.384   1.792   7.607  0.1783  0.0462  0.0134
  848POPE   C4B13014   4.249   2.018   8.008 -0.1318 -0.3086  0.2188
  849POPE   NH313015  18.048   1.350   5.903  0.0489 -0.1101  0.1002
  849POPE   PO413016  17.611   1.177   6.039  0.0916 -0.0599 -0.0025
  849POPE   GL113017  17.675   0.913   6.194 -0.0356 -0.1770 -0.0506
  849POPE   GL213018  17.942   1.086   6.366 -0.4669  0.0792 -0.0243
  849POPE   C1A13019  17.590   0.404   6.224  0.0294  0.0168  0.1099
  849POPE   D2A13020  17.750   0.018   6.488  0.0265 -0.0287  0.3204
  849POPE   C3A13021  17.883   0.089   6.965  0.1801  0.0910 -0.1265
  849POPE   C4A13022  17.744  -0.011   7.432 -0.2942 -0.2121 -0.1242
  849POPE   C1B13023  18.077   1.274   6.826 -0.0717  0.1837  0.0075
  849POPE   C2B13024  18.042   1.180   7.256 -0.0247 -0.0237 -0.2062
  849POPE   C3B13025  18.199   0.865   7.620  0.1191 -0.0410  0.3276
  849POPE   C4B13026  18.112   0.754   7.980  0.0060 -0.2421  0.0430
  850POPE   NH313027   6.243  14.889   6.047  0.0988  0.3872 -0.3774
  850POPE   PO413028   6.102  14.460   6.198  0.0974 -0.2780  0.0453
  850POPE   GL113029   5.963  14.531   6.629 -0.0397  0.0656  0.4133
  850POPE   GL213030   5.714  14.550   6.672  0.2272 -0.0286 -0.1651
  850POPE   C1A13031   6.017  14.393   7.025  0.0505 -0.0018  0.3931
  850POPE   D2A13032   5.835  14.676   7.373 -0.2370  0.3243 -0.0151
  850POPE   C3A13033   5.739  14.546   7.840 -0.1350  0.0241 -0.1033
  850POPE   C4A13034   5.895  14.728   8.268  0.1993 -0.3264 -0.0271
  850POPE   C1B13035   5.438  14.663   6.965 -0.0139 -0.1385 -0.0186
  850POPE   C2B13036   5.366  14.598   7.377 -0.0007 -0.0880  0.3010
  850POPE   C3B13037   5.189  14.510   7.729  0.0556  0.2527 -0.0285
  850POPE   C4B13038   4.890  14.241   7.978 -0.2212  0.1817  0.3266
  851POPE   NH313039  10.373  12.048   5.703 -0.1029 -0.0285  0.1713
  851POPE   PO413040  10.653  12.204   5.467 -0.0870  0.1923  0.1221
  851POPE   GL113041  10.779  12.423   5.893 -0.2496  0.0723 -0.1578
  851POPE   GL213042  10.895  12.251   6.189 -0.2261 -0.4490 -0.3254
  851POPE   C1A13043  10.654  12.734   6.218  0.0565  0.2930  0.1326
  851POPE   D2A13044  10.346  12.945   6.103  0.2293  0.2252  0.3012
  851POPE   C3A13045  10.191  12.972   6.466  0.3419 -0.2512 -0.1579
  851POPE   C4A13046  10.044  13.190   6.893 -0.1260 -0.0766 -0.2451
  851POPE   C1B13047  10.873  12.055   6.486 -0.1094  0.0095 -0.0223
  851POPE   C2B13048  10.912  12.265   6.807  0.1380 -0.1352  0.0770
  851POPE   C3B13049  10.869  12.320   7.270  0.0610  0.3297  0.0812
  851POPE   C4B13050  11.028  12.273   7.651  0.1519 -0.0103 -0.3380
  852POPE   NH313051   1.701   6.904   5.417 -0.2378  0.2880  0.0706
  852POPE   PO413052   1.796   6.975   5.799 -0.3471 -0.2401 -0.0786
  852POPE   GL113053   1.531   6.888   6.146 -0.1568 -0.0153 -0.3300
  852POPE   GL213054   1.243   6.900   6.187 -0.5035  0.1142  0.0398
  852POPE   C1A13055   1.720   7.000   6.586  0.3641  0.0259 -0.0866
  852POPE   D2A13056   1.707   6.838   7.030  0.3238 -0.2990 -0.0602
  852POPE   C3A13057   1.605   6.566   7.273 -0.0291 -0.1703  0.0521
  852POPE   C4A13058   1.695   6.194   7.603 -0.2391  0.0231  0.0335
  852POPE   C1B13059   1.148   6.804   6.546  0.0781  0.2008 -0.0754
  852POPE   C2B13060   1.169   6.660   6.977  0.1761  0.0643  0.1425
  852POPE   C3B13061   1.141   6.399   7.271  0.0796 -0.0894 -0.2340
  852POPE   C4B13062   1.260   6.467   7.783 -0.2862 -0.1307 -0.2335
  853POPE   NH313063   1.268   4.143   5.878 -0.1383  0.0276 -0.1046
  853POPE   PO413064   0.752   4.321   5.903  0.0105  0.0745  0.0979
  853POPE   GL113065   0.651   4.321   6.243  0.0656 -0.3257 -0.3069
  853POPE   GL213066   0.562   4.683   6.182 -0.4495  0.0579  0.0609
  853POPE   C1A13067   0.634   4.356   6.704 -0.1244  0.1852  0.2900
  853POPE   D2A13068   0.446   4.586   7.044  0.0520  0.1336  0.1153
  853POPE   C3A13069   0.217   4.377   7.277  0.1510  0.1262 -0.3576
  853POPE   C4A13070  -0.142   4.061   7.396 -0.2071  0.0586 -0.4542
  853POPE   C1B13071   0.113   4.527   6.456  0.1744  0.0722 -0.1597
  853POPE   C2B13072  -0.040   4.468   6.850 -0.0804 -0.1340 -0.0999
  853POPE   C3B13073  -0.311   4.529   7.262 -0.0285  0.0018  0.1468
  853POPE   C4B13074  -0.198   4.662   7.686 -0.1798  0.1953  0.0686
  854POPE   NH313075  14.127   2.733   6.119  0.0193  0.2305  0.1178
  854POPE   PO413076  14.549   2.882   6.101 -0.1283 -0.2282  0.0275
  854POPE   GL113077  14.501   2.578   6.406 -0.2482  0.1150  0.3373
  854POPE   GL213078  14.770   2.421   6.478  0.1774 -0.2146  0.0189
  854POPE   C1A13079  14.446   2.627   6.781 -0.1600  0.3008 -0.0271
  854POPE   D2A13080  14.410   2.517   7.294 -0.3069  0.0071 -0.1128
  854POPE   C3A13081  14.733   2.453   7.388  0.0249 -0.0809 -0.0902
  854POPE   C4A13082  14.951   2.427   7.649 -0.1349  0.2501  0.0100
  854POPE   C1B13083  14.900   2.522   6.925  0.1311 -0.0569  0.2838
  854POPE   C2B13084  15.176   2.725   7.221  0.2760  0.0374 -0.1223
  854POPE   C3B13085  15.439   2.602   7.523 -0.0617  0.0744 -0.0684
  854POPE   C4B13086  15.525   2.807   7.939  0.3408  0.0115 -0.0953
  855POPE   NH313087   2.767  10.597   6.324  0.1846  0.0053  0.3020
  855POPE   PO413088   2.252  10.741   6.379  0.0220 -0.1579  0.3670
  855POPE   GL113089   2.359  10.836   6.771  0.0987  0.2651  0.1451
  855POPE   GL213090   2.125  10.933   6.956 -0.0369  0.3327  0.2160
  855POPE   C1A13091   2.536  10.960   7.171 -0.2230  0.3051  0.1522
  855POPE   D2A13092   2.458  11.293   7.413 -0.3754  0.1020  0.1427
  855POPE   C3A13093   2.650  11.438   7.828 -0.0931 -0.0468 -0.1366
  855POPE   C4A13094   2.814  11.285   8.123  0.0730 -0.0390 -0.1808
  855POPE   C1B13095   2.011  11.258   7.284 -0.2429  0.2907 -0.0542
  855POPE   C2B13096   2.088  11.553   7.686 -0.1106  0.1278 -0.3001
  855POPE   C3B13097   2.305  11.949   7.873  0.4675 -0.3352 -0.3065
  855POPE   C4B13098   2.617  12.316   7.846  0.2069  0.1043  0.3470
  856POPE   NH313099  10.018   8.218   5.682  0.3942  0.1654  0.1659
  856POPE   PO413100  10.450   8.440   5.715  0.0943  0.0663 -0.0493
  856POPE   GL113101  10.267   8.360   6.119  0.0344  0.0278 -0.4263
  856POPE   GL213102  10.152   7.991   6.098  0.0506 -0.1950 -0.3127
  856POPE   C1A13103  10.212   8.431   6.515 -0.4376  0.0052 -0.2031
  856POPE   D2A13104  10.364   8.409   6.894  0.2296 -0.2605  0.0532
  856POPE   C3A13105  10.340   8.066   7.165  0.0480 -0.1605  0.2245
  856POPE   C4A13106  10.296   8.019   7.589  0.2646 -0.0431 -0.3166
  856POPE   C1B13107  10.508   7.990   6.375  0.1867 -0.1616 -0.0561
  856POPE   C2B13108  10.605   7.824   6.822  0.2081 -0.2701 -0.0307
  856POPE   C3B13109  10.774   7.756   7.190 -0.0052  0.3676  0.0531
  856POPE   C4B13110  10.961   7.619   7.659  0.2303 -0.1213 -0.0388
  857POPE   NH313111   5.955  17.165   6.047  0.1354 -0.3633 -0.1095
  857POPE   PO413112   5.699  17.372   6.095  0.1342 -0.0089 -0.0879
  857POPE   GL113113   5.600  17.238   6.533 -0.0129  0.1112  0.1431
  857POPE   GL213114   5.383  17.136   6.636  0.2019 -0.0501  0.0529
  857POPE   C1A13115   5.614  17.355   6.974 -0.1343 -0.1821 -0.0317
  857POPE   D2A13116   5.508  17.261   7.452 -0.0733  0.0603  0.0588
  857POPE   C3A13117   5.621  17.504   7.770  0.0750 -0.1568 -0.2854
  857POPE   C4A13118   5.675  17.449   8.228 -0.1990 -0.0313  0.1753
  857POPE   C1B13119   5.168  17.169   6.983  0.0300  0.0794 -0.1460
  857POPE   C2B13120   4.940  17.169   7.346 -0.2525 -0.1473  0.1932
  857POPE   C3B13121   4.804  17.288   7.663  0.3648 -0.1253  0.1512
  857POPE   C4B13122   4.645  17.527   7.913 -0.1868 -0.2214 -0.1442
  858POPE   NH313123  16.175   0.859   6.087  0.0111 -0.0106  0.1385
  858POPE   PO413124  15.684   0.604   6.030 -0.4373  0.3500  0.0199
  858POPE   GL113125  15.725   0.492   6.470  0.0084 -0.3427 -0.0649
  858POPE   GL213126  15.821   0.794   6.541 -0.2322  0.1721  0.0778
  858POPE   C1A13127  16.003   0.369   6.799  0.0037 -0.1688  0.2938
  858POPE   D2A13128  16.246   0.479   7.004  0.1795  0.1419  0.1305
  858POPE   C3A13129  16.402   0.350   7.442 -0.2908  0.2531  0.1591
  858POPE   C4A13130  16.564   0.530   7.778  0.0552 -0.2570  0.1952
  858POPE   C1B13131  15.724   0.757   6.986  0.0515 -0.1137 -0.0580
  858POPE   C2B13132  15.483   0.677   7.324 -0.1770 -0.1382  0.1425
  858POPE   C3B13133  15.527   0.886   7.674 -0.0651 -0.1732  0.4477
  858POPE   C4B13134  15.326   1.106   8.049  0.0805 -0.1140 -0.3928
  859POPE   NH313135   6.475   9.388   5.656  0.0690 -0.3324 -0.0274
  859POPE   PO413136   6.841   9.101   5.900  0.3638 -0.1045  0.2301
  859POPE   GL113137   6.566   9.209   6.207  0.1040  0.1429 -0.0802
  859POPE   GL213138   6.753   9.515   6.336  0.1018 -0.1779  0.1658
  859POPE   C1A13139   6.362   9.162   6.517  0.1422  0.1758  0.0312
  859POPE   D2A13140   6.189   9.143   6.814  0.2018  0.2378 -0.1744
  859POPE   C3A13141   6.248   9.392   7.102  0.1003  0.0580 -0.1461
  859POPE   C4A13142   6.266   9.333   7.542 -0.0904  0.2543  0.1935
  859POPE   C1B13143   6.635   9.635   6.746  0.0015  0.2305  0.0097
  859POPE   C2B13144   6.583   9.706   7.179  0.0676  0.1846  0.0994
  859POPE   C3B13145   6.636   9.992   7.600 -0.2741 -0.0876  0.0185
  859POPE   C4B13146   6.511  10.127   7.985  0.0561  0.1051 -0.1418
  860POPE   NH313147   3.764   9.260   5.796  0.0625 -0.0767 -0.3112
  860POPE   PO413148   3.480   9.644   5.657  0.0445 -0.2422 -0.0920
  860POPE   GL113149   3.558   9.592   6.109  0.0601 -0.1939  0.1968
  860POPE   GL213150   3.953   9.608   6.203 -0.0058 -0.0439 -0.2567
  860POPE   C1A13151   3.550   9.496   6.485  0.0448 -0.2226 -0.2287
  860POPE   D2A13152   3.288   9.580   6.770  0.0630 -0.0801  0.0423
  860POPE   C3A13153   3.406   9.423   7.143 -0.3345  0.2728 -0.0681
  860POPE   C4A13154   3.569   9.240   7.477  0.1011  0.1141  0.0920
  860POPE   C1B13155   4.202   9.571   6.598 -0.0386  0.1151  0.0618
  860POPE   C2B13156   4.278   9.241   6.906  0.2190 -0.0071  0.1178
  860POPE   C3B13157   4.653   9.020   7.009  0.2854 -0.1450  0.1708
  860POPE   C4B13158   4.985   8.810   7.263 -0.0001  0.1354  0.3441
  861POPE   NH313159   7.532  14.818   6.159  0.3620  0.1168 -0.2440
  861POPE   PO413160   7.904  14.944   5.938 -0.3532  0.1062  0.2023
  861POPE   GL113161   8.197  14.756   5.987 -0.0086 -0.0750  0.1777
  861POPE   GL213162   8.200  14.804   6.290  0.1795  0.0265 -0.0081
  861POPE   C1A13163   8.360  14.352   6.169  0.0549 -0.2154  0.0679
  861POPE   D2A13164   8.523  14.138   6.594 -0.1104 -0.0010  0.4019
  861POPE   C3A13165   8.777  14.326   6.872  0.2151  0.1890 -0.0535
  861POPE   C4A13166   8.860  14.243   7.337  0.0997  0.2281  0.1874
  861POPE   C1B13167   8.167  14.490   6.614 -0.0239  0.1391 -0.0322
  861POPE   C2B13168   8.291  14.338   6.998  0.2140 -0.0736  0.0766
  861POPE   C3B13169   8.470  13.993   7.129  0.2200  0.0591  0.3104
  861POPE   C4B13170   8.820  13.767   7.401 -0.0818 -0.0365  0.0097
  862POPE   NH313171   9.258   0.306   6.191  0.4492 -0.1548  0.1455
  862POPE   PO413172   9.353  -0.063   6.198 -0.1470 -0.1187  0.4263
  862POPE   GL113173   9.377  -0.334   6.559 -0.2387  0.4511  0.1578
  862POPE   GL213174   9.754  -0.423   6.671 -0.3704  0.3409  0.2729
  862POPE   C1A13175   9.336  -0.545   7.005 -0.2720 -0.2201 -0.0188
  862POPE   D2A13176   9.570  -0.443   7.372 -0.2332 -0.1566 -0.1634
  862POPE   C3A13177   9.430  -0.515   7.787 -0.2210  0.0079 -0.0740
  862POPE   C4A13178   9.791  -0.749   8.144  0.2697 -0.4057  0.1455
  862POPE   C1B13179   9.649  -0.139   6.975  0.3190 -0.1943 -0.1145
  862POPE   C2B13180   9.659   0.045   7.366 -0.1464  0.0439  0.1415
  862POPE   C3B13181   9.535   0.015   7.721 -0.1194  0.0111 -0.1026
  862POPE   C4B13182   9.663  -0.207   8.094  0.2529  0.1316  0.0572
  863POPE   NH313183   6.446  17.948   6.318  0.1527  0.2183  0.0931
  863POPE   PO413184   6.885  18.016   6.325  0.0604 -0.1061  0.0548
  863POPE   GL113185   6.895  17.807   6.664 -0.0327 -0.0400  0.0648
  863POPE   GL213186   6.885  18.055   6.873  0.0317  0.3504  0.0157
  863POPE   C1A13187   7.026  17.587   7.151  0.0502  0.2394  0.0264
  863POPE   D2A13188   7.083  17.330   7.469 -0.1984 -0.2177 -0.1805
  863POPE   C3A13189   7.513  17.061   7.610  0.0149  0.1107  0.2310
  863POPE   C4A13190   7.821  16.737   7.527  0.2883 -0.2361 -0.2465
  863POPE   C1B13191   6.787  18.102   7.322 -0.0308  0.0126  0.0956
  863POPE   C2B13192   6.719  18.189   7.740  0.3898 -0.1448 -0.1270
  863POPE   C3B13193   6.505  17.970   7.930 -0.3434  0.0123  0.0223
  863POPE   C4B13194   6.524  17.856   8.386  0.0776 -0.4435  0.1889
  864POPE   NH313195   2.487  16.921   6.193  0.0314  0.3392 -0.0420
  864POPE   PO413196   2.470  17.282   6.134 -0.0060 -0.3579  0.2674
  864POPE   GL113197   2.640  17.238   6.544 -0.0913 -0.0380  0.5612
  864POPE   GL213198   2.574  16.957   6.671 -0.0199  0.3007  0.1237
  864POPE   C1A13199   2.741  17.455   6.877  0.0283 -0.1175  0.1684
  864POPE   D2A13200   2.444  17.486   7.197  0.1041 -0.0458 -0.0175
  864POPE   C3A13201   2.429  17.372   7.610 -0.0049  0.0187 -0.0273
  864POPE   C4A13202   2.471  17.120   7.984  0.0362  0.0710 -0.1450
  864POPE   C1B13203   2.608  16.860   7.180  0.3610  0.3077 -0.2627
  864POPE   C2B13204   2.427  16.766   7.629 -0.0422 -0.1045 -0.0141
  864POPE   C3B13205   2.673  16.682   7.982 -0.0834 -0.2009  0.1446
  864POPE   C4B13206   2.995  16.435   8.222  0.1383  0.0656 -0.2027
  865POPE   NH313207  12.249  11.274   5.823  0.0710  0.0458  0.1294
  865POPE   PO413208  12.259  11.720   5.882  0.0458  0.0753  0.0676
  865POPE   GL113209  12.383  11.997   6.245 -0.1220  0.2087 -0.0314
  865POPE   GL213210  12.437  11.659   6.426 -0.0249 -0.0595 -0.1601
  865POPE   C1A13211  12.406  12.150   6.586  0.2436 -0.0348  0.2011
  865POPE   D2A13212  12.290  12.383   6.963 -0.0544 -0.0901  0.2924
  865POPE   C3A13213  12.480  12.697   7.144  0.1026  0.1292 -0.0086
  865POPE   C4A13214  12.817  12.827   7.449  0.1476 -0.2378  0.0201
  865POPE   C1B13215  12.536  11.657   6.713 -0.0935 -0.1382 -0.0380
  865POPE   C2B13216  12.615  11.649   7.169 -0.2336  0.0654 -0.0433
  865POPE   C3B13217  12.564  11.606   7.621  0.2618  0.1682 -0.0926
  865POPE   C4B13218  12.536  11.414   7.981 -0.2297  0.1636  0.3364
  866POPE   NH313219   0.887  16.269   6.373 -0.1616 -0.0123  0.4018
  866POPE   PO413220   1.314  16.346   6.522  0.2732 -0.1739 -0.1039
  866POPE   GL113221   1.253  16.169   6.913 -0.0387  0.0059 -0.1015
  866POPE   GL213222   0.955  16.151   6.899  0.1856 -0.1359 -0.0531
  866POPE   C1A13223   1.342  16.168   7.365 -0.2141  0.1234  0.0378
  866POPE   D2A13224   1.252  16.218   7.811 -0.1116  0.0734 -0.0681
  866POPE   C3A13225   1.516  15.910   7.907 -0.0208 -0.0294  0.0383
  866POPE   C4A13226   1.774  15.455   7.945  0.1235 -0.1589  0.1997
  866POPE   C1B13227   0.904  16.014   7.257 -0.2870 -0.0746  0.2089
  866POPE   C2B13228   1.029  15.820   7.554 -0.1273 -0.2385  0.0573
  866POPE   C3B13229   1.135  15.575   7.840  0.1434 -0.1238  0.0931
  866POPE   C4B13230   1.246  15.150   7.751  0.0047  0.1658  0.2272
  867POPE   NH313231   3.017  15.883   6.090 -0.0137  0.1704  0.0160
  867POPE   PO413232   2.521  16.068   6.091 -0.0301  0.0427  0.3575
  867POPE   GL113233   2.205  16.079   6.379  0.1633 -0.1281  0.3254
  867POPE   GL213234   2.384  16.269   6.534 -0.2417  0.2366 -0.0722
  867POPE   C1A13235   2.158  15.654   6.630  0.0849 -0.0679 -0.0121
  867POPE   D2A13236   2.115  15.244   6.720  0.0476  0.1531 -0.1704
  867POPE   C3A13237   1.723  15.083   6.930 -0.0489  0.1529  0.4385
  867POPE   C4A13238   1.629  15.115   7.357  0.0991  0.0374 -0.0567
  867POPE   C1B13239   2.267  16.399   6.899  0.4798  0.3403  0.0475
  867POPE   C2B13240   2.160  16.484   7.330 -0.3096  0.0983  0.0614
  867POPE   C3B13241   2.121  16.398   7.732 -0.1893  0.2988 -0.0319
  867POPE   C4B13242   2.228  16.542   8.049 -0.0485  0.0787 -0.0087
  868POPE   NH313243  16.036   9.228   5.749 -0.1477 -0.0983 -0.0636
  868POPE   PO413244  16.231   9.608   5.841 -0.2214  0.3960 -0.0916
  868POPE   GL113245  16.371   9.409   6.187 -0.1577 -0.0317 -0.3600
  868POPE   GL213246  16.320   9.084   6.120  0.1178 -0.1487  0.0345
  868POPE   C1A13247  16.566   9.053   6.512 -0.1510 -0.2025 -0.0844
  868POPE   D2A13248  16.770   9.012   6.887 -0.0532 -0.0054 -0.0681
  868POPE   C3A13249  16.835   9.222   7.225  0.1354  0.1360 -0.1031
  868POPE   C4A13250  16.813   9.377   7.546  0.0147 -0.3053 -0.1834
  868POPE   C1B13251  16.124   9.146   6.575 -0.1218  0.0385  0.0079
  868POPE   C2B13252  16.225   9.279   6.905  0.3726 -0.1615 -0.0015
  868POPE   C3B13253  16.293   9.282   7.371 -0.1521 -0.0345 -0.0630
  868POPE   C4B13254  16.351   9.364   7.857  0.2219  0.2315  0.0394
  869POPE   NH313255   2.099   0.471   5.982 -0.0088 -0.0271 -0.0533
  869POPE   PO413256   2.117   0.003   5.970  0.4359 -0.1160 -0.2178
  869POPE   GL113257   2.297   0.099   6.397  0.1806 -0.1985 -0.0170
  869POPE   GL213258   2.012  -0.132   6.538  0.2491  0.0402  0.1795
  869POPE   C1A13259   2.425   0.232   6.828 -0.0639  0.1176  0.0771
  869POPE   D2A13260   2.616  -0.017   7.148 -0.2631  0.2429  0.1550
  869POPE   C3A13261   2.988   0.160   7.323 -0.2206  0.0805 -0.0658
  869POPE   C4A13262   3.190   0.542   7.473  0.0196  0.1992 -0.0313
  869POPE   C1B13263   1.963  -0.006   7.033 -0.2563  0.2392 -0.0622
  869POPE   C2B13264   2.222   0.233   7.313 -0.1199  0.3355  0.0019
  869POPE   C3B13265   2.132   0.322   7.746 -0.1282  0.1206  0.1976
  869POPE   C4B13266   2.174   0.184   8.234 -0.3295 -0.0621 -0.3431
  870POPE   NH313267   7.240  16.967   5.714 -0.2774  0.0714 -0.3478
  870POPE   PO413268   6.928  17.156   5.948  0.0576  0.2268 -0.0936
  870POPE   GL113269   6.956  17.415   6.287 -0.0391 -0.1814 -0.1162
  870POPE   GL213270   6.644  17.455   6.391 -0.4339 -0.0829  0.0811
  870POPE   C1A13271   7.156  17.428   6.699  0.0446  0.1728  0.0045
  870POPE   D2A13272   7.380  17.807   6.849 -0.0904  0.4721  0.2746
  870POPE   C3A13273   7.304  17.972   7.272 -0.5602  0.0401 -0.1154
  870POPE   C4A13274   7.127  17.921   7.637 -0.0204  0.0723 -0.0529
  870POPE   C1B13275   6.712  17.322   6.833 -0.1742 -0.2066  0.0067
  870POPE   C2B13276   6.605  17.096   7.136  0.0308 -0.0234 -0.1874
  870POPE   C3B13277   6.794  16.968   7.601  0.1267 -0.0310  0.2728
  870POPE   C4B13278   7.078  16.997   7.847  0.0933  0.1452  0.1744
  871POPE   NH313279  10.810  11.259   5.737 -0.0547  0.2592  0.1862
  871POPE   PO413280  11.303  11.324   5.773  0.0277 -0.1373 -0.2144
  871POPE   GL113281  11.137  11.505   6.184  0.1449 -0.1501  0.2818
  871POPE   GL213282  10.833  11.453   6.214  0.2948 -0.0427  0.0038
  871POPE   C1A13283  11.187  11.656   6.565  0.3562 -0.0857  0.3300
  871POPE   D2A13284  10.947  11.603   6.971  0.0557 -0.1176  0.0805
  871POPE   C3A13285  10.953  11.865   7.261  0.2530  0.0267  0.0047
  871POPE   C4A13286  10.653  11.871   7.585 -0.2393 -0.0450 -0.0308
  871POPE   C1B13287  10.572  11.659   6.593  0.0705  0.0935  0.0253
  871POPE   C2B13288  10.509  11.764   7.024 -0.3318 -0.2192 -0.0867
  871POPE   C3B13289  10.419  12.135   7.261 -0.3089  0.0575 -0.1626
  871POPE   C4B13290  10.318  12.249   7.521  0.0318  0.0687 -0.4432
  872POPE   NH313291  10.330  13.324   5.800  0.3777  0.2617  0.1446
  872POPE   PO413292   9.924  13.302   6.044 -0.2293 -0.3074 -0.0356
  872POPE   GL113293  10.168  13.569   6.193  0.0650 -0.0030 -0.1382
  872POPE   GL213294  10.413  13.771   6.027  0.2522  0.1850 -0.0556
  872POPE   C1A13295  10.440  13.486   6.633  0.0966  0.2280  0.1282
  872POPE   D2A13296  10.464  13.569   7.090  0.0802  0.1071  0.1069
  872POPE   C3A13297  10.387  13.813   7.489 -0.1488  0.1379  0.0829
  872POPE   C4A13298  10.459  13.785   7.912 -0.0709  0.1307 -0.0363
  872POPE   C1B13299  10.592  13.942   6.338  0.0676  0.2966  0.1245
  872POPE   C2B13300  10.541  14.037   6.802 -0.1749 -0.0272 -0.2101
  872POPE   C3B13301  10.577  14.130   7.128  0.1134  0.2147  0.1838
  872POPE   C4B13302  10.900  14.373   7.346 -0.0221 -0.1377 -0.1444
  873POPE   NH313303   3.542   2.510   6.177 -0.1230  0.0056  0.1604
  873POPE   PO413304   3.125   2.297   6.075 -0.1335  0.1655  0.1583
  873POPE   GL113305   3.175   2.317   6.463 -0.1442 -0.2288 -0.3473
  873POPE   GL213306   3.466   2.240   6.592 -0.0937  0.0579  0.1326
  873POPE   C1A13307   3.021   2.354   6.770 -0.0663 -0.2326 -0.0634
  873POPE   D2A13308   2.939   2.151   7.138 -0.0822  0.0851  0.1845
  873POPE   C3A13309   3.053   2.458   7.423  0.1804 -0.3116 -0.3604
  873POPE   C4A13310   3.425   2.403   7.763  0.2309  0.3716  0.2134
  873POPE   C1B13311   3.514   2.367   7.027  0.4120 -0.0819  0.0459
  873POPE   C2B13312   3.558   2.156   7.389  0.1650 -0.0939  0.0396
  873POPE   C3B13313   3.859   2.209   7.820 -0.0740  0.1495 -0.2248
  873POPE   C4B13314   3.847   2.254   8.223  0.1730  0.1425 -0.0827
  874YOPE   NH313315  15.270   8.563   5.639 -0.1983  0.3285  0.3307
  874YOPE   PO413316  15.755   8.453   5.947  0.1276 -0.0749 -0.1588
  874YOPE   GL113317  15.836   8.384   6.369  0.2790  0.1570 -0.0451
  874YOPE   GL213318  16.212   8.174   6.370  0.0813 -0.0442 -0.2348
  874YOPE   C1A13319  15.777   8.292   6.765 -0.0983  0.3934 -0.1454
  874YOPE   D2A13320  15.810   8.472   7.121 -0.2751  0.1097  0.0749
  874YOPE   C3A13321  15.558   8.229   7.509  0.1788 -0.0842  0.2124
  874YOPE   C4A13322  15.605   7.759   7.516  0.0084 -0.0957  0.0192
  874YOPE   C1B13323  16.306   8.232   6.726  0.1193  0.4093  0.1536
  874YOPE   C2B13324  16.253   8.322   7.111 -0.2996 -0.1969 -0.2831
  874YOPE   D3B13325  16.100   8.435   7.494 -0.1132  0.0670 -0.0630
  874YOPE   C4B13326  15.959   8.331   7.866  0.0513 -0.1731 -0.0141
  875YOPE   NH313327  15.006  11.516   5.914 -0.3482  0.1006 -0.1159
  875YOPE   PO413328  14.572  11.485   6.119 -0.2259 -0.3328 -0.3089
  875YOPE   GL113329  14.254  11.198   6.425  0.1221  0.0713  0.3721
  875YOPE   GL213330  14.363  10.823   6.485  0.0027 -0.2012 -0.0501
  875YOPE   C1A13331  14.002  11.220   6.714  0.1586 -0.0593 -0.1887
  875YOPE   D2A13332  14.023  11.502   7.059 -0.0770 -0.0379 -0.1824
  875YOPE   C3A13333  13.734  11.909   6.973 -0.1376 -0.0847 -0.2280
  875YOPE   C4A13334  13.315  12.130   7.224 -0.1945  0.0084  0.0094
  875YOPE   C1B13335  14.263  10.594   6.893  0.3078 -0.0217 -0.1261
  875YOPE   C2B13336  14.134  10.580   7.280 -0.0754  0.0522  0.2538
  875YOPE   D3B13337  13.813  10.879   7.458 -0.5775  0.2308 -0.0970
  875YOPE   C4B13338  13.791  10.944   7.889  0.0216 -0.3946  0.2689
  876YOPE   NH313339   5.609   3.991   6.102  0.1189 -0.1409 -0.2352
  876YOPE   PO413340   5.597   3.687   5.821  0.2064  0.0797 -0.2175
  876YOPE   GL113341   5.632   3.505   6.179 -0.0798  0.2391  0.0273
  876YOPE   GL213342   5.894   3.610   6.254  0.0203  0.2534  0.0587
  876YOPE   C1A13343   5.604   3.276   6.529 -0.1956 -0.0183 -0.0368
  876YOPE   D2A13344   5.530   3.274   6.949  0.1690 -0.2621 -0.0592
  876YOPE   C3A13345   5.197   3.276   7.265  0.2146  0.0526  0.1479
  876YOPE   C4A13346   5.107   3.205   7.742 -0.0065 -0.2290  0.2504
  876YOPE   C1B13347   6.109   3.340   6.551  0.0326  0.2220 -0.1953
  876YOPE   C2B13348   6.311   3.186   6.900 -0.1350  0.2683 -0.2360
  876YOPE   D3B13349   6.585   2.965   7.185 -0.3252  0.2757 -0.0707
  876YOPE   C4B13350   6.632   2.666   7.461  0.1099 -0.0918 -0.2137
  877YOPE   NH313351   5.639  14.783   6.155 -0.1240  0.0757 -0.2307
  877YOPE   PO413352   5.263  14.454   6.320  0.2826 -0.2033  0.3330
  877YOPE   GL113353   5.096  14.391   6.739  0.0170 -0.0605 -0.2186
  877YOPE   GL213354   4.788  14.350   6.730 -0.3229  0.0295  0.1694
  877YOPE   C1A13355   5.101  14.240   7.213 -0.1119 -0.2287 -0.1055
  877YOPE   D2A13356   5.004  14.017   7.526  0.0049  0.0390 -0.0114
  877YOPE   C3A13357   4.589  14.043   7.638 -0.1539  0.1063  0.1450
  877YOPE   C4A13358   4.139  13.935   7.876  0.1872  0.0996 -0.1967
  877YOPE   C1B13359   4.644  14.567   7.095 -0.2335  0.2454 -0.0349
  877YOPE   C2B13360   4.754  14.550   7.538 -0.1259  0.5039  0.2429
  877YOPE   D3B13361   4.569  14.609   7.910 -0.1777  0.1832  0.0817
  877YOPE   C4B13362   4.209  14.765   8.250  0.1938 -0.0139 -0.0822
  878YOPE   NH313363  13.620   8.765   6.032 -0.0537  0.1216 -0.3825
  878YOPE   PO413364  13.337   8.519   5.839  0.2124  0.1903  0.1819
  878YOPE   GL113365  13.302   8.391   6.316  0.0148 -0.0708 -0.0673
  878YOPE   GL213366  13.193   8.116   6.354 -0.4153 -0.0232 -0.0314
  878YOPE   C1A13367  13.374   8.472   6.701 -0.2982  0.3327  0.3376
  878YOPE   D2A13368  13.708   8.572   6.986 -0.3303  0.1710  0.0345
  878YOPE   C3A13369  13.673   8.472   7.373 -0.0239 -0.0277  0.2207
  878YOPE   C4A13370  13.594   8.248   7.830 -0.4122 -0.2682  0.0525
  878YOPE   C1B13371  13.021   8.022   6.768  0.0086 -0.1511  0.0083
  878YOPE   C2B13372  12.928   7.954   7.170  0.1558  0.1799 -0.0504
  878YOPE   D3B13373  12.751   7.860   7.611  0.0837  0.5984  0.1155
  878YOPE   C4B13374  12.431   7.884   7.894 -0.1697 -0.0740 -0.2891
  879YOPE   NH313375  17.225   6.478   5.763  0.0651  0.1978  0.0738
  879YOPE   PO413376  17.106   6.818   5.776 -0.0683 -0.1090 -0.1038
  879YOPE   GL113377  17.299   6.967   6.119  0.2157  0.1426 -0.1287
  879YOPE   GL213378  17.552   7.002   6.289  0.3652 -0.1548 -0.0837
  879YOPE   C1A13379  17.228   6.691   6.465 -0.1986 -0.3280 -0.3449
  879YOPE   D2A13380  17.406   6.630   6.881 -0.2115  0.0245  0.2662
  879YOPE   C3A13381  17.167   6.569   7.295  0.0296 -0.1181  0.0478
  879YOPE   C4A13382  17.011   6.321   7.620 -0.1098 -0.3443  0.1644
  879YOPE   C1B13383  17.795   6.790   6.550  0.1032  0.0623 -0.0473
  879YOPE   C2B13384  17.841   6.844   7.002  0.1746 -0.0107 -0.3724
  879YOPE   D3B13385  17.775   6.634   7.374  0.1551  0.1195  0.1462
  879YOPE   C4B13386  17.919   6.589   7.771 -0.1545  0.2157  0.2296
  880YOPE   NH313387   0.275  17.440   5.719  0.1009  0.0346  0.3215
  880YOPE   PO413388  -0.097  17.776   5.887  0.2444  0.2341 -0.0399
  880YOPE   GL113389  -0.116  17.725   6.267  0.1191 -0.2568 -0.0381
  880YOPE   GL213390  -0.216  17.459   6.243  0.0992  0.0760  0.0509
  880YOPE   C1A13391  -0.021  18.018   6.659 -0.1673 -0.0014 -0.0209
  880YOPE   D2A13392   0.130  18.410   6.859 -0.2006  0.0818 -0.1906
  880YOPE   C3A13393   0.003  18.450   7.338 -0.0768  0.3184 -0.1469
  880YOPE   C4A13394  -0.301  18.666   7.594 -0.0129  0.0143  0.1311
  880YOPE   C1B13395  -0.336  17.537   6.707  0.1354  0.2987 -0.0927
  880YOPE   C2B13396  -0.411  17.767   7.080 -0.1753  0.0290 -0.2301
  880YOPE   D3B13397  -0.600  17.669   7.528 -0.1148  0.2418  0.2489
  880YOPE   C4B13398  -0.542  17.922   7.824  0.1319 -0.1243  0.0693
  881YOPE   NH313399   7.402   6.080   5.777  0.4165 -0.1079 -0.0484
  881YOPE   PO413400   7.810   6.211   5.815  0.1304 -0.0524 -0.1847
  881YOPE   GL113401   7.781   6.184   6.209 -0.0296  0.0226 -0.1012
  881YOPE   GL213402   7.463   6.111   6.348  0.1066 -0.2238 -0.0333
  881YOPE   C1A13403   7.948   6.314   6.599 -0.0502 -0.0202  0.3382
  881YOPE   D2A13404   8.140   6.112   6.879 -0.2185  0.1236 -0.1363
  881YOPE   C3A13405   8.546   6.139   6.920 -0.1077 -0.1576 -0.0870
  881YOPE   C4A13406   8.921   6.198   7.060 -0.0644  0.0763 -0.0936
  881YOPE   C1B13407   7.560   6.008   6.757 -0.1412 -0.1663 -0.1897
  881YOPE   C2B13408   7.858   5.828   7.114  0.0993 -0.0804  0.1640
  881YOPE   D3B13409   8.094   5.990   7.405 -0.3876  0.3408 -0.3167
  881YOPE   C4B13410   8.382   6.159   7.594 -0.5549  0.2939 -0.2818
  882YOPE   NH313411   4.830  14.624   6.172 -0.1473  0.0472  0.1720
  882YOPE   PO413412   4.516  14.729   6.411 -0.0328 -0.1630 -0.0357
  882YOPE   GL113413   4.551  15.029   6.786 -0.1860  0.2064  0.1908
  882YOPE   GL213414   4.602  15.274   6.806 -0.0324 -0.1620 -0.0499
  882YOPE   C1A13415   4.309  14.950   7.104 -0.1299  0.1489 -0.0822
  882YOPE   D2A13416   4.356  14.981   7.524  0.0336 -0.1434 -0.1726
  882YOPE   C3A13417   3.987  14.984   7.838 -0.0647  0.0395 -0.0902
  882YOPE   C4A13418   3.732  14.812   8.264 -0.1601 -0.1322  0.1255
  882YOPE   C1B13419   4.550  15.367   7.234 -0.1973  0.0605  0.5518
  882YOPE   C2B13420   4.554  15.482   7.612  0.0049 -0.2529 -0.1384
  882YOPE   D3B13421   4.434  15.551   7.967 -0.2512  0.0922 -0.1728
  882YOPE   C4B13422   4.135  15.259   8.257 -0.4176 -0.2780  0.4168
  883YOPE   NH313423   0.103   6.396   5.650 -0.0308 -0.1433 -0.4073
  883YOPE   PO413424  -0.055   6.488   6.022 -0.0348 -0.1648  0.0347
  883YOPE   GL113425   0.118   6.669   6.434 -0.1483 -0.2015  0.3806
  883YOPE   GL213426   0.226   7.011   6.485  0.0145 -0.2359 -0.2326
  883YOPE   C1A13427   0.306   6.406   6.772 -0.2111  0.0455 -0.0411
  883YOPE   D2A13428   0.157   6.175   7.161  0.2444  0.1416 -0.2973
  883YOPE   C3A13429   0.113   6.528   7.397 -0.2877 -0.0755 -0.1158
  883YOPE   C4A13430   0.346   6.689   7.708 -0.2934 -0.2259 -0.0972
  883YOPE   C1B13431   0.230   6.901   6.930  0.0698 -0.0206  0.2386
  883YOPE   C2B13432   0.129   7.025   7.275 -0.2153  0.0668 -0.3399
  883YOPE   D3B13433  -0.286   7.127   7.577  0.1324  0.1250 -0.0708
  883YOPE   C4B13434  -0.476   7.012   7.967  0.2712 -0.0604  0.2543
  884YOPE   NH313435   9.564  17.638   6.094  0.3090 -0.0341 -0.1338
  884YOPE   PO413436   9.483  17.183   5.845  0.2528 -0.2395  0.1761
  884YOPE   GL113437   9.532  17.163   6.268  0.0891  0.1728  0.0970
  884YOPE   GL213438   9.396  17.263   6.479 -0.1667  0.0151 -0.0020
  884YOPE   C1A13439   9.864  17.124   6.569  0.3010  0.0963 -0.1846
  884YOPE   D2A13440   9.777  17.440   7.029 -0.0009  0.2069 -0.0229
  884YOPE   C3A13441  10.062  17.868   7.230 -0.1663  0.0005  0.0386
  884YOPE   C4A13442  10.108  18.181   7.634  0.2321 -0.1600  0.0237
  884YOPE   C1B13443   9.359  16.991   6.823  0.1933 -0.0717  0.2079
  884YOPE   C2B13444   9.461  17.164   7.219  0.0359 -0.0337 -0.4217
  884YOPE   D3B13445   9.685  17.266   7.613  0.0422  0.1056 -0.1228
  884YOPE   C4B13446   9.944  17.713   7.754 -0.2162 -0.1911  0.0435
  885YOPE   NH313447   4.272   9.241   6.078  0.1908 -0.0897 -0.2929
  885YOPE   PO413448   4.036   8.926   6.068  0.1883  0.0530 -0.3412
  885YOPE   GL113449   4.062   8.793   6.482  0.0061 -0.1976  0.1273
  885YOPE   GL213450   3.953   9.103   6.535 -0.1151  0.1044 -0.3991
  885YOPE   C1A13451   4.257   8.767   6.818 -0.0686 -0.1221  0.1491
  885YOPE   D2A13452   4.239   8.663   7.246 -0.2870 -0.1304 -0.2514
  885YOPE   C3A13453   4.300   9.030   7.368 -0.2062 -0.1731 -0.0923
  885YOPE   C4A13454   4.628   9.328   7.553  0.1433 -0.0085 -0.0457
  885YOPE   C1B13455   3.675   9.155   6.799  0.0240  0.0995 -0.0638
  885YOPE   C2B13456   3.814   8.958   7.126  0.1213 -0.2228 -0.0641
  885YOPE   D3B13457   3.803   8.834   7.586 -0.0599  0.1397 -0.0073
  885YOPE   C4B13458   4.177   8.888   7.857  0.0040 -0.0017  0.2746
  886YOPE   NH313459   0.489   4.683   5.652  0.2784 -0.0038  0.3598
  886YOPE   PO413460   0.053   4.850   5.698 -0.0401 -0.1337  0.2847
  886YOPE   GL113461  -0.040   4.884   6.104  0.0219 -0.2112  0.0717
  886YOPE   GL213462  -0.340   4.675   6.197  0.0634  0.0498 -0.1506
  886YOPE   C1A13463   0.133   5.097   6.426  0.1839 -0.0508 -0.1113
  886YOPE   D2A13464   0.190   4.933   6.860 -0.1785 -0.0327  0.2855
  886YOPE   C3A13465  -0.035   5.089   7.160  0.2500 -0.0955 -0.1801
  886YOPE   C4A13466  -0.363   5.085   7.474  0.2132  0.0555  0.1502
  886YOPE   C1B13467  -0.507   4.564   6.676  0.1992  0.1751 -0.1707
  886YOPE   C2B13468  -0.869   4.512   6.882 -0.0886 -0.1824 -0.1326
  886YOPE   D3B13469  -1.182   4.592   7.188  0.3540  0.1045 -0.1097
  886YOPE   C4B13470  -1.580   4.593   7.373 -0.1287  0.0963 -0.2379
  887YOPE   NH313471   3.331   3.031   5.919  0.0798 -0.1584 -0.0484
  887YOPE   PO413472   3.099   2.785   6.257  0.0637 -0.5192 -0.1712
  887YOPE   GL113473   3.426   2.854   6.597 -0.3409  0.2997  0.1714
  887YOPE   GL213474   3.726   2.659   6.602 -0.1682 -0.3664 -0.1358
  887YOPE   C1A13475   3.278   2.805   7.015  0.1928  0.3911 -0.2097
  887YOPE   D2A13476   3.482   2.953   7.411 -0.0304  0.1018  0.1276
  887YOPE   C3A13477   3.813   2.740   7.625  0.1283  0.1932 -0.3666
  887YOPE   C4A13478   3.875   2.749   8.036 -0.2465  0.2565  0.2013
  887YOPE   C1B13479   3.793   2.798   6.957 -0.0163  0.2439 -0.1156
  887YOPE   C2B13480   4.040   2.954   7.265 -0.0998 -0.2827 -0.0681
  887YOPE   D3B13481   4.216   3.028   7.664 -0.3025 -0.1184  0.1164
  887YOPE   C4B13482   4.343   3.058   8.136  0.0016 -0.2329  0.1351
  888YOPE   NH313483  12.680  12.692   5.680  0.0240  0.1187  0.0559
  888YOPE   PO413484  12.987  12.885   5.808 -0.0646  0.1376 -0.3606
  888YOPE   GL113485  13.239  12.807   6.146  0.1240  0.0702 -0.1036
  888YOPE   GL213486  13.582  12.944   6.125  0.0779 -0.1253 -0.0202
  888YOPE   C1A13487  13.171  12.784   6.591 -0.0780 -0.2346 -0.0147
  888YOPE   D2A13488  12.922  12.992   7.000 -0.1009 -0.1979  0.1732
  888YOPE   C3A13489  13.199  13.173   7.373  0.1608  0.0129  0.1422
  888YOPE   C4A13490  13.238  13.510   7.508  0.2357 -0.0703 -0.0426
  888YOPE   C1B13491  13.679  13.053   6.530  0.1761 -0.1530 -0.1358
  888YOPE   C2B13492  13.832  12.818   6.914  0.2899  0.0166 -0.1654
  888YOPE   D3B13493  13.925  12.900   7.300  0.1295  0.0714 -0.0119
  888YOPE   C4B13494  13.684  12.838   7.700 -0.2554 -0.0285  0.1271
  889YOPE   NH313495   0.331   6.087   5.225 -0.0034  0.1274 -0.2484
  889YOPE   PO413496   0.528   6.215   5.546 -0.2685  0.0168 -0.2674
  889YOPE   GL113497   0.514   6.196   5.922 -0.1989 -0.0235 -0.3231
  889YOPE   GL213498   0.276   6.101   6.095  0.0569  0.1310 -0.1561
  889YOPE   C1A13499   0.688   6.103   6.382 -0.0359 -0.4943  0.0096
  889YOPE   D2A13500   0.817   6.129   6.834  0.0405 -0.2476 -0.2929
  889YOPE   C3A13501   0.647   6.048   7.251  0.1445 -0.0630 -0.0515
  889YOPE   C4A13502   0.432   6.193   7.605 -0.2589  0.0429  0.0727
  889YOPE   C1B13503   0.178   6.064   6.431  0.1156 -0.1227  0.0269
  889YOPE   C2B13504  -0.115   5.980   6.625  0.0435 -0.2661  0.0694
  889YOPE   D3B13505  -0.366   5.823   7.034  0.1975 -0.0822 -0.0123
  889YOPE   C4B13506  -0.638   5.508   7.235  0.2237  0.0594 -0.1148
  890YOPE   NH313507   2.189   8.891   6.324 -0.2443 -0.2294 -0.1331
  890YOPE   PO413508   1.818   9.265   6.579  0.1292  0.0096 -0.0106
  890YOPE   GL113509   1.823   9.428   6.947 -0.3058  0.1015  0.0091
  890YOPE   GL213510   1.659   9.673   6.848  0.0082  0.0668 -0.2092
  890YOPE   C1A13511   1.699   9.436   7.316  0.2947 -0.2008 -0.4138
  890YOPE   D2A13512   1.483   9.397   7.638  0.5894 -0.0809 -0.1178
  890YOPE   C3A13513   1.324   9.755   8.021  0.2701  0.2995  0.3583
  890YOPE   C4A13514   0.944   9.981   8.249 -0.0589 -0.1912 -0.1153
  890YOPE   C1B13515   1.611   9.919   7.304 -0.2594  0.1614 -0.3355
  890YOPE   C2B13516   1.521  10.116   7.620  0.0157  0.1431  0.4309
  890YOPE   D3B13517   1.107  10.131   7.765 -0.1419  0.1539 -0.0139
  890YOPE   C4B13518   0.553   9.956   7.897  0.0899 -0.0740  0.1471
  891YOPE   NH313519   1.382   1.074   5.939 -0.4212 -0.0094 -0.1733
  891YOPE   PO413520   1.106   0.827   5.707  0.0655  0.2402  0.0065
  891YOPE   GL113521   1.145   0.643   6.160 -0.1634 -0.0770 -0.1541
  891YOPE   GL213522   1.367   0.821   6.382  0.1351  0.2853  0.0499
  891YOPE   C1A13523   0.851   0.708   6.569  0.4267 -0.0672 -0.1165
  891YOPE   D2A13524   0.620   0.534   6.899  0.3879  0.0068 -0.2438
  891YOPE   C3A13525   0.522   0.158   7.168 -0.0973  0.2131  0.2941
  891YOPE   C4A13526   0.477  -0.027   7.583  0.0323  0.2718 -0.0930
  891YOPE   C1B13527   1.594   0.874   6.691 -0.0161 -0.0157 -0.0123
  891YOPE   C2B13528   1.561   0.850   7.052  0.0128 -0.2553  0.1862
  891YOPE   D3B13529   1.602   1.112   7.395  0.0333 -0.2431  0.0218
  891YOPE   C4B13530   1.971   1.225   7.502  0.1452 -0.1833 -0.2283
  892YOPE   NH313531   7.261   4.803   5.940 -0.1477 -0.1990 -0.0170
  892YOPE   PO413532   7.394   5.243   5.970 -0.0582 -0.1165  0.0278
  892YOPE   GL113533   7.363   5.357   6.428  0.1980  0.0368 -0.0606
  892YOPE   GL213534   7.492   5.561   6.429 -0.0203  0.1034  0.4080
  892YOPE   C1A13535   7.500   5.466   6.889 -0.1333 -0.0651 -0.0006
  892YOPE   D2A13536   7.524   5.454   7.279  0.2315  0.1897 -0.1068
  892YOPE   C3A13537   7.640   5.796   7.611  0.0829  0.1345 -0.0554
  892YOPE   C4A13538   7.454   6.158   7.970 -0.1580 -0.3298  0.1526
  892YOPE   C1B13539   7.939   5.684   6.467  0.1135 -0.1365  0.1554
  892YOPE   C2B13540   8.260   5.788   6.440 -0.0606 -0.2889  0.1285
  892YOPE   D3B13541   8.466   5.932   6.419 -0.0316  0.0061  0.0643
  892YOPE   C4B13542   8.924   5.919   6.390 -0.2379 -0.1342 -0.0804
  893YOPE   NH313543  14.176  15.283   5.878  0.2813 -0.0922 -0.2335
  893YOPE   PO413544  13.947  15.535   5.698 -0.1077 -0.1256 -0.1654
  893YOPE   GL113545  13.802  15.732   6.031 -0.1342  0.3510 -0.0552
  893YOPE   GL213546  14.016  16.033   6.240  0.0932 -0.2538 -0.1033
  893YOPE   C1A13547  13.575  15.715   6.415 -0.2148 -0.1212 -0.2456
  893YOPE   D2A13548  13.349  15.568   6.730 -0.1420 -0.0573 -0.3826
  893YOPE   C3A13549  13.603  15.778   7.119 -0.0401 -0.1619  0.0235
  893YOPE   C4A13550  13.402  16.053   7.417  0.0689 -0.3779  0.4810
  893YOPE   C1B13551  14.005  16.064   6.713  0.1865 -0.2594 -0.0956
  893YOPE   C2B13552  13.937  16.106   7.159  0.2778  0.1273 -0.0620
  893YOPE   D3B13553  13.860  16.212   7.562  0.0217 -0.0157 -0.0096
  893YOPE   C4B13554  13.826  16.062   7.948  0.0432 -0.0737  0.1467
  894YOPE   NH313555   5.273  11.879   6.205 -0.0276  0.1362 -0.0028
  894YOPE   PO413556   5.529  11.583   6.366 -0.0516 -0.1694  0.2426
  894YOPE   GL113557   5.989  11.842   6.533  0.0624  0.0949 -0.1580
  894YOPE   GL213558   5.848  12.124   6.501 -0.0580  0.0507  0.0389
  894YOPE   C1A13559   6.103  11.785   6.905  0.0734  0.1067  0.4156
  894YOPE   D2A13560   6.228  11.684   7.302 -0.0219 -0.0336 -0.0611
  894YOPE   C3A13561   6.075  11.654   7.661  0.1768 -0.0268 -0.0151
  894YOPE   C4A13562   5.908  11.776   8.056 -0.1458  0.2363 -0.1424
  894YOPE   C1B13563   5.896  12.276   6.918 -0.0556 -0.1644 -0.1925
  894YOPE   C2B13564   5.814  12.555   7.304 -0.4918 -0.0490 -0.2691
  894YOPE   D3B13565   6.156  12.708   7.404  0.3675 -0.4475 -0.2693
  894YOPE   C4B13566   6.488  12.958   7.601  0.1265  0.3956 -0.1559
  895YOPE   NH313567   3.726  16.682   6.160  0.2380  0.1783 -0.1107
  895YOPE   PO413568   3.713  17.201   6.006 -0.0468 -0.1050  0.5007
  895YOPE   GL113569   3.459  17.195   6.329 -0.1491 -0.0588 -0.0058
  895YOPE   GL213570   3.163  17.387   6.487 -0.1251 -0.2280 -0.2228
  895YOPE   C1A13571   3.542  17.319   6.758 -0.0369  0.3244  0.1475
  895YOPE   D2A13572   3.704  17.503   7.051 -0.0367  0.1691 -0.2205
  895YOPE   C3A13573   4.112  17.424   7.111 -0.2999  0.0312  0.1371
  895YOPE   C4A13574   4.472  17.305   7.292  0.0507 -0.0713  0.3218
  895YOPE   C1B13575   3.206  17.702   6.854 -0.1645 -0.4407  0.0261
  895YOPE   C2B13576   2.974  17.817   7.123  0.0287  0.0868 -0.1285
  895YOPE   D3B13577   2.776  17.686   7.508  0.3054 -0.2735  0.3125
  895YOPE   C4B13578   2.820  17.879   7.929 -0.0138  0.1671 -0.0072
  896YOPE   NH313579  17.050  11.592   6.117 -0.0217 -0.2158 -0.1940
  896YOPE   PO413580  16.758  11.934   6.131 -0.1572 -0.0322  0.0230
  896YOPE   GL113581  16.691  12.089   6.480  0.2205  0.3024 -0.0568
  896YOPE   GL213582  16.647  12.363   6.575 -0.1239  0.1222 -0.1078
  896YOPE   C1A13583  16.600  12.006   6.937 -0.2705 -0.2128  0.1797
  896YOPE   D2A13584  16.688  12.189   7.407 -0.0591 -0.3238  0.0007
  896YOPE   C3A13585  16.685  12.337   7.803 -0.1841 -0.2702 -0.2603
  896YOPE   C4A13586  16.958  12.537   8.041  0.1387  0.0233 -0.0400
  896YOPE   C1B13587  16.566  12.481   6.994 -0.1328 -0.1472 -0.4211
  896YOPE   C2B13588  16.371  12.676   7.318 -0.0783  0.0307  0.0470
  896YOPE   D3B13589  16.177  12.632   7.662  0.1076  0.1550 -0.3101
  896YOPE   C4B13590  15.860  12.311   7.719  0.1448 -0.0021 -0.2484
  897YOPE   NH313591  14.141  16.025   5.759 -0.1532 -0.2133  0.0422
  897YOPE   PO413592  13.668  16.198   5.687  0.1124  0.1980 -0.0304
  897YOPE   GL113593  13.553  16.500   5.982 -0.0313  0.0696  0.2678
  897YOPE   GL213594  13.817  16.514   6.239 -0.0369 -0.1028  0.2556
  897YOPE   C1A13595  13.379  16.710   6.336 -0.2611 -0.1391 -0.1206
  897YOPE   D2A13596  13.135  17.095   6.487 -0.0534  0.2252  0.3151
  897YOPE   C3A13597  12.968  17.039   6.872 -0.0175 -0.1120  0.0622
  897YOPE   C4A13598  12.930  16.879   7.229  0.1094  0.0179  0.1743
  897YOPE   C1B13599  14.172  16.462   6.462  0.0199  0.2426  0.0220
  897YOPE   C2B13600  14.223  16.512   6.905  0.3316  0.0650 -0.1004
  897YOPE   D3B13601  14.417  16.418   7.230 -0.1419  0.0057  0.3355
  897YOPE   C4B13602  14.544  16.371   7.724  0.0210 -0.2539  0.1642
  898YOPE   NH313603  16.878   1.173   5.727 -0.2651 -0.2375 -0.0528
  898YOPE   PO413604  16.664   0.791   5.982 -0.0521 -0.0796 -0.2414
  898YOPE   GL113605  16.563   0.845   6.469 -0.2407 -0.0855 -0.3287
  898YOPE   GL213606  16.296   0.670   6.542 -0.0278 -0.4659 -0.1563
  898YOPE   C1A13607  16.629   0.734   6.904 -0.0742  0.1373 -0.0679
  898YOPE   D2A13608  16.450   0.798   7.254  0.0554 -0.0579 -0.0023
  898YOPE   C3A13609  16.585   1.050   7.607 -0.0740 -0.0005 -0.0243
  898YOPE   C4A13610  16.332   1.232   7.947 -0.1446  0.1870  0.1799
  898YOPE   C1B13611  16.174   0.961   6.869  0.0472  0.1208 -0.0761
  898YOPE   C2B13612  16.013   0.936   7.350 -0.2661 -0.0837 -0.6398
  898YOPE   D3B13613  16.053   0.714   7.674  0.0100 -0.0647  0.0044
  898YOPE   C4B13614  15.679   0.457   7.821  0.2364  0.0922  0.1315
  899YOPE   NH313615  11.441   4.478   5.405 -0.0891  0.2487  0.0648
  899YOPE   PO413616  11.308   3.959   5.471 -0.1132  0.0620 -0.0283
  899YOPE   GL113617  11.173   4.024   5.872  0.0266 -0.0539 -0.1189
  899YOPE   GL213618  11.221   4.353   5.834  0.0202 -0.1599 -0.4447
  899YOPE   C1A13619  11.249   3.933   6.307 -0.2160 -0.0821  0.7076
  899YOPE   D2A13620  11.052   4.072   6.657  0.1184  0.0045  0.3857
  899YOPE   C3A13621  11.023   4.313   6.952 -0.1031  0.0368 -0.0205
  899YOPE   C4A13622  10.679   4.666   7.142  0.0999 -0.1702 -0.1272
  899YOPE   C1B13623  11.502   4.392   6.110  0.0082 -0.2858  0.1447
  899YOPE   C2B13624  11.857   4.338   6.275 -0.1947  0.0161  0.0983
  899YOPE   D3B13625  11.938   4.366   6.601 -0.0448  0.2235 -0.1109
  899YOPE   C4B13626  12.057   4.226   7.073  0.0404 -0.1842 -0.0407
  900YOPE   NH313627   5.695   3.086   5.892  0.0752 -0.0906 -0.1132
  900YOPE   PO413628   5.404   2.686   5.873 -0.3263  0.1545 -0.0563
  900YOPE   GL113629   5.328   2.645   6.297  0.2675  0.1087  0.1557
  900YOPE   GL213630   4.976   2.727   6.310 -0.1012  0.1944 -0.2105
  900YOPE   C1A13631   5.435   2.801   6.733  0.1114  0.0741  0.3296
  900YOPE   D2A13632   5.417   2.743   7.110  0.1063  0.0620  0.1097
  900YOPE   C3A13633   5.653   3.025   7.375  0.1881 -0.0492 -0.1811
  900YOPE   C4A13634   5.877   2.839   7.705  0.0791  0.1562 -0.2876
  900YOPE   C1B13635   4.637   2.615   6.444 -0.1142  0.3086  0.0844
  900YOPE   C2B13636   4.272   2.688   6.678  0.0152  0.4952  0.1328
  900YOPE   D3B13637   4.075   3.098   6.746  0.2187  0.1800  0.1541
  900YOPE   C4B13638   3.646   3.267   6.706 -0.1645  0.0288 -0.0389
  901YOPE   NH313639   1.196  10.202   6.047 -0.1438 -0.0415  0.1801
  901YOPE   PO413640   1.269   9.832   6.082 -0.4028  0.2410  0.0430
  901YOPE   GL113641   1.626   9.989   6.394  0.3057  0.1636  0.3187
  901YOPE   GL213642   1.934   9.866   6.454 -0.3536  0.0659  0.2263
  901YOPE   C1A13643   1.647  10.141   6.772  0.0694  0.0685  0.1937
  901YOPE   D2A13644   1.601  10.468   7.054 -0.0726 -0.1635 -0.2238
  901YOPE   C3A13645   1.741  10.590   7.369 -0.1550  0.0514 -0.2417
  901YOPE   C4A13646   1.847  10.523   7.786  0.2257  0.0037 -0.1165
  901YOPE   C1B13647   2.285   9.894   6.861  0.0994  0.0974  0.2111
  901YOPE   C2B13648   2.225   9.680   7.201 -0.0458 -0.1410  0.1761
  901YOPE   D3B13649   2.515   9.548   7.509  0.1071  0.1976 -0.0409
  901YOPE   C4B13650   2.759   9.576   7.983  0.1316 -0.1933  0.1178
  902YOPE   NH313651   2.004   2.220   5.927 -0.0797  0.4215 -0.2083
  902YOPE   PO413652   2.431   2.453   5.897 -0.2789  0.2192  0.1520
  902YOPE   GL113653   2.260   2.560   6.254 -0.0187 -0.0385  0.0422
  902YOPE   GL213654   2.500   2.697   6.395  0.0423  0.1956 -0.0118
  902YOPE   C1A13655   2.012   2.841   6.595 -0.3006  0.1303 -0.0814
  902YOPE   D2A13656   1.838   2.829   7.009 -0.0895  0.0036  0.0217
  902YOPE   C3A13657   1.721   3.223   7.146  0.2192  0.1366 -0.3760
  902YOPE   C4A13658   2.025   3.384   6.911  0.3409 -0.2258 -0.1405
  902YOPE   C1B13659   2.511   2.563   6.814  0.0265  0.1718 -0.2210
  902YOPE   C2B13660   2.552   2.491   7.225 -0.0849 -0.0736 -0.3122
  902YOPE   D3B13661   2.593   2.215   7.566  0.2425 -0.2970  0.0416
  902YOPE   C4B13662   2.588   2.339   8.012  0.0708  0.0732  0.2287
  903YOPE   NH313663   2.353   9.037   5.856 -0.0002 -0.2514  0.1347
  903YOPE   PO413664   2.630   9.224   6.109 -0.2186 -0.2903 -0.0373
  903YOPE   GL113665   2.715   8.942   6.443  0.3495 -0.2922  0.3892
  903YOPE   GL213666   2.913   8.780   6.305 -0.0865  0.0870 -0.2772
  903YOPE   C1A13667   2.651   8.987   6.967 -0.1583 -0.0747 -0.1265
  903YOPE   D2A13668   2.664   8.979   7.386  0.2560 -0.0281 -0.0603
  903YOPE   C3A13669   2.978   9.134   7.778  0.2322  0.1554  0.2958
  903YOPE   C4A13670   3.250   8.945   8.175  0.4121  0.2158  0.0807
  903YOPE   C1B13671   2.792   8.544   6.751  0.1488  0.2705 -0.0545
  903YOPE   C2B13672   2.736   8.517   7.194 -0.2187 -0.0355 -0.0248
  903YOPE   D3B13673   2.841   8.617   7.633  0.1329 -0.5628 -0.2268
  903YOPE   C4B13674   3.121   8.403   7.899 -0.0207  0.2013 -0.1126
  904YOPE   NH313675  16.271   7.449   5.892  0.1589  0.1091  0.1681
  904YOPE   PO413676  15.721   7.559   5.940 -0.0296 -0.3454 -0.0416
  904YOPE   GL113677  15.735   7.360   6.401  0.2777 -0.1114 -0.2125
  904YOPE   GL213678  15.966   7.220   6.260 -0.2988  0.2208 -0.2045
  904YOPE   C1A13679  15.475   7.197   6.760  0.1886 -0.0105  0.2636
  904YOPE   D2A13680  15.404   6.950   7.124 -0.0780  0.1426  0.0946
  904YOPE   C3A13681  15.369   6.991   7.544 -0.1655  0.0293 -0.0216
  904YOPE   C4A13682  15.234   6.962   7.942  0.1022  0.0128  0.1340
  904YOPE   C1B13683  15.897   6.970   6.714 -0.1797 -0.0025 -0.3214
  904YOPE   C2B13684  15.855   6.685   7.053  0.1640 -0.1815  0.2420
  904YOPE   D3B13685  15.847   6.879   7.501 -0.1382 -0.1653 -0.3538
  904YOPE   C4B13686  16.157   6.876   7.740 -0.0362  0.1940  0.0024
  905YOPE   NH313687  12.151   3.685   5.591 -0.1144  0.0852 -0.1213
  905YOPE   PO413688  12.380   3.885   5.782  0.0366 -0.0727 -0.0760
  905YOPE   GL113689  12.376   3.560   6.130  0.2027 -0.0455  0.0062
  905YOPE   GL213690  12.651   3.760   6.312 -0.1071  0.2051  0.0590
  905YOPE   C1A13691  12.304   3.426   6.503  0.2089 -0.0085 -0.1030
  905YOPE   D2A13692  12.088   3.182   6.835  0.0962 -0.3175  0.0401
  905YOPE   C3A13693  11.946   3.240   7.255  0.2974 -0.2001  0.0653
  905YOPE   C4A13694  11.765   3.163   7.560 -0.2233 -0.0263  0.1977
  905YOPE   C1B13695  12.578   3.744   6.757 -0.0120 -0.0664 -0.0691
  905YOPE   C2B13696  12.360   3.857   7.117 -0.0126 -0.0012  0.0986
  905YOPE   D3B13697  12.487   4.002   7.382  0.0744 -0.3104  0.2422
  905YOPE   C4B13698  12.212   4.261   7.506 -0.0537  0.2946  0.0553
  906YOPE   NH313699   9.264  12.549   5.926  0.1422 -0.1627 -0.2121
  906YOPE   PO413700   9.706  12.427   5.805  0.1578 -0.0223 -0.1321
  906YOPE   GL113701   9.717  12.416   6.268  0.0592  0.0111  0.2965
  906YOPE   GL213702   9.755  12.743   6.205  0.1656  0.2671  0.0039
  906YOPE   C1A13703   9.848  12.355   6.685  0.3275  0.1689  0.1412
  906YOPE   D2A13704   9.836  12.579   6.904  0.0074  0.3390  0.0621
  906YOPE   C3A13705  10.009  12.619   7.313 -0.0781 -0.2279 -0.1598
  906YOPE   C4A13706  10.024  12.803   7.755  0.4550 -0.1905  0.0288
  906YOPE   C1B13707   9.678  12.997   6.586  0.1311 -0.0125  0.1480
  906YOPE   C2B13708   9.562  13.036   7.014  0.0863 -0.1501  0.0427
  906YOPE   D3B13709   9.781  13.031   7.322 -0.0068 -0.4381  0.0269
  906YOPE   C4B13710  10.225  13.044   7.333 -0.1135  0.2790  0.0914
  907YOPE   NH313711  10.522  16.365   6.120 -0.2695 -0.1594  0.0543
  907YOPE   PO413712  10.767  16.081   6.109  0.1603  0.2193 -0.1230
  907YOPE   GL113713  10.866  15.775   6.326 -0.1155  0.1104  0.3611
  907YOPE   GL213714  11.155  15.912   6.433  0.2550  0.1607  0.1133
  907YOPE   C1A13715  10.690  15.564   6.659  0.1258 -0.1252  0.0748
  907YOPE   D2A13716  10.806  15.278   6.962 -0.3794 -0.0621 -0.0336
  907YOPE   C3A13717  11.005  15.266   7.317  0.2128 -0.0381  0.1324
  907YOPE   C4A13718  11.281  15.631   7.627 -0.4609 -0.2267  0.1540
  907YOPE   C1B13719  11.402  15.960   6.777 -0.2484 -0.1366  0.3500
  907YOPE   C2B13720  11.365  16.000   7.186 -0.1722 -0.1716 -0.2716
  907YOPE   D3B13721  11.148  16.136   7.504 -0.2063  0.0681  0.3587
  907YOPE   C4B13722  11.036  16.033   7.923  0.1817 -0.3494  0.0579
  908YOPE   NH313723   9.895  11.273   5.745  0.0010 -0.0834  0.0647
  908YOPE   PO413724   9.560  11.168   5.647  0.1022  0.1454 -0.1828
  908YOPE   GL113725   9.504  11.002   6.095  0.0380  0.1114  0.1697
  908YOPE   GL213726   9.205  10.743   6.146 -0.0792 -0.2353  0.3080
  908YOPE   C1A13727   9.458  10.847   6.562  0.1831 -0.3644 -0.2388
  908YOPE   D2A13728   9.408  10.825   6.972  0.0399  0.0137 -0.2705
  908YOPE   C3A13729   9.051  10.515   7.151  0.3268 -0.0259  0.0575
  908YOPE   C4A13730   8.817  10.441   7.473 -0.1347  0.0417 -0.0202
  908YOPE   C1B13731   9.546  10.433   6.244  0.1578 -0.0452 -0.1528
  908YOPE   C2B13732   9.633  10.059   6.440 -0.3398  0.0368 -0.1503
  908YOPE   D3B13733   9.779   9.624   6.274 -0.1512 -0.0394 -0.2292
  908YOPE   C4B13734   9.962   9.185   6.389 -0.0128 -0.1330 -0.0456
  909YOPE   NH313735  11.456   5.317   5.279 -0.0740  0.0994 -0.3806
  909YOPE   PO413736  11.976   5.188   5.361 -0.2801  0.1858 -0.1248
  909YOPE   GL113737  12.097   5.191   5.776  0.1220 -0.1803 -0.0118
  909YOPE   GL213738  12.156   4.836   5.826  0.2258 -0.0886  0.0123
  909YOPE   C1A13739  12.157   5.245   6.237 -0.1516 -0.2208 -0.1577
  909YOPE   D2A13740  12.374   5.656   6.407  0.2271 -0.0272  0.0182
  909YOPE   C3A13741  12.496   5.703   6.855 -0.0444  0.1634  0.1627
  909YOPE   C4A13742  12.475   5.506   7.210 -0.5537 -0.3481  0.1223
  909YOPE   C1B13743  11.881   4.784   6.076  0.0128  0.1708  0.0261
  909YOPE   C2B13744  11.829   4.911   6.509 -0.0131  0.1658 -0.2806
  909YOPE   D3B13745  11.643   5.146   6.878  0.1969 -0.1579  0.1141
  909YOPE   C4B13746  11.580   5.321   7.343  0.2286  0.1969  0.0582
  910YOPE   NH313747  11.792  12.531   5.748 -0.1466 -0.1394 -0.1409
  910YOPE   PO413748  12.189  12.708   5.835  0.0816  0.1814  0.0030
  910YOPE   GL113749  12.245  12.531   6.247  0.1049  0.0207  0.0214
  910YOPE   GL213750  12.059  12.345   6.175 -0.4123 -0.0573 -0.2599
  910YOPE   C1A13751  12.162  12.726   6.646 -0.1370 -0.0982  0.0601
  910YOPE   D2A13752  12.012  12.865   7.004 -0.5735 -0.1580  0.2530
  910YOPE   C3A13753  12.072  12.981   7.378  0.0185 -0.3376  0.2711
  910YOPE   C4A13754  12.402  13.016   7.721  0.1870 -0.1129 -0.0946
  910YOPE   C1B13755  11.929  12.264   6.599 -0.1077 -0.1257 -0.1736
  910YOPE   C2B13756  11.802  12.320   7.041  0.1694  0.2179 -0.1577
  910YOPE   D3B13757  12.096  12.373   7.410 -0.2261  0.0394 -0.1183
  910YOPE   C4B13758  12.383  12.475   7.802  0.1016  0.0752 -0.2383
  911YOPE   NH313759  14.256  17.921   5.680  0.3696 -0.0131 -0.1763
  911YOPE   PO413760  14.460  17.754   5.983  0.0629 -0.0669  0.0685
  911YOPE   GL113761  14.161  18.069   6.157 -0.1303  0.1049  0.2505
  911YOPE   GL213762  13.876  18.028   6.158 -0.0070 -0.3595 -0.0936
  911YOPE   C1A13763  14.022  18.254   6.534 -0.1690  0.2463 -0.6505
  911YOPE   D2A13764  14.009  18.351   7.003  0.2626 -0.2995  0.0713
  911YOPE   C3A13765  13.759  18.177   7.480  0.1897 -0.0017 -0.1276
  911YOPE   C4A13766  13.619  17.760   7.539  0.2670 -0.0570  0.0656
  911YOPE   C1B13767  13.637  17.925   6.430 -0.1818 -0.1715  0.1728
  911YOPE   C2B13768  13.690  17.823   6.712  0.2668  0.2754 -0.2199
  911YOPE   D3B13769  13.845  17.880   7.120  0.2105 -0.0778  0.3349
  911YOPE   C4B13770  14.200  17.775   7.425 -0.2017 -0.2297 -0.3828
  912YOPE   NH313771   6.348   2.440   5.732 -0.1318  0.0776 -0.0491
  912YOPE   PO413772   6.741   2.805   5.827 -0.2611  0.1035 -0.0863
  912YOPE   GL113773   7.009   2.882   6.167 -0.0854  0.1471  0.0739
  912YOPE   GL213774   6.829   3.088   6.276  0.1209 -0.1770  0.0137
  912YOPE   C1A13775   7.354   3.045   6.459 -0.0669 -0.1293  0.0957
  912YOPE   D2A13776   7.438   3.221   6.904  0.0602 -0.0434 -0.0187
  912YOPE   C3A13777   7.545   3.044   7.305 -0.0403 -0.2619  0.1003
  912YOPE   C4A13778   7.823   3.171   7.632  0.0716 -0.2856  0.0911
  912YOPE   C1B13779   6.928   3.220   6.705 -0.1483  0.0144 -0.2491
  912YOPE   C2B13780   7.056   3.127   7.161  0.0964  0.1251 -0.0926
  912YOPE   D3B13781   6.892   3.125   7.645 -0.1603 -0.0899  0.1037
  912YOPE   C4B13782   6.790   2.752   7.904  0.0087  0.3373  0.2304
  913YOPE   NH313783  18.089  14.152   6.431 -0.0041  0.1001  0.0856
  913YOPE   PO413784  18.522  13.919   6.553  0.2606  0.0196  0.1176
  913YOPE   GL113785  18.585  13.742   6.954 -0.0146 -0.2324  0.0835
  913YOPE   GL213786  18.231  13.726   6.963  0.0513  0.1632  0.2793
  913YOPE   C1A13787  18.912  13.686   7.359  0.0872 -0.1720 -0.0630
  913YOPE   D2A13788  18.850  13.638   7.721 -0.0734  0.3810  0.1554
  913YOPE   C3A13789  18.808  13.960   8.012 -0.1988  0.2428  0.1847
  913YOPE   C4A13790  18.535  14.212   8.243  0.0899  0.1452  0.2798
  913YOPE   C1B13791  18.001  13.565   7.280 -0.2774 -0.2252  0.1252
  913YOPE   C2B13792  17.805  13.522   7.678 -0.0653  0.1262  0.2378
  913YOPE   D3B13793  17.693  13.744   8.026 -0.3667  0.0632 -0.0283
  913YOPE   C4B13794  17.804  13.809   8.419 -0.0207 -0.0495 -0.2572
  914YOPE   NH313795  10.226   0.691   6.007 -0.1996  0.1132 -0.1993
  914YOPE   PO413796  10.423   0.957   6.246 -0.0429 -0.0195 -0.0954
  914YOPE   GL113797  10.554   1.095   6.599 -0.2240  0.0707  0.1637
  914YOPE   GL213798  10.807   1.405   6.637 -0.0094  0.0771 -0.1027
  914YOPE   C1A13799  10.576   1.093   7.011  0.2935 -0.2641  0.0175
  914YOPE   D2A13800  10.515   1.261   7.407 -0.0755  0.1842  0.0148
  914YOPE   C3A13801  10.874   1.287   7.666  0.1073  0.0582  0.1199
  914YOPE   C4A13802  11.010   1.530   8.055  0.0584 -0.0749  0.0444
  914YOPE   C1B13803  10.809   1.526   7.066  0.1841  0.0403 -0.0577
  914YOPE   C2B13804  10.827   1.770   7.399  0.0050 -0.1937  0.0956
  914YOPE   D3B13805  10.603   1.760   7.743  0.1759 -0.0166 -0.2878
  914YOPE   C4B13806  10.458   1.795   8.155 -0.0150  0.1006  0.1176
  915YOPE   NH313807  16.642   9.321   5.766  0.2713  0.1685 -0.1022
  915YOPE   PO413808  16.599   8.849   5.807  0.0647 -0.1065 -0.1966
  915YOPE   GL113809  16.624   8.661   6.190  0.2169  0.1079 -0.2566
  915YOPE   GL213810  16.272   8.660   6.280 -0.2448  0.0074 -0.0485
  915YOPE   C1A13811  16.685   8.497   6.541  0.1649  0.1339  0.2247
  915YOPE   D2A13812  16.843   8.479   6.933 -0.0467 -0.2403 -0.0965
  915YOPE   C3A13813  16.633   8.714   7.310  0.3231 -0.3397 -0.2321
  915YOPE   C4A13814  16.350   8.844   7.631  0.2612  0.0825  0.0752
  915YOPE   C1B13815  16.136   8.691   6.720 -0.0052 -0.0853 -0.0680
  915YOPE   C2B13816  16.242   8.816   6.995 -0.1219  0.2927 -0.4146
  915YOPE   D3B13817  15.946   8.925   7.280 -0.1307 -0.0355  0.2637
  915YOPE   C4B13818  15.943   9.093   7.761 -0.1703 -0.0136 -0.1942
  916YOPE   NH313819   6.780  16.665   6.061  0.0280 -0.0382 -0.2159
  916YOPE   PO413820   6.390  16.385   6.064 -0.0797 -0.0646 -0.0307
  916YOPE   GL113821   6.117  16.165   6.424  0.0788 -0.0196  0.1663
  916YOPE   GL213822   5.841  16.249   6.656  0.1583  0.0357  0.0280
  916YOPE   C1A13823   6.164  16.018   6.973 -0.0629  0.0435 -0.0575
  916YOPE   D2A13824   6.384  16.134   7.286 -0.0427 -0.0929  0.1256
  916YOPE   C3A13825   6.234  16.225   7.664 -0.0480  0.0357  0.0303
  916YOPE   C4A13826   6.009  16.528   7.842  0.1846 -0.3252  0.0258
  916YOPE   C1B13827   5.822  16.326   7.076  0.2193 -0.3338  0.2250
  916YOPE   C2B13828   5.816  16.460   7.377 -0.0445 -0.2627 -0.1526
  916YOPE   D3B13829   5.928  16.903   7.472  0.3382  0.3128  0.2318
  916YOPE   C4B13830   6.034  17.214   7.129  0.4733  0.1801  0.1001
  917YOPE   NH313831  14.340   4.159   5.783  0.2837 -0.0723 -0.2426
  917YOPE   PO413832  14.382   3.738   6.025 -0.0077  0.1795 -0.0322
  917YOPE   GL113833  14.569   3.962   6.292  0.0851 -0.3020 -0.0340
  917YOPE   GL213834  14.773   3.867   6.530 -0.0317 -0.1510  0.2010
  917YOPE   C1A13835  14.604   4.313   6.529 -0.1974  0.3388  0.0595
  917YOPE   D2A13836  14.602   4.465   6.955  0.1662  0.2119  0.4028
  917YOPE   C3A13837  14.412   4.720   7.268  0.0514 -0.0234 -0.0392
  917YOPE   C4A13838  14.379   5.136   7.367 -0.0583  0.0265 -0.0624
  917YOPE   C1B13839  14.689   3.972   6.950  0.0352 -0.0715  0.2161
  917YOPE   C2B13840  14.598   4.040   7.323  0.0644  0.0470  0.3333
  917YOPE   D3B13841  14.490   4.304   7.660 -0.2170 -0.4329 -0.1364
  917YOPE   C4B13842  14.213   4.220   7.891  0.0337  0.5626 -0.2512
  918YOPE   NH313843   8.148   8.892   5.746  0.0424 -0.0044  0.1294
  918YOPE   PO413844   8.519   9.152   5.738  0.1528  0.2027 -0.2636
  918YOPE   GL113845   8.382   9.280   6.159  0.0553  0.1778 -0.1523
  918YOPE   GL213846   8.549   9.527   6.377 -0.5347  0.0185 -0.1573
  918YOPE   C1A13847   8.173   9.280   6.545 -0.0491 -0.1575 -0.2773
  918YOPE   D2A13848   7.980   9.416   6.950  0.0959  0.0473 -0.1643
  918YOPE   C3A13849   8.023   9.599   7.305  0.0153 -0.1908  0.1961
  918YOPE   C4A13850   7.782   9.869   7.495  0.0747 -0.0518 -0.0840
  918YOPE   C1B13851   8.522   9.533   6.823  0.1225  0.0792  0.3655
  918YOPE   C2B13852   8.641   9.781   7.114  0.0694  0.2572  0.0973
  918YOPE   D3B13853   8.819   9.942   7.486  0.1294  0.0570 -0.0705
  918YOPE   C4B13854   8.753   9.739   7.920  0.2774  0.0480 -0.0123
  919YOPE   NH313855   2.524   5.263   5.728 -0.0866  0.1925 -0.2057
  919YOPE   PO413856   2.997   5.234   5.676 -0.1382 -0.3120 -0.0824
  919YOPE   GL113857   2.919   4.985   5.993  0.3699 -0.0808  0.0188
  919YOPE   GL213858   2.990   4.727   5.856  0.0648  0.1236 -0.3435
  919YOPE   C1A13859   2.800   5.060   6.446  0.0053 -0.2452 -0.0234
  919YOPE   D2A13860   2.739   5.301   6.838  0.1659 -0.0716 -0.0959
  919YOPE   C3A13861   2.423   5.097   7.076 -0.0319 -0.1048  0.1026
  919YOPE   C4A13862   2.549   4.610   7.214  0.1272 -0.0903  0.3414
  919YOPE   C1B13863   2.935   4.565   6.303 -0.0488 -0.0569  0.0592
  919YOPE   C2B13864   2.810   4.626   6.777  0.0339 -0.2282 -0.1398
  919YOPE   D3B13865   2.888   4.959   7.179  0.1650 -0.0902  0.0034
  919YOPE   C4B13866   3.040   5.101   7.535 -0.0739  0.0306 -0.0485
  920YOPE   NH313867   8.004   6.558   5.531  0.2342  0.0778  0.1230
  920YOPE   PO413868   8.564   6.606   5.450  0.2696  0.2271  0.2569
  920YOPE   GL113869   8.424   6.661   5.907 -0.0682  0.2386  0.0068
  920YOPE   GL213870   8.567   6.416   6.129 -0.0420  0.0033  0.1534
  920YOPE   C1A13871   8.419   7.058   6.152  0.0636 -0.3353 -0.2117
  920YOPE   D2A13872   8.568   7.419   6.528  0.0566  0.2554  0.3520
  920YOPE   C3A13873   8.446   7.418   6.916  0.0880  0.0921 -0.1361
  920YOPE   C4A13874   8.654   7.642   7.326  0.0435  0.0444  0.0986
  920YOPE   C1B13875   8.363   6.449   6.434  0.2485 -0.4003  0.0279
  920YOPE   C2B13876   8.431   6.607   6.869  0.2008 -0.1227 -0.2855
  920YOPE   D3B13877   8.573   6.552   7.264 -0.2597 -0.0259 -0.1554
  920YOPE   C4B13878   8.503   6.649   7.768  0.2089  0.0007 -0.1542
  921YOPE   NH313879   2.837   1.073   5.910  0.0501  0.1502  0.0449
  921YOPE   PO413880   2.872   1.521   5.838  0.0101 -0.1487 -0.2835
  921YOPE   GL113881   2.795   1.572   6.154  0.1012 -0.3428 -0.0478
  921YOPE   GL213882   2.994   1.829   6.305 -0.0964 -0.0817 -0.1908
  921YOPE   C1A13883   2.635   1.582   6.630  0.2525  0.3212  0.2460
  921YOPE   D2A13884   2.788   1.626   7.025 -0.1649 -0.2919 -0.1785
  921YOPE   C3A13885   3.030   1.358   7.155 -0.1659  0.2138 -0.0709
  921YOPE   C4A13886   3.101   1.067   7.500  0.2666  0.2205 -0.4312
  921YOPE   C1B13887   3.110   1.837   6.717  0.1956  0.0768  0.2051
  921YOPE   C2B13888   3.335   1.860   6.995 -0.1292 -0.1017  0.1468
  921YOPE   D3B13889   3.279   1.740   7.356 -0.1785 -0.1577 -0.0672
  921YOPE   C4B13890   3.043   1.526   7.677  0.0185 -0.1397  0.1102
  922YOPE   NH313891   2.719   8.196   6.151  0.0188 -0.0441 -0.2582
  922YOPE   PO413892   2.526   8.559   6.049 -0.1575  0.0872  0.0247
  922YOPE   GL113893   2.375   8.406   6.506 -0.1599 -0.0679 -0.0383
  922YOPE   GL213894   2.407   8.019   6.526 -0.0089 -0.1583 -0.0258
  922YOPE   C1A13895   2.254   8.627   6.977  0.0544 -0.0038  0.2433
  922YOPE   D2A13896   2.111   8.639   7.367  0.1725  0.2653 -0.0280
  922YOPE   C3A13897   2.340   8.945   7.757  0.2102 -0.2551  0.0522
  922YOPE   C4A13898   2.658   8.920   8.104 -0.0063  0.0450 -0.2473
  922YOPE   C1B13899   2.310   8.164   6.989 -0.1737  0.2356 -0.1610
  922YOPE   C2B13900   2.293   8.119   7.320  0.1050 -0.0012 -0.1507
  922YOPE   D3B13901   2.384   8.425   7.704  0.1320 -0.0040  0.0520
  922YOPE   C4B13902   2.206   8.651   8.110 -0.2410  0.0437  0.3424
  923YOPE   NH313903  17.716  12.983   6.066 -0.0549 -0.0720 -0.0495
  923YOPE   PO413904  17.710  13.410   6.173  0.0125 -0.0592 -0.1165
  923YOPE   GL113905  17.691  13.307   6.560 -0.0523 -0.1458 -0.0700
  923YOPE   GL213906  17.523  13.506   6.796 -0.1498  0.2376 -0.1933
  923YOPE   C1A13907  17.862  13.230   6.945  0.0052  0.0847 -0.4539
  923YOPE   D2A13908  17.973  13.046   7.333  0.0783  0.5425  0.2356
  923YOPE   C3A13909  18.112  13.143   7.698  0.0103 -0.1272 -0.3928
  923YOPE   C4A13910  18.284  12.952   8.154 -0.3259 -0.0875  0.0515
  923YOPE   C1B13911  17.384  13.384   7.101  0.0430  0.0050  0.2164
  923YOPE   C2B13912  17.313  13.595   7.559 -0.0558 -0.1308 -0.1475
  923YOPE   D3B13913  17.219  13.420   7.886 -0.2318  0.2245  0.4513
  923YOPE   C4B13914  16.923  13.241   8.258 -0.1667 -0.2257 -0.0222
  924YOPE   NH313915  14.725   5.556   5.913 -0.0692  0.3013  0.1090
  924YOPE   PO413916  15.154   5.467   5.932  0.1044 -0.2791  0.4508
  924YOPE   GL113917  15.158   5.308   6.273  0.2361  0.0398  0.1018
  924YOPE   GL213918  14.828   5.224   6.380 -0.1251  0.3437  0.1794
  924YOPE   C1A13919  15.342   5.449   6.631 -0.5471  0.0078 -0.1003
  924YOPE   D2A13920  15.256   5.622   7.095 -0.1391  0.1036 -0.4405
  924YOPE   C3A13921  15.291   5.315   7.431 -0.0081  0.1326  0.4828
  924YOPE   C4A13922  15.166   4.988   7.612 -0.0266 -0.0733 -0.3022
  924YOPE   C1B13923  14.821   5.344   6.856  0.2552 -0.2735 -0.0877
  924YOPE   C2B13924  14.859   5.543   7.397  0.1061  0.0576 -0.2811
  924YOPE   D3B13925  15.003   5.718   7.718  0.1647 -0.2370 -0.2208
  924YOPE   C4B13926  15.285   6.099   7.912 -0.0686 -0.0038 -0.0283
  925YOPE   NH313927   0.813   1.793   5.858  0.1920 -0.1797  0.1706
  925YOPE   PO413928   0.286   2.051   5.875 -0.0357  0.0805 -0.0294
  925YOPE   GL113929   0.084   2.229   6.248  0.1179 -0.2372 -0.3371
  925YOPE   GL213930  -0.245   2.086   6.253  0.2567  0.1285 -0.1700
  925YOPE   C1A13931   0.087   2.416   6.677 -0.1026  0.2577  0.6683
  925YOPE   D2A13932   0.058   2.532   7.127 -0.0656  0.2407  0.0938
  925YOPE   C3A13933   0.379   2.413   7.405 -0.1361 -0.1717  0.1064
  925YOPE   C4A13934   0.632   2.348   7.692  0.0047  0.2560 -0.1252
  925YOPE   C1B13935  -0.322   2.152   6.707 -0.2158 -0.1083 -0.0443
  925YOPE   C2B13936  -0.443   2.303   7.081 -0.1280 -0.1773  0.0845
  925YOPE   D3B13937  -0.712   2.428   7.487 -0.2175  0.1958 -0.4687
  925YOPE   C4B13938  -1.013   2.456   7.765  0.2519  0.0168  0.1107
  926YOPE   NH313939  13.113   4.944   5.528  0.1347 -0.5036  0.0410
  926YOPE   PO413940  13.410   5.309   5.594 -0.1269  0.4656 -0.1261
  926YOPE   GL113941  13.343   5.521   6.010 -0.1491  0.1600  0.2460
  926YOPE   GL213942  13.324   5.827   5.976  0.0747 -0.2224 -0.0000
  926YOPE   C1A13943  13.514   5.331   6.414 -0.1182 -0.1838  0.0646
  926YOPE   D2A13944  13.502   5.109   6.859 -0.1843 -0.2186 -0.2548
  926YOPE   C3A13945  13.299   4.920   7.165  0.0693  0.3845  0.0272
  926YOPE   C4A13946  13.536   4.955   7.574  0.0263  0.3152  0.3204
  926YOPE   C1B13947  13.310   5.893   6.481 -0.1463  0.4526  0.1173
  926YOPE   C2B13948  13.264   5.978   6.840 -0.0338  0.1239 -0.1768
  926YOPE   D3B13949  13.182   5.909   7.285  0.0978  0.2319 -0.0472
  926YOPE   C4B13950  13.366   5.762   7.717 -0.0444  0.1034  0.0288
  927YOPE   NH313951  16.374  15.193   5.940 -0.2380 -0.2426 -0.4624
  927YOPE   PO413952  16.755  15.462   6.077 -0.1216 -0.1343 -0.2018
  927YOPE   GL113953  16.509  15.341   6.482 -0.2094 -0.1272 -0.2449
  927YOPE   GL213954  16.712  15.396   6.754 -0.3353  0.3857  0.1046
  927YOPE   C1A13955  16.171  15.283   6.785  0.4284  0.1442 -0.1763
  927YOPE   D2A13956  16.159  15.352   7.264 -0.0920  0.2075  0.0478
  927YOPE   C3A13957  15.815  15.403   7.408 -0.2154  0.2086  0.3021
  927YOPE   C4A13958  15.598  15.339   7.705  0.0236  0.1665  0.2275
  927YOPE   C1B13959  16.703  15.385   7.283  0.0234  0.0618  0.0611
  927YOPE   C2B13960  16.629  15.344   7.656 -0.0774 -0.2323 -0.1104
  927YOPE   D3B13961  16.173  15.400   7.809 -0.0835 -0.0289 -0.0433
  927YOPE   C4B13962  15.898  15.811   7.683 -0.0960  0.2087 -0.0021
  928YOPE   NH313963   9.980  16.279   5.994  0.1518 -0.0138  0.0758
  928YOPE   PO413964   9.523  16.381   5.901  0.1653 -0.0277  0.0749
  928YOPE   GL113965   9.650  16.049   6.283  0.5491  0.4314  0.3257
  928YOPE   GL213966   9.849  15.789   6.187  0.1886  0.0729 -0.2652
  928YOPE   C1A13967   9.513  15.953   6.693 -0.0002  0.1649  0.1727
  928YOPE   D2A13968   9.450  15.841   7.167 -0.0108 -0.0010 -0.0948
  928YOPE   C3A13969   9.784  15.770   7.389  0.0115  0.1790 -0.0155
  928YOPE   C4A13970  10.231  15.648   7.602  0.1747 -0.4285  0.0500
  928YOPE   C1B13971   9.721  15.523   6.576  0.0504 -0.0405 -0.1544
  928YOPE   C2B13972   9.689  15.501   6.961 -0.2696  0.2363 -0.0374
  928YOPE   D3B13973   9.710  15.272   7.289  0.0543  0.1329 -0.0072
  928YOPE   C4B13974   9.869  15.323   7.750 -0.0940  0.2807 -0.1151
  929YOPE   NH313975   6.195   6.598   6.116  0.5211 -0.3539  0.1105
  929YOPE   PO413976   5.787   6.577   5.987  0.0824 -0.4194 -0.2401
  929YOPE   GL113977   5.698   6.421   6.333 -0.2491  0.2105 -0.0505
  929YOPE   GL213978   5.596   6.633   6.590  0.0313  0.1766  0.1705
  929YOPE   C1A13979   5.815   6.079   6.654 -0.0576  0.0827  0.1486
  929YOPE   D2A13980   5.599   5.850   6.872  0.0082 -0.0975  0.0355
  929YOPE   C3A13981   5.495   5.895   7.230  0.3426 -0.2336 -0.0495
  929YOPE   C4A13982   5.189   5.848   7.477 -0.2611 -0.0195  0.0262
  929YOPE   C1B13983   5.468   6.848   6.960 -0.0621 -0.0847 -0.1063
  929YOPE   C2B13984   5.502   7.118   7.356 -0.0446 -0.1021  0.1204
  929YOPE   D3B13985   5.287   7.306   7.712 -0.2300 -0.0017 -0.3060
  929YOPE   C4B13986   5.189   7.682   8.068 -0.0629  0.0033 -0.1164
  930YOPE   NH313987  16.819   0.247   5.729 -0.0981  0.0424 -0.0769
  930YOPE   PO413988  16.483  -0.005   5.959  0.1820 -0.0084 -0.2956
  930YOPE   GL113989  16.319  -0.161   6.345  0.3092 -0.0404 -0.0342
  930YOPE   GL213990  16.338  -0.506   6.429 -0.2981 -0.1547  0.1731
  930YOPE   C1A13991  16.174  -0.099   6.734 -0.3142 -0.1557 -0.5220
  930YOPE   D2A13992  16.112  -0.066   7.115 -0.1625  0.0337 -0.0154
  930YOPE   C3A13993  16.360  -0.153   7.397  0.0340 -0.0898  0.0623
  930YOPE   C4A13994  16.433  -0.055   7.802 -0.0740  0.2212  0.0180
  930YOPE   C1B13995  16.036  -0.610   6.745 -0.2221 -0.1991 -0.0023
  930YOPE   C2B13996  15.654  -0.699   7.107 -0.1474  0.0361 -0.0527
  930YOPE   D3B13997  15.267  -0.563   7.391  0.0241  0.3656 -0.1124
  930YOPE   C4B13998  14.944  -0.933   7.340  0.1501 -0.4299 -0.0471
  931YOPE   NH313999  13.055   8.856   5.993 -0.2047 -0.0630 -0.3298
  931YOPE   PO414000  13.221   9.111   5.903  0.1433  0.3876 -0.0493
  931YOPE   GL114001  13.263   8.902   6.413 -0.0822  0.0027  0.3266
  931YOPE   GL214002  13.489   8.997   6.460  0.1534 -0.0185  0.0226
  931YOPE   C1A14003  13.081   8.910   6.759 -0.3318 -0.1121 -0.0222
  931YOPE   D2A14004  13.356   8.892   7.072 -0.1145 -0.0660  0.0836
  931YOPE   C3A14005  13.223   8.892   7.481 -0.1134 -0.0707  0.3043
  931YOPE   C4A14006  13.202   9.259   7.695 -0.0636 -0.0456  0.0623
  931YOPE   C1B14007  13.942   8.983   6.674 -0.0265 -0.1889 -0.0026
  931YOPE   C2B14008  14.165   9.086   7.023  0.0764 -0.3317  0.1395
  931YOPE   D3B14009  13.758   9.194   7.327  0.2163 -0.0239  0.0737
  931YOPE   C4B14010  13.684   9.187   7.826  0.0488  0.1439  0.0015
  932YOPE   NH314011   6.012   5.531   6.015  0.0474 -0.4848 -0.0351
  932YOPE   PO414012   5.553   5.571   5.919 -0.2455  0.3407 -0.4105
  932YOPE   GL114013   5.594   5.422   6.422  0.0825  0.2486 -0.0495
  932YOPE   GL214014   5.866   5.093   6.495 -0.1226  0.0503 -0.2971
  932YOPE   C1A14015   5.609   5.370   6.807 -0.0692 -0.2169  0.0152
  932YOPE   D2A14016   5.651   5.382   7.235 -0.0107  0.3033 -0.1925
  932YOPE   C3A14017   5.529   5.530   7.608 -0.0459  0.3301 -0.1628
  932YOPE   C4A14018   5.082   5.495   7.801  0.0930  0.0349  0.0534
  932YOPE   C1B14019   6.117   5.147   6.862  0.2613  0.0740 -0.2221
  932YOPE   C2B14020   6.048   5.100   7.294  0.0545  0.0641 -0.1912
  932YOPE   D3B14021   5.909   4.991   7.720 -0.2329 -0.1686  0.0225
  932YOPE   C4B14022   6.175   4.800   7.999 -0.0150 -0.1010  0.1365
  933YOPE   NH314023  14.380   1.845   5.790  0.1500  0.0453  0.0445
  933YOPE   PO414024  14.806   1.812   5.844  0.0044  0.1954 -0.3188
  933YOPE   GL114025  14.731   1.827   6.244  0.0359 -0.1242 -0.2420
  933YOPE   GL214026  14.998   2.040   6.256 -0.2592 -0.0118 -0.1574
  933YOPE   C1A14027  14.742   1.675   6.681 -0.2191  0.0476 -0.0009
  933YOPE   D2A14028  14.814   1.617   7.038  0.2332  0.2435 -0.0274
  933YOPE   C3A14029  14.684   1.478   7.349  0.0448  0.1020  0.1753
  933YOPE   C4A14030  14.556   1.562   7.772  0.0641  0.3792  0.2461
  933YOPE   C1B14031  15.122   2.009   6.671  0.0280  0.1627  0.0148
  933YOPE   C2B14032  15.078   2.067   7.088 -0.1281  0.2654  0.3199
  933YOPE   D3B14033  15.143   2.011   7.479 -0.0328  0.0935  0.3091
  933YOPE   C4B14034  15.260   2.095   7.868  0.1840  0.2273  0.1175
  934YOPE   NH314035   5.781   9.928   5.476 -0.1118  0.0738  0.2647
  934YOPE   PO414036   6.193   9.905   5.533 -0.0706 -0.0179  0.4691
  934YOPE   GL114037   6.422   9.826   5.928 -0.1309  0.0482  0.2386
  934YOPE   GL214038   6.691  10.055   6.136  0.2368 -0.0837 -0.0222
  934YOPE   C1A14039   6.244   9.954   6.411 -0.1464  0.0387  0.2983
  934YOPE   D2A14040   5.844  10.065   6.626  0.4496  0.3337  0.1784
  934YOPE   C3A14041   5.830  10.142   7.080  0.1550 -0.1400  0.0743
  934YOPE   C4A14042   5.628  10.380   7.379  0.0681  0.1182  0.1418
  934YOPE   C1B14043   7.092   9.980   6.328  0.0104 -0.6305  0.1490
  934YOPE   C2B14044   7.379  10.068   6.710  0.1604  0.3821 -0.3255
  934YOPE   D3B14045   7.688  10.228   6.946 -0.2822  0.1100 -0.0791
  934YOPE   C4B14046   8.075  10.337   6.766 -0.0599  0.3888  0.1717
  935YOPE   NH314047  15.644  14.541   6.021 -0.0646 -0.0013 -0.0587
  935YOPE   PO414048  15.525  14.173   6.171 -0.0542 -0.1857 -0.0322
  935YOPE   GL114049  15.392  14.160   6.516 -0.0839 -0.0251 -0.1966
  935YOPE   GL214050  15.275  13.824   6.576 -0.1226  0.2137 -0.0197
  935YOPE   C1A14051  15.229  14.257   6.791 -0.1517  0.0789 -0.1476
  935YOPE   D2A14052  14.805  14.245   6.978  0.0024  0.0452 -0.2415
  935YOPE   C3A14053  14.731  13.822   7.234 -0.1301 -0.3199 -0.0968
  935YOPE   C4A14054  14.621  13.746   7.576 -0.2825 -0.0995 -0.1780
  935YOPE   C1B14055  15.154  13.540   6.947 -0.1283 -0.1864 -0.1894
  935YOPE   C2B14056  15.090  13.541   7.381  0.0720  0.0677 -0.0185
  935YOPE   D3B14057  14.975  13.472   7.712 -0.3471 -0.3887  0.0563
  935YOPE   C4B14058  14.982  13.300   8.184 -0.0650  0.2505  0.2383
  936YOPE   NH314059   6.179   4.828   6.219 -0.2350 -0.2221  0.2334
  936YOPE   PO414060   5.970   4.490   6.346 -0.1580  0.0267  0.0021
  936YOPE   GL114061   5.982   4.208   6.714  0.2528 -0.0100  0.3300
  936YOPE   GL214062   5.803   4.008   6.574  0.1682  0.1010 -0.1725
  936YOPE   C1A14063   5.917   4.009   7.153  0.0333  0.0155  0.1572
  936YOPE   D2A14064   5.794   3.919   7.538  0.0518 -0.0517  0.0009
  936YOPE   C3A14065   5.769   3.523   7.632 -0.1124 -0.3606  0.1001
  936YOPE   C4A14066   5.613   3.231   7.803  0.2633  0.1471  0.1256
  936YOPE   C1B14067   5.852   3.649   6.871  0.2256 -0.0425 -0.0965
  936YOPE   C2B14068   5.915   3.450   7.156  0.3343 -0.3609 -0.1219
  936YOPE   D3B14069   6.121   3.265   7.400  0.1936 -0.0021  0.0321
  936YOPE   C4B14070   6.395   3.070   7.667 -0.1930  0.0898  0.0884
  937YOPE   NH314071   0.810   3.846   5.722  0.3043  0.1653 -0.2908
  937YOPE   PO414072   0.330   4.038   5.739 -0.1108 -0.0534  0.1718
  937YOPE   GL114073   0.482   3.897   6.169 -0.3134 -0.1439 -0.2131
  937YOPE   GL214074   0.657   3.608   6.126  0.3362  0.1061  0.0401
  937YOPE   C1A14075   0.362   4.012   6.506 -0.1900 -0.1322  0.5956
  937YOPE   D2A14076   0.264   4.049   6.888  0.0516 -0.1713  0.3334
  937YOPE   C3A14077   0.231   3.804   7.243 -0.2352  0.2961  0.1295
  937YOPE   C4A14078   0.335   3.849   7.721 -0.0179  0.0459 -0.1112
  937YOPE   C1B14079   0.355   3.483   6.578 -0.0361 -0.1761  0.1136
  937YOPE   C2B14080   0.087   3.624   6.781 -0.2050 -0.2335 -0.1859
  937YOPE   D3B14081  -0.242   3.574   7.051  0.1799 -0.1906 -0.0459
  937YOPE   C4B14082  -0.058   3.528   7.548 -0.1607  0.1112 -0.0148
  938YOPE   NH314083  11.915   1.200   6.022 -0.1393 -0.2734 -0.0174
  938YOPE   PO414084  12.232   0.904   5.857 -0.1307  0.0563  0.2290
  938YOPE   GL114085  12.114   0.711   6.301 -0.2143  0.0238 -0.0131
  938YOPE   GL214086  12.305   0.980   6.350  0.1744  0.1584 -0.2092
  938YOPE   C1A14087  11.742   0.604   6.550 -0.0718  0.3123 -0.0904
  938YOPE   D2A14088  11.715   0.432   6.936 -0.0533  0.0316 -0.2383
  938YOPE   C3A14089  11.917   0.423   7.268 -0.4595 -0.0715 -0.5278
  938YOPE   C4A14090  12.288   0.457   7.573  0.1311  0.5280 -0.1549
  938YOPE   C1B14091  11.965   1.099   6.629  0.3304  0.0531 -0.0801
  938YOPE   C2B14092  11.700   1.008   6.926 -0.0879  0.0325 -0.0895
  938YOPE   D3B14093  11.502   1.383   7.153  0.0046  0.4697  0.0204
  938YOPE   C4B14094  11.221   1.514   7.405 -0.0916  0.3205 -0.4585
  939YOPE   NH314095  16.468  15.715   5.753 -0.2609  0.0265  0.2132
  939YOPE   PO414096  16.166  15.636   5.851 -0.3187  0.4780  0.0601
  939YOPE   GL114097  16.101  15.584   6.264  0.1927  0.2962  0.1230
  939YOPE   GL214098  16.014  15.235   6.260 -0.0498 -0.0264 -0.2259
  939YOPE   C1A14099  16.023  15.771   6.681 -0.1704 -0.1321 -0.1434
  939YOPE   D2A14100  15.928  15.837   7.145 -0.2082 -0.0551  0.1716
  939YOPE   C3A14101  15.959  16.193   7.350  0.1683  0.1433  0.0022
  939YOPE   C4A14102  16.043  16.371   7.685 -0.1682 -0.1065 -0.0552
  939YOPE   C1B14103  15.636  15.500   6.485  0.0779 -0.2293 -0.0815
  939YOPE   C2B14104  15.622  15.480   6.882 -0.0115 -0.0125 -0.2401
  939YOPE   D3B14105  15.335  15.455   7.233 -0.3692 -0.1169  0.0044
  939YOPE   C4B14106  15.004  15.294   7.573  0.0085  0.5807  0.1963
  940YOPE   NH314107  13.209  10.279   5.757  0.0621  0.2529  0.0046
  940YOPE   PO414108  12.960  10.497   5.943 -0.0524 -0.2042  0.1438
  940YOPE   GL114109  12.725  10.438   6.247  0.0549 -0.2643 -0.0262
  940YOPE   GL214110  12.722  10.832   6.344  0.2080  0.0625  0.0408
  940YOPE   C1A14111  12.565  10.391   6.616 -0.0832 -0.0109 -0.0935
  940YOPE   D2A14112  12.521  10.395   7.092 -0.1729  0.0708  0.2283
  940YOPE   C3A14113  12.697  10.373   7.469 -0.1833 -0.2045  0.1037
  940YOPE   C4A14114  12.903  10.483   7.784  0.0261  0.2457  0.2213
  940YOPE   C1B14115  12.678  10.921   6.736  0.2554 -0.2078  0.1485
  940YOPE   C2B14116  12.557  10.852   7.257 -0.0958  0.3049  0.0975
  940YOPE   D3B14117  12.377  10.691   7.786  0.2238  0.1443  0.3421
  940YOPE   C4B14118  12.177  10.842   8.127 -0.1944  0.1211  0.0256
  941YOPE   NH314119   0.078  15.097   6.298 -0.0646 -0.2550 -0.3565
  941YOPE   PO414120   0.127  15.525   6.266  0.0661  0.0729 -0.2543
  941YOPE   GL114121   0.154  15.600   6.647 -0.1602 -0.3330  0.0729
  941YOPE   GL214122  -0.123  15.726   6.673 -0.0821 -0.3611 -0.4255
  941YOPE   C1A14123   0.246  15.594   7.057  0.1993 -0.0219  0.1596
  941YOPE   D2A14124   0.075  15.508   7.497  0.3269  0.1755  0.1514
  941YOPE   C3A14125  -0.193  15.766   7.708  0.1258 -0.0942  0.3001
  941YOPE   C4A14126  -0.611  15.642   7.891 -0.0028 -0.1508  0.1076
  941YOPE   C1B14127  -0.154  15.969   7.186  0.1516 -0.1271  0.0759
  941YOPE   C2B14128  -0.363  16.254   7.474  0.0655 -0.0692  0.0075
  941YOPE   D3B14129  -0.619  16.449   7.796  0.0425 -0.1128  0.0731
  941YOPE   C4B14130  -0.954  16.638   8.167  0.2772  0.2269  0.0005
  942YOPE   NH314131  13.380   6.826   5.193  0.0344 -0.4200 -0.2671
  942YOPE   PO414132  13.052   6.519   5.250  0.0465  0.2128  0.2695
  942YOPE   GL114133  12.936   6.552   5.753  0.0512  0.1347 -0.0376
  942YOPE   GL214134  12.834   6.356   6.084  0.0695 -0.1531 -0.1924
  942YOPE   C1A14135  12.982   6.835   6.076 -0.2775  0.0567  0.1754
  942YOPE   D2A14136  12.965   7.156   6.477 -0.3701 -0.2288 -0.0247
  942YOPE   C3A14137  12.930   7.101   6.949  0.0807 -0.2555  0.0824
  942YOPE   C4A14138  13.186   7.054   7.243 -0.0584  0.1660  0.1262
  942YOPE   C1B14139  12.781   6.572   6.495  0.1222 -0.0807 -0.1784
  942YOPE   C2B14140  12.701   6.640   6.974 -0.0320 -0.1773 -0.2414
  942YOPE   D3B14141  12.443   6.532   7.265 -0.2305  0.4089 -0.1715
  942YOPE   C4B14142  12.389   6.509   7.717  0.1849 -0.0350  0.0735
  943YOPE   NH314143  13.378  15.764   5.751  0.2116  0.2578  0.0399
  943YOPE   PO414144  12.950  15.971   5.620  0.5606  0.0861 -0.1425
  943YOPE   GL114145  13.201  16.215   5.902  0.1147  0.3714  0.0339
  943YOPE   GL214146  13.378  16.048   6.152 -0.0395 -0.4072  0.0599
  943YOPE   C1A14147  13.065  16.327   6.359  0.1730 -0.1835  0.1123
  943YOPE   D2A14148  13.136  16.539   6.700  0.1826  0.1161 -0.1084
  943YOPE   C3A14149  12.842  16.341   7.020  0.3554  0.1530 -0.1070
  943YOPE   C4A14150  12.371  16.212   6.923 -0.0070  0.1302  0.0712
  943YOPE   C1B14151  13.502  16.202   6.528  0.1803 -0.0725 -0.1983
  943YOPE   C2B14152  13.632  16.405   6.880 -0.4094 -0.3895 -0.2949
  943YOPE   D3B14153  13.917  16.636   7.284  0.1371  0.0333  0.3671
  943YOPE   C4B14154  13.741  16.899   7.574  0.1214  0.0381  0.1942
  944POPC   NC314155  17.834  11.300   5.663 -0.1779 -0.0851  0.1259
  944POPC   PO414156  17.988  11.756   5.868  0.1971  0.3318  0.0300
  944POPC   GL114157  18.014  11.675   6.311 -0.0561 -0.0638  0.0692
  944POPC   GL214158  18.262  11.736   6.478 -0.0487 -0.1074 -0.3760
  944POPC   C1A14159  17.981  11.384   6.681 -0.1889 -0.0403 -0.1191
  944POPC   D2A14160  17.842  11.288   7.077  0.0858  0.0943  0.0367
  944POPC   C3A14161  18.049  11.413   7.479  0.0669  0.0890 -0.0042
  944POPC   C4A14162  18.113  11.637   7.755  0.1397  0.2441 -0.0503
  944POPC   C1B14163  18.131  11.907   6.909  0.0088  0.0258 -0.1560
  944POPC   C2B14164  18.080  11.998   7.333 -0.0074 -0.3079  0.3906
  944POPC   C3B14165  17.774  12.150   7.643 -0.2063  0.0457 -0.2136
  944POPC   C4B14166  17.683  12.264   7.988  0.3873  0.1952 -0.0361
  945POPC   NC314167  13.232   3.623   5.508  0.4680  0.3564  0.0161
  945POPC   PO414168  13.089   3.248   5.796 -0.2012  0.0955 -0.1294
  945POPC   GL114169  12.974   2.795   6.019 -0.0218  0.2487 -0.2944
  945POPC   GL214170  12.778   2.573   5.888 -0.0653 -0.1004 -0.0929
  945POPC   C1A14171  12.988   2.388   6.340 -0.2575 -0.1889  0.1494
  945POPC   D2A14172  13.189   2.067   6.640  0.0297  0.1725  0.1963
  945POPC   C3A14173  13.230   1.957   7.040 -0.1549 -0.1162 -0.5901
  945POPC   C4A14174  13.036   1.745   7.328 -0.1678  0.0849  0.3736
  945POPC   C1B14175  12.496   2.413   6.157  0.2706 -0.0559 -0.1625
  945POPC   C2B14176  12.487   2.534   6.492 -0.0835  0.1162 -0.2053
  945POPC   C3B14177  12.428   2.642   6.950  0.3996 -0.1753  0.3122
  945POPC   C4B14178  12.416   2.954   7.382  0.0561  0.0971 -0.0652
  946POPC   NC314179   2.518   4.367   5.842 -0.1493  0.1512  0.1399
  946POPC   PO414180   2.226   3.872   5.823  0.1151 -0.1597  0.0692
  946POPC   GL114181   2.241   4.103   6.171  0.3109 -0.1305  0.1501
  946POPC   GL214182   2.566   4.059   6.235  0.0807 -0.0776  0.0463
  946POPC   C1A14183   2.056   3.812   6.526  0.0411  0.0581 -0.0932
  946POPC   D2A14184   1.659   3.687   6.760  0.0678 -0.4445 -0.0921
  946POPC   C3A14185   1.734   3.767   7.123  0.0902  0.0637 -0.2564
  946POPC   C4A14186   1.945   3.855   7.442  0.0742  0.1366 -0.1031
  946POPC   C1B14187   2.924   4.077   6.519 -0.1408  0.2478 -0.0074
  946POPC   C2B14188   2.967   4.092   6.916  0.1163  0.0933 -0.0346
  946POPC   C3B14189   2.783   4.126   7.294 -0.1290 -0.1322  0.0776
  946POPC   C4B14190   2.486   4.158   7.612  0.0196  0.1346 -0.0086
  947POPC   NC314191   5.999   8.307   5.544  0.0242  0.0458 -0.3318
  947POPC   PO414192   6.241   8.468   5.776  0.3517  0.1297  0.2444
  947POPC   GL114193   6.348   8.453   6.120  0.2150  0.0047  0.4558
  947POPC   GL214194   6.383   8.731   6.247 -0.0857  0.1262 -0.0434
  947POPC   C1A14195   6.142   8.327   6.499 -0.1248  0.1105 -0.1823
  947POPC   D2A14196   5.944   8.069   6.776 -0.2792  0.1112  0.0611
  947POPC   C3A14197   6.181   7.899   7.200  0.0995 -0.1555 -0.0591
  947POPC   C4A14198   6.200   7.900   7.648  0.1997 -0.1943  0.0986
  947POPC   C1B14199   6.461   8.707   6.692  0.0942 -0.0120 -0.0561
  947POPC   C2B14200   6.400   8.725   7.020  0.2391 -0.1491 -0.0394
  947POPC   C3B14201   6.109   8.891   7.288  0.0315  0.0136 -0.1708
  947POPC   C4B14202   5.847   9.168   7.250 -0.3889  0.0742  0.2773
  948POPC   NC314203   4.499   0.633   5.903 -0.2660  0.2532  0.0176
  948POPC   PO414204   4.830   0.624   6.273 -0.2232 -0.0623  0.3111
  948POPC   GL114205   4.829   0.420   6.739 -0.0470 -0.1134 -0.0679
  948POPC   GL214206   4.743  -0.014   6.798 -0.0350 -0.1148  0.2154
  948POPC   C1A14207   4.780   0.312   7.196  0.1902 -0.2397  0.2380
  948POPC   D2A14208   4.781   0.295   7.519 -0.0386 -0.3614  0.1751
  948POPC   C3A14209   4.691  -0.103   7.815 -0.0906 -0.0634 -0.2049
  948POPC   C4A14210   4.709  -0.152   8.258  0.1563 -0.0748  0.0548
  948POPC   C1B14211   4.795  -0.172   7.253 -0.1068  0.1313  0.1694
  948POPC   C2B14212   4.631  -0.380   7.441 -0.0927 -0.0013 -0.3058
  948POPC   C3B14213   4.250  -0.454   7.559  0.0980 -0.2679 -0.2257
  948POPC   C4B14214   3.962  -0.613   7.846  0.2330  0.0178 -0.1005
  949POPC   NC314215   2.980  14.957   5.829 -0.1279  0.1097 -0.1962
  949POPC   PO414216   2.627  14.811   5.966  0.1387 -0.2405 -0.0161
  949POPC   GL114217   2.803  14.866   6.383 -0.0388 -0.1398  0.1249
  949POPC   GL214218   3.081  14.670   6.406  0.3751 -0.1208 -0.1142
  949POPC   C1A14219   2.764  15.045   6.779  0.0504 -0.3162 -0.0426
  949POPC   D2A14220   2.616  15.287   7.026 -0.1139 -0.2324 -0.0484
  949POPC   C3A14221   2.534  15.207   7.425 -0.0402  0.1855  0.3086
  949POPC   C4A14222   2.442  14.922   7.762 -0.0596 -0.1200 -0.2698
  949POPC   C1B14223   2.841  14.542   6.776 -0.0648 -0.1563 -0.0160
  949POPC   C2B14224   3.028  14.464   7.160  0.1175  0.0829  0.1326
  949POPC   C3B14225   2.817  14.101   7.374 -0.0084  0.0415  0.0285
  949POPC   C4B14226   2.819  13.675   7.497  0.0407 -0.0132  0.1077
  950POPC   NC314227   6.682  13.355   5.921  0.1698 -0.0751 -0.3138
  950POPC   PO414228   6.791  12.946   5.795  0.2154 -0.1102  0.0103
  950POPC   GL114229   6.703  12.880   6.254 -0.0427  0.0683  0.3387
  950POPC   GL214230   6.985  12.888   6.459 -0.0948 -0.1484 -0.0430
  950POPC   C1A14231   6.465  12.990   6.627  0.0778  0.1290 -0.0887
  950POPC   D2A14232   6.212  12.688   6.857 -0.0922 -0.2309  0.2180
  950POPC   C3A14233   5.891  12.913   6.975  0.0057 -0.2693 -0.1318
  950POPC   C4A14234   5.547  13.005   7.294 -0.1749 -0.1779  0.3748
  950POPC   C1B14235   6.890  13.037   6.915  0.4818  0.3129  0.1102
  950POPC   C2B14236   6.831  13.340   7.318 -0.2551  0.0041  0.1478
  950POPC   C3B14237   6.886  13.300   7.672  0.2934 -0.3764  0.1609
  950POPC   C4B14238   6.863  13.063   8.028 -0.2794  0.2344  0.0837
  951POPC   NC314239  16.697  17.043   5.596 -0.0129  0.2170  0.1628
  951POPC   PO414240  16.458  17.188   5.891  0.2097 -0.0454  0.1377
  951POPC   GL114241  16.602  17.294   6.287 -0.0784 -0.0873 -0.3591
  951POPC   GL214242  16.869  17.506   6.270  0.0623  0.3388  0.1527
  951POPC   C1A14243  16.537  17.310   6.703  0.0820 -0.0464 -0.0468
  951POPC   D2A14244  16.271  17.230   6.994 -0.3679  0.4861 -0.1957
  951POPC   C3A14245  16.390  17.111   7.348  0.0784  0.1574  0.2219
  951POPC   C4A14246  16.292  16.816   7.587  0.1574 -0.1625  0.1721
  951POPC   C1B14247  17.115  17.408   6.596 -0.2021  0.2381 -0.2499
  951POPC   C2B14248  17.423  17.405   6.960  0.1630  0.1265 -0.0113
  951POPC   C3B14249  17.290  17.341   7.335 -0.0689  0.1606  0.0470
  951POPC   C4B14250  16.994  17.373   7.681  0.1420 -0.1002 -0.1691
  952POPC   NC314251  17.731  17.902   5.546  0.1954  0.0991 -0.1258
  952POPC   PO414252  17.264  17.873   5.752  0.2156 -0.1259  0.2795
  952POPC   GL114253  16.990  18.005   6.064  0.2283  0.2049  0.0135
  952POPC   GL214254  16.839  18.000   6.240  0.0577 -0.0387 -0.2029
  952POPC   C1A14255  17.210  18.316   6.353 -0.0420  0.1292  0.3524
  952POPC   D2A14256  17.413  18.629   6.648  0.3875  0.2052 -0.1513
  952POPC   C3A14257  17.224  18.502   7.041 -0.3030 -0.0472  0.0371
  952POPC   C4A14258  16.916  18.739   7.384 -0.0150 -0.3732 -0.2945
  952POPC   C1B14259  16.721  17.845   6.627  0.2327 -0.0565  0.0579
  952POPC   C2B14260  16.453  17.732   6.998 -0.0977 -0.1156  0.2532
  952POPC   C3B14261  16.166  17.594   7.318  0.2006 -0.1789  0.1647
  952POPC   C4B14262  16.178  17.448   7.749 -0.0259  0.0013  0.0097
  953POPC   NC314263   3.638  11.978   6.186 -0.0663 -0.0556  0.1083
  953POPC   PO414264   3.823  11.605   6.373  0.0721  0.0253 -0.0540
  953POPC   GL114265   4.002  11.619   6.763  0.3046 -0.0038 -0.1408
  953POPC   GL214266   3.957  11.278   6.737  0.2240  0.0056 -0.1276
  953POPC   C1A14267   4.150  11.783   7.179 -0.1506 -0.1461 -0.3297
  953POPC   D2A14268   4.184  12.118   7.468 -0.0172 -0.1672 -0.1017
  953POPC   C3A14269   4.058  12.079   7.890 -0.0755 -0.3441 -0.2698
  953POPC   C4A14270   4.009  11.911   8.391 -0.0163 -0.0241  0.0086
  953POPC   C1B14271   3.946  11.258   7.107 -0.0029  0.3172 -0.1247
  953POPC   C2B14272   3.999  11.004   7.393  0.1900  0.0750 -0.0942
  953POPC   C3B14273   4.156  10.597   7.530  0.2994  0.2041 -0.0354
  953POPC   C4B14274   4.420  10.291   7.705  0.4839 -0.4758  0.5324
  954POPC   NC314275  16.985   7.504   6.110  0.1731 -0.0876 -0.0743
  954POPC   PO414276  17.235   7.756   5.921  0.1030 -0.0459  0.2781
  954POPC   GL114277  17.356   7.748   6.401  0.0599 -0.0600  0.0910
  954POPC   GL214278  17.622   7.857   6.534 -0.0282  0.1400 -0.2945
  954POPC   C1A14279  17.177   7.643   6.763 -0.0689  0.0627  0.1829
  954POPC   D2A14280  17.218   7.511   7.183 -0.0729  0.0167  0.1932
  954POPC   C3A14281  17.525   7.582   7.413 -0.0732  0.0326  0.0637
  954POPC   C4A14282  17.675   7.501   7.809  0.0504  0.2426  0.1400
  954POPC   C1B14283  17.633   7.755   6.917 -0.1659  0.1075  0.2275
  954POPC   C2B14284  17.770   8.019   7.272 -0.0382 -0.0164  0.0978
  954POPC   C3B14285  17.792   8.400   7.564  0.2015  0.0156 -0.3262
  954POPC   C4B14286  18.042   8.726   7.791 -0.1085  0.1306 -0.1575
  955POPC   NC314287   2.068  11.217   6.554 -0.2620  0.2495 -0.0839
  955POPC   PO414288   1.763  11.285   6.312  0.3957 -0.2654 -0.0869
  955POPC   GL114289   1.574  11.234   6.708  0.1734 -0.0115 -0.1640
  955POPC   GL214290   1.767  11.472   6.854  0.0032  0.2456  0.0631
  955POPC   C1A14291   1.596  10.995   7.057 -0.1320 -0.1968 -0.3172
  955POPC   D2A14292   1.685  11.027   7.606  0.0474 -0.2301  0.0896
  955POPC   C3A14293   1.648  11.371   7.846  0.1455 -0.0844 -0.0432
  955POPC   C4A14294   1.737  11.756   8.099  0.1829  0.0189 -0.0620
  955POPC   C1B14295   1.538  11.714   7.221 -0.0955  0.0421  0.0893
  955POPC   C2B14296   1.341  11.855   7.567  0.1621  0.2278 -0.0010
  955POPC   C3B14297   1.241  11.704   7.947 -0.1650 -0.0880  0.0509
  955POPC   C4B14298   0.885  11.783   8.235  0.1327 -0.0815 -0.0087
  956POPC   NC314299  14.258  17.427   5.657 -0.0761 -0.0216 -0.1513
  956POPC   PO414300  13.977  17.175   5.656 -0.0732  0.4028  0.1045
  956POPC   GL114301  14.032  17.082   5.990  0.1906 -0.0392  0.1179
  956POPC   GL214302  14.345  16.830   6.146 -0.3212  0.1301  0.3170
  956POPC   C1A14303  13.874  16.973   6.344 -0.0476  0.0705 -0.1516
  956POPC   D2A14304  13.794  16.846   6.798 -0.1180  0.2019 -0.0928
  956POPC   C3A14305  13.444  16.966   7.009  0.3050  0.1680  0.0734
  956POPC   C4A14306  13.373  17.301   7.310 -0.1337 -0.0736  0.2194
  956POPC   C1B14307  14.341  16.933   6.575  0.0350 -0.2589  0.2078
  956POPC   C2B14308  14.236  16.991   6.986  0.0763  0.0015 -0.0250
  956POPC   C3B14309  14.246  16.911   7.427 -0.0855 -0.2456 -0.1859
  956POPC   C4B14310  14.139  16.918   7.895  0.0525 -0.0706 -0.0818
  957POPC   NC314311  17.603   8.512   5.782 -0.0118  0.3303 -0.1493
  957POPC   PO414312  17.538   8.893   5.600  0.2196  0.1430 -0.1650
  957POPC   GL114313  17.454   9.120   5.990 -0.1784  0.1270  0.4682
  957POPC   GL214314  17.685   9.404   6.106 -0.1614 -0.1191  0.0582
  957POPC   C1A14315  17.386   8.870   6.265 -0.1827 -0.2387 -0.0892
  957POPC   D2A14316  17.363   8.518   6.654 -0.0750 -0.0527  0.0900
  957POPC   C3A14317  17.236   8.188   6.761  0.3715 -0.0413 -0.2101
  957POPC   C4A14318  17.283   8.047   7.209 -0.0308 -0.1365  0.0170
  957POPC   C1B14319  17.735   9.116   6.446  0.0256 -0.0471 -0.0082
  957POPC   C2B14320  17.783   8.964   6.816  0.1502  0.3666  0.0728
  957POPC   C3B14321  18.053   9.065   7.154 -0.0228  0.2096  0.1396
  957POPC   C4B14322  18.299   9.273   7.440  0.1091 -0.0039  0.0172
  958POPC   NC314323   3.299  17.964   5.625 -0.2099 -0.1667 -0.0352
  958POPC   PO414324   3.065  18.363   5.841  0.1253 -0.2458 -0.0214
  958POPC   GL114325   2.913  18.286   6.208 -0.3314  0.1037 -0.2486
  958POPC   GL214326   2.729  18.489   6.425  0.0705 -0.1296  0.0438
  958POPC   C1A14327   3.296  18.463   6.501 -0.1967 -0.2766 -0.1562
  958POPC   D2A14328   3.723  18.558   6.804 -0.0328 -0.1561  0.0117
  958POPC   C3A14329   3.735  18.475   7.289  0.1386 -0.0408 -0.0524
  958POPC   C4A14330   3.639  18.272   7.604  0.1122  0.0211  0.2238
  958POPC   C1B14331   2.809  18.792   6.693 -0.1216  0.0694 -0.2796
  958POPC   C2B14332   2.670  18.669   7.189  0.3774 -0.1454  0.0259
  958POPC   C3B14333   2.702  18.720   7.646  0.4003 -0.2531 -0.1990
  958POPC   C4B14334   2.423  18.843   8.026 -0.0309  0.1147  0.0446
  959POPC   NC314335   1.430  14.355   6.058 -0.1499  0.0232 -0.3405
  959POPC   PO414336   1.869  14.257   6.067 -0.0525  0.0892 -0.0359
  959POPC   GL114337   1.976  14.214   6.468 -0.2072  0.2051  0.5718
  959POPC   GL214338   2.263  14.350   6.534 -0.1567 -0.1027 -0.0917
  959POPC   C1A14339   1.902  14.072   6.907  0.1250 -0.2103 -0.1568
  959POPC   D2A14340   1.850  14.212   7.256 -0.3500 -0.2607 -0.1471
  959POPC   C3A14341   1.672  14.191   7.733  0.0386 -0.1020  0.2346
  959POPC   C4A14342   1.562  14.406   8.208 -0.0827 -0.1586 -0.2275
  959POPC   C1B14343   2.368  14.706   6.747  0.1841 -0.2156  0.1917
  959POPC   C2B14344   2.588  14.733   7.211 -0.0187 -0.3090  0.0079
  959POPC   C3B14345   2.847  14.664   7.597  0.0151  0.2310  0.3621
  959POPC   C4B14346   2.936  14.767   7.997 -0.2519 -0.1380 -0.1712
  960POPC   NC314347  15.724  12.048   6.040 -0.0469 -0.1002 -0.2027
  960POPC   PO414348  15.892  12.458   6.190 -0.1746 -0.0102  0.0720
  960POPC   GL114349  16.063  12.439   6.538 -0.1022 -0.2455 -0.0207
  960POPC   GL214350  16.180  12.187   6.589  0.1657  0.0974 -0.1652
  960POPC   C1A14351  16.301  12.815   6.804  0.5162  0.2238 -0.1718
  960POPC   D2A14352  16.485  13.135   7.179 -0.1085  0.0709  0.1253
  960POPC   C3A14353  16.250  13.234   7.573  0.2475  0.2854 -0.1890
  960POPC   C4A14354  15.873  13.028   7.706  0.1458 -0.1021  0.3967
  960POPC   C1B14355  16.139  12.071   6.891  0.0561 -0.0579  0.0535
  960POPC   C2B14356  16.233  11.691   7.061  0.3402 -0.1521 -0.1258
  960POPC   C3B14357  16.518  11.621   7.350 -0.1557  0.1897 -0.0172
  960POPC   C4B14358  16.691  11.730   7.695  0.0032  0.1796 -0.0696
  961POPC   NC314359  14.400   8.086   6.035 -0.1249  0.0839 -0.1673
  961POPC   PO414360  14.786   7.719   5.879  0.1762  0.2499 -0.0341
  961POPC   GL114361  15.014   7.563   6.227  0.3198 -0.1408 -0.0914
  961POPC   GL214362  15.193   7.723   6.380  0.1583 -0.2072 -0.2852
  961POPC   C1A14363  15.084   7.259   6.504  0.0611  0.4439 -0.0316
  961POPC   D2A14364  14.987   7.120   6.920  0.0227 -0.0980  0.1355
  961POPC   C3A14365  14.652   6.880   6.905 -0.1532  0.2583  0.2644
  961POPC   C4A14366  14.315   6.625   6.614 -0.4602  0.0595  0.2095
  961POPC   C1B14367  15.273   7.682   6.869  0.0539 -0.0575 -0.4498
  961POPC   C2B14368  15.545   7.409   7.188 -0.2550 -0.5323  0.0393
  961POPC   C3B14369  15.984   7.232   7.162 -0.0714 -0.1545  0.1810
  961POPC   C4B14370  16.290   6.970   7.004  0.0981 -0.0734 -0.0190
  962POPC   NC314371  14.703   0.905   5.532 -0.3853 -0.1456  0.0656
  962POPC   PO414372  14.292   0.959   5.734 -0.0554 -0.4617  0.0629
  962POPC   GL114373  14.312   0.961   6.086 -0.0511  0.0134  0.1470
  962POPC   GL214374  14.614   0.764   6.038 -0.0266 -0.2928  0.3800
  962POPC   C1A14375  14.168   1.032   6.452 -0.0120  0.2368 -0.3021
  962POPC   D2A14376  13.943   1.113   6.743  0.0824 -0.1641 -0.0276
  962POPC   C3A14377  13.911   1.271   7.137 -0.0336  0.0928  0.2551
  962POPC   C4A14378  13.648   1.267   7.551  0.1014  0.0768  0.1971
  962POPC   C1B14379  14.588   0.745   6.469  0.2057 -0.1870 -0.0250
  962POPC   C2B14380  14.670   0.747   6.939  0.0266 -0.1418  0.1042
  962POPC   C3B14381  14.579   0.735   7.404  0.0735 -0.2709  0.1481
  962POPC   C4B14382  14.664   0.406   7.624 -0.1533 -0.0939  0.0313
  963POPC   NC314383  13.301   0.239   5.383  0.2564 -0.1214  0.0548
  963POPC   PO414384  13.470   0.420   5.748  0.1372 -0.0339 -0.1103
  963POPC   GL114385  13.739   0.350   6.166  0.1218  0.1492 -0.5143
  963POPC   GL214386  14.088   0.455   6.260 -0.1055 -0.3279 -0.5044
  963POPC   C1A14387  13.516   0.173   6.586 -0.1569 -0.2612 -0.1489
  963POPC   D2A14388  13.146  -0.134   6.598 -0.0495  0.0266  0.2791
  963POPC   C3A14389  12.879  -0.224   6.958  0.2233 -0.0847  0.1436
  963POPC   C4A14390  12.663  -0.128   7.308  0.0954  0.0045  0.2193
  963POPC   C1B14391  14.197   0.555   6.656  0.1034  0.3405  0.2575
  963POPC   C2B14392  14.128   0.723   7.034  0.1195 -0.2874  0.5971
  963POPC   C3B14393  13.821   0.832   7.430  0.0660 -0.3283 -0.0976
  963POPC   C4B14394  13.627   0.890   7.871 -0.1885  0.1894  0.1035
  964POPC   NC314395  11.548   9.197   5.315  0.1857 -0.0619  0.0333
  964POPC   PO414396  11.317   8.834   5.425 -0.0070 -0.2892  0.2494
  964POPC   GL114397  11.316   8.519   5.767 -0.3193 -0.0611  0.0832
  964POPC   GL214398  11.559   8.644   5.970  0.0146 -0.0146 -0.1532
  964POPC   C1A14399  11.048   8.403   6.050 -0.2942  0.0979 -0.1161
  964POPC   D2A14400  10.684   8.584   6.168  0.0404  0.0142 -0.3040
  964POPC   C3A14401  10.706   8.738   6.718 -0.2069 -0.1474  0.1377
  964POPC   C4A14402  10.434   8.849   7.139  0.2483 -0.1575 -0.1290
  964POPC   C1B14403  11.636   8.815   6.351 -0.0815  0.1344 -0.1708
  964POPC   C2B14404  11.590   8.618   6.846  0.0556 -0.2988  0.1579
  964POPC   C3B14405  11.383   8.360   6.995  0.3823  0.0824  0.4058
  964POPC   C4B14406  11.180   8.009   7.303  0.0836 -0.0437 -0.0514
  965POPC   NC314407  13.297   2.803   5.618  0.3947  0.4368 -0.1365
  965POPC   PO414408  13.514   3.163   5.510 -0.1715 -0.0945 -0.1663
  965POPC   GL114409  13.648   3.076   5.949 -0.0946 -0.1128  0.1708
  965POPC   GL214410  13.493   2.781   6.105  0.1588  0.2558  0.2299
  965POPC   C1A14411  13.818   3.368   6.257 -0.1935 -0.0919  0.2855
  965POPC   D2A14412  14.146   3.720   6.469  0.2399  0.1086 -0.2036
  965POPC   C3A14413  14.453   3.541   6.846 -0.2614 -0.2493  0.1198
  965POPC   C4A14414  14.910   3.506   6.833 -0.0773  0.0284 -0.0437
  965POPC   C1B14415  13.655   2.926   6.482  0.0788 -0.0835 -0.1420
  965POPC   C2B14416  13.863   2.899   6.860 -0.2962  0.0062  0.0137
  965POPC   C3B14417  14.090   2.939   7.082 -0.2280  0.0752 -0.0803
  965POPC   C4B14418  14.155   2.973   7.520  0.2837 -0.0253 -0.1476
  966POPC   NC314419  18.049  10.308   5.663  0.3648  0.1950  0.0295
  966POPC   PO414420  18.045  10.843   5.812  0.2880  0.1694 -0.0735
  966POPC   GL114421  17.856  11.031   6.223  0.1624  0.0291  0.0614
  966POPC   GL214422  18.203  10.973   6.376  0.1293  0.3131 -0.0253
  966POPC   C1A14423  17.703  10.914   6.647 -0.0501  0.0879 -0.2524
  966POPC   D2A14424  17.530  10.463   6.714  0.0299 -0.1068 -0.0228
  966POPC   C3A14425  17.343  10.321   7.118 -0.3117  0.1167 -0.1653
  966POPC   C4A14426  17.088  10.387   7.461 -0.1101  0.1031 -0.0156
  966POPC   C1B14427  18.187  10.681   6.791 -0.0480  0.0183 -0.0410
  966POPC   C2B14428  18.390  10.378   6.915  0.1933  0.4110  0.2199
  966POPC   C3B14429  18.571  10.027   7.063 -0.5432  0.1125  0.2149
  966POPC   C4B14430  18.851  10.014   7.422  0.4824 -0.1220 -0.0577
  967POPC   NC314431  14.875   8.625   5.967  0.0181  0.2680 -0.1362
  967POPC   PO414432  14.445   8.674   5.907  0.1749 -0.0133 -0.0088
  967POPC   GL114433  14.585   8.861   6.280  0.2801 -0.0994 -0.2612
  967POPC   GL214434  14.647   9.046   6.371  0.3081 -0.2531 -0.0110
  967POPC   C1A14435  14.460   8.751   6.797 -0.3295 -0.0364 -0.0832
  967POPC   D2A14436  14.218   8.530   6.882  0.0749 -0.0685  0.0529
  967POPC   C3A14437  14.117   8.675   7.261 -0.1741  0.2001 -0.2883
  967POPC   C4A14438  14.176   8.999   7.495 -0.1465 -0.1100 -0.2000
  967POPC   C1B14439  14.669   9.191   6.788  0.0447 -0.0253 -0.1762
  967POPC   C2B14440  14.624   9.273   7.231  0.0382 -0.0452  0.0008
  967POPC   C3B14441  14.601   9.154   7.669 -0.0719  0.1293  0.0158
  967POPC   C4B14442  14.834   9.251   8.021 -0.1797 -0.2071 -0.0015
  968POPC   NC314443  11.172  12.759   5.017  0.2295 -0.2190 -0.0771
  968POPC   PO414444  11.473  12.700   5.375 -0.0621  0.1489  0.0238
  968POPC   GL114445  11.344  12.855   5.844  0.1668  0.0776 -0.0798
  968POPC   GL214446  11.165  12.720   6.091 -0.1081  0.3700 -0.1040
  968POPC   C1A14447  11.583  13.025   6.199  0.2276  0.4291 -0.0583
  968POPC   D2A14448  11.693  12.701   6.394  0.0569 -0.3216  0.1741
  968POPC   C3A14449  11.522  12.674   6.811  0.2783  0.4138 -0.0985
  968POPC   C4A14450  11.342  12.495   7.144 -0.0171  0.2764  0.0342
  968POPC   C1B14451  11.171  12.575   6.529  0.3282 -0.0857  0.3252
  968POPC   C2B14452  11.008  12.731   6.948 -0.1701 -0.3645  0.1578
  968POPC   C3B14453  11.084  12.934   7.372  0.2695  0.2750 -0.1067
  968POPC   C4B14454  10.935  12.981   7.773  0.0149  0.2919 -0.1170
  969POPC   NC314455  12.395   4.380   5.693 -0.2845 -0.2083 -0.1526
  969POPC   PO414456  12.782   4.221   5.870  0.0287 -0.0507 -0.1049
  969POPC   GL114457  13.046   4.194   6.279  0.1159  0.4753 -0.1670
  969POPC   GL214458  13.334   4.294   6.260  0.1810  0.0092 -0.1314
  969POPC   C1A14459  13.064   3.911   6.619 -0.0751  0.2766 -0.0111
  969POPC   D2A14460  13.066   3.971   6.983 -0.2144 -0.0995  0.0508
  969POPC   C3A14461  12.873   3.687   7.294  0.1403  0.1001  0.3289
  969POPC   C4A14462  12.806   3.304   7.630  0.3942 -0.3257 -0.1005
  969POPC   C1B14463  13.218   4.414   6.693  0.0152 -0.1111 -0.0478
  969POPC   C2B14464  13.129   4.451   7.150  0.1075 -0.3230  0.1321
  969POPC   C3B14465  13.078   4.124   7.461  0.1901  0.1505 -0.1193
  969POPC   C4B14466  12.719   4.119   7.794  0.0698 -0.0935  0.1003
  970POPC   NC314467   2.724  11.643   6.193 -0.4268 -0.2080 -0.1890
  970POPC   PO414468   3.072  11.989   6.141 -0.1881 -0.1016  0.1251
  970POPC   GL114469   3.383  12.068   6.587  0.0486  0.0968  0.3373
  970POPC   GL214470   3.561  11.932   6.717 -0.0203  0.0495 -0.0434
  970POPC   C1A14471   3.201  11.911   6.969  0.1138  0.1956 -0.1351
  970POPC   D2A14472   3.163  11.755   7.444 -0.0807 -0.0825  0.0346
  970POPC   C3A14473   3.168  11.455   7.815  0.0188  0.0380  0.1503
  970POPC   C4A14474   3.209  10.950   7.927  0.2602 -0.0814  0.2230
  970POPC   C1B14475   3.666  11.693   7.119  0.2271 -0.0447  0.3742
  970POPC   C2B14476   3.558  11.391   7.465 -0.0279 -0.1658  0.3099
  970POPC   C3B14477   3.679  11.168   7.836 -0.0346  0.1018  0.0426
  970POPC   C4B14478   3.838  10.785   7.963  0.0829  0.2663 -0.1122
  971POPC   NC314479   9.636   7.872   5.255  0.1063 -0.1638  0.2829
  971POPC   PO414480   9.805   7.781   5.583  0.2752 -0.2468  0.0139
  971POPC   GL114481   9.730   7.784   5.992  0.0506  0.0702 -0.1539
  971POPC   GL214482   9.953   7.519   6.053  0.5032 -0.1720 -0.3673
  971POPC   C1A14483   9.491   7.716   6.330  0.0017 -0.0077  0.0856
  971POPC   D2A14484   9.323   7.834   6.722  0.0617 -0.0388 -0.1036
  971POPC   C3A14485   9.429   7.868   7.165 -0.0154 -0.1081  0.2027
  971POPC   C4A14486   9.481   7.785   7.587  0.3266 -0.0609 -0.3295
  971POPC   C1B14487  10.112   7.443   6.472 -0.2590 -0.1461  0.3026
  971POPC   C2B14488  10.413   7.271   6.789 -0.0992 -0.1532  0.0877
  971POPC   C3B14489  10.442   6.993   7.076  0.1647  0.0973 -0.0279
  971POPC   C4B14490  10.501   6.707   7.500 -0.2729 -0.1465  0.1338
  972POPC   NC314491  15.277   7.743   5.844 -0.1763 -0.1251 -0.2275
  972POPC   PO414492  15.263   8.199   6.021 -0.0861 -0.0488  0.1363
  972POPC   GL114493  15.283   8.434   6.307 -0.3854  0.1128  0.2147
  972POPC   GL214494  15.153   8.756   6.365  0.2081 -0.2030  0.1283
  972POPC   C1A14495  15.235   8.188   6.662 -0.0122 -0.2207  0.2459
  972POPC   D2A14496  15.356   8.152   7.073  0.0584  0.0327 -0.0804
  972POPC   C3A14497  15.126   8.296   7.216 -0.3897 -0.1954  0.2163
  972POPC   C4A14498  15.017   8.343   7.597  0.2143  0.1015 -0.0818
  972POPC   C1B14499  14.974   8.676   6.772  0.0907  0.0645 -0.1079
  972POPC   C2B14500  14.914   8.737   7.151 -0.0964 -0.1192  0.2572
  972POPC   C3B14501  14.643   8.702   7.401  0.0150  0.3973  0.1613
  972POPC   C4B14502  14.509   8.480   7.636 -0.0053  0.0966  0.3188
  973POPC   NC314503  17.490  13.677   5.855 -0.0275 -0.3799  0.1255
  973POPC   PO414504  17.400  13.302   5.780  0.1575 -0.0785  0.0206
  973POPC   GL114505  17.221  13.283   6.234  0.2713  0.1950  0.2075
  973POPC   GL214506  17.215  13.655   6.377 -0.1674  0.4213 -0.1205
  973POPC   C1A14507  17.119  13.257   6.654 -0.2819 -0.5124  0.2221
  973POPC   D2A14508  16.909  13.519   6.873  0.1646  0.2785  0.0053
  973POPC   C3A14509  16.866  13.551   7.304 -0.1010 -0.4448  0.1355
  973POPC   C4A14510  16.699  13.365   7.699 -0.0163 -0.0160  0.0405
  973POPC   C1B14511  16.872  13.921   6.601  0.1593  0.1203  0.1925
  973POPC   C2B14512  16.654  13.977   6.927 -0.0498  0.3512 -0.0672
  973POPC   C3B14513  16.457  13.904   7.318 -0.0451  0.4004  0.0443
  973POPC   C4B14514  16.359  13.727   7.705  0.1738  0.1354 -0.1804
  974POPC   NC314515   3.196   6.616   5.668  0.2255  0.1388  0.3841
  974POPC   PO414516   3.463   6.332   5.866 -0.0274 -0.0482  0.0958
  974POPC   GL114517   3.485   6.435   6.112 -0.0483 -0.3171  0.0770
  974POPC   GL214518   3.464   6.542   6.353  0.1377 -0.1766 -0.2399
  974POPC   C1A14519   3.930   6.643   6.259 -0.1746 -0.2491  0.1627
  974POPC   D2A14520   4.112   6.799   6.569 -0.2831 -0.0457 -0.3019
  974POPC   C3A14521   4.156   6.671   6.984 -0.3400  0.2300 -0.0897
  974POPC   C4A14522   4.313   6.710   7.363 -0.1031  0.1108 -0.2162
  974POPC   C1B14523   3.618   6.710   6.695  0.0763 -0.0005 -0.0502
  974POPC   C2B14524   3.674   6.634   7.070 -0.2712 -0.0596  0.0593
  974POPC   C3B14525   3.853   6.579   7.454  0.2132  0.2457  0.0408
  974POPC   C4B14526   4.065   6.601   7.806  0.0625  0.2384  0.0523
  975POPC   NC314527   7.701   0.485   6.206 -0.1846  0.0037  0.2274
  975POPC   PO414528   7.679   0.960   6.298  0.1445 -0.0829 -0.2635
  975POPC   GL114529   7.618   0.843   6.700  0.0316  0.0761 -0.2081
  975POPC   GL214530   7.476   0.524   6.651 -0.1607  0.0938  0.1074
  975POPC   C1A14531   7.484   0.620   7.112 -0.0963 -0.1388 -0.0449
  975POPC   D2A14532   7.606   0.574   7.557  0.1507  0.1389 -0.3751
  975POPC   C3A14533   7.902   0.384   7.880 -0.0286 -0.1363 -0.1543
  975POPC   C4A14534   8.278   0.331   8.008  0.1427  0.0536  0.0647
  975POPC   C1B14535   7.596   0.170   7.064  0.0888 -0.0895 -0.4011
  975POPC   C2B14536   7.667   0.015   7.483  0.0725  0.2147  0.2041
  975POPC   C3B14537   7.508  -0.059   7.903 -0.0109 -0.2491 -0.0595
  975POPC   C4B14538   7.477  -0.359   8.353 -0.3345 -0.0131  0.0227
  976POPC   NC314539   6.858   5.352   6.112 -0.0874 -0.0628 -0.0532
  976POPC   PO414540   7.152   5.805   6.139  0.3984  0.3014  0.0986
  976POPC   GL114541   7.038   5.926   6.506 -0.0803  0.3245  0.0990
  976POPC   GL214542   7.008   5.617   6.667 -0.0029 -0.0535  0.0684
  976POPC   C1A14543   7.049   6.257   6.728 -0.0606  0.0599 -0.2432
  976POPC   D2A14544   7.351   6.534   7.013 -0.1614  0.1204  0.2499
  976POPC   C3A14545   7.309   6.772   7.313  0.0907 -0.3509  0.0113
  976POPC   C4A14546   7.196   7.069   7.650  0.0363  0.0469 -0.0572
  976POPC   C1B14547   7.122   5.737   7.114 -0.0777  0.5146  0.2633
  976POPC   C2B14548   7.151   6.144   7.283 -0.2715 -0.0985 -0.0668
  976POPC   C3B14549   6.906   6.441   7.303 -0.1406 -0.1547 -0.0799
  976POPC   C4B14550   6.812   6.855   7.247  0.1802  0.1526 -0.0110
  977POPC   NC314551   7.474   7.347   5.071 -0.0375  0.1069 -0.0993
  977POPC   PO414552   7.780   7.008   5.308  0.1779  0.0384  0.2631
  977POPC   GL114553   7.704   6.907   5.867 -0.2161 -0.2060 -0.1308
  977POPC   GL214554   7.935   6.709   6.000  0.2571 -0.1014 -0.1678
  977POPC   C1A14555   7.565   7.131   6.225 -0.3463  0.2080  0.0663
  977POPC   D2A14556   7.358   7.376   6.498  0.0423 -0.2165 -0.1703
  977POPC   C3A14557   7.213   7.469   6.888 -0.0241  0.1550  0.2323
  977POPC   C4A14558   6.981   7.290   7.205 -0.3029  0.2401 -0.0597
  977POPC   C1B14559   8.048   6.872   6.361  0.0075 -0.0284 -0.2527
  977POPC   C2B14560   8.278   7.036   6.696  0.0684 -0.0623  0.0961
  977POPC   C3B14561   8.197   6.993   7.131 -0.0371  0.2310 -0.0124
  977POPC   C4B14562   8.365   7.124   7.423  0.1344 -0.1749 -0.1385
  978POPC   NC314563  17.941   9.272   5.520 -0.0376 -0.0984 -0.0328
  978POPC   PO414564  18.306   9.312   5.779 -0.2168  0.0657 -0.1341
  978POPC   GL114565  18.196   9.287   6.173 -0.0633  0.1532 -0.0056
  978POPC   GL214566  18.424   9.524   6.283  0.2025 -0.1491  0.3077
  978POPC   C1A14567  17.916   9.592   6.472  0.1584  0.0748 -0.2699
  978POPC   D2A14568  17.636   9.477   6.767  0.1431 -0.3399 -0.2103
  978POPC   C3A14569  17.581   9.831   7.068 -0.2561  0.1420  0.0839
  978POPC   C4A14570  17.602  10.045   7.441 -0.0706  0.0821  0.1662
  978POPC   C1B14571  18.783   9.541   6.590 -0.0286  0.2218  0.0506
  978POPC   C2B14572  18.864   9.553   6.956  0.4377 -0.2252 -0.0740
  978POPC   C3B14573  18.776   9.504   7.441 -0.0604 -0.3579 -0.1954
  978POPC   C4B14574  18.557   9.493   7.802  0.1068 -0.0513 -0.0764
  979POPC   NC314575   7.658  15.892   5.958  0.2498  0.0180  0.0603
  979POPC   PO414576   7.600  16.302   6.102  0.2501  0.0878  0.1577
  979POPC   GL114577   7.300  16.166   6.374 -0.0139 -0.0563 -0.2302
  979POPC   GL214578   7.113  16.475   6.420  0.1910  0.2691  0.1761
  979POPC   C1A14579   7.089  16.095   6.778  0.3224  0.2196  0.1319
  979POPC   D2A14580   7.197  15.952   7.145  0.1042  0.3003  0.0843
  979POPC   C3A14581   7.138  16.069   7.592  0.0569  0.1485  0.0897
  979POPC   C4A14582   6.775  16.178   7.779 -0.2500  0.1584 -0.2318
  979POPC   C1B14583   7.361  16.500   6.804 -0.1684 -0.3966 -0.0280
  979POPC   C2B14584   7.436  16.383   7.215 -0.0038  0.2372 -0.1729
  979POPC   C3B14585   7.537  16.382   7.637 -0.2664  0.0059 -0.3021
  979POPC   C4B14586   7.578  16.626   8.000 -0.0079 -0.2043  0.1197
  980POPC   NC314587   0.977   7.495   5.732 -0.1424 -0.0644 -0.3700
  980POPC   PO414588   0.788   7.106   5.816 -0.0404  0.1546 -0.0463
  980POPC   GL114589   0.683   6.993   6.183 -0.0236  0.1371  0.0142
  980POPC   GL214590   0.564   6.624   6.217 -0.1425 -0.0487  0.3068
  980POPC   C1A14591   0.695   7.002   6.635 -0.1186 -0.2157  0.3067
  980POPC   D2A14592   0.755   7.073   7.086 -0.0869  0.2063  0.2551
  980POPC   C3A14593   0.658   7.144   7.552  0.2414 -0.0128 -0.0596
  980POPC   C4A14594   0.892   7.168   7.910  0.0225  0.1335 -0.0759
  980POPC   C1B14595   0.772   6.546   6.607  0.0882 -0.0949  0.0551
  980POPC   C2B14596   0.640   6.582   7.067  0.1127  0.3070 -0.1627
  980POPC   C3B14597   0.808   6.676   7.429 -0.1226  0.2900 -0.0015
  980POPC   C4B14598   0.813   6.651   7.910 -0.1527  0.0930  0.1602
  981POPC   NC314599  16.833   5.702   5.822 -0.0983 -0.1629  0.0465
  981POPC   PO414600  16.936   6.064   5.589 -0.1000  0.1448  0.1921
  981POPC   GL114601  16.886   6.118   6.107 -0.0610  0.0175 -0.1839
  981POPC   GL214602  17.080   6.222   6.268 -0.1780  0.0008 -0.1143
  981POPC   C1A14603  16.627   6.304   6.484  0.0758  0.3914  0.2573
  981POPC   D2A14604  16.584   6.201   6.915  0.2087 -0.3274  0.2161
  981POPC   C3A14605  16.905   6.121   7.181  0.1306 -0.0259  0.3373
  981POPC   C4A14606  17.415   6.108   7.101 -0.0892 -0.1765 -0.1023
  981POPC   C1B14607  17.153   5.998   6.704 -0.1386 -0.1709  0.1790
  981POPC   C2B14608  17.269   5.688   6.829 -0.1068  0.4854 -0.2339
  981POPC   C3B14609  17.671   5.468   6.727  0.2115 -0.1272  0.2190
  981POPC   C4B14610  17.853   5.074   6.693  0.2309  0.0400 -0.0915
  982POPC   NC314611   4.577   1.361   5.745 -0.3064 -0.1833  0.1131
  982POPC   PO414612   4.138   1.202   6.019 -0.1031  0.0585 -0.0563
  982POPC   GL114613   4.113   1.169   6.369  0.1530 -0.1023  0.0014
  982POPC   GL214614   3.843   1.248   6.488  0.0371  0.1289 -0.0816
  982POPC   C1A14615   4.244   0.896   6.676  0.0360  0.0605 -0.0117
  982POPC   D2A14616   4.084   0.617   6.993  0.1409  0.1337  0.0641
  982POPC   C3A14617   4.077   0.621   7.453  0.2772 -0.1953  0.3371
  982POPC   C4A14618   4.315   0.663   7.749 -0.0672  0.0895 -0.1440
  982POPC   C1B14619   3.692   0.891   6.781 -0.0932  0.0157 -0.0939
  982POPC   C2B14620   3.547   0.807   7.267 -0.0344  0.1029  0.1746
  982POPC   C3B14621   3.601   0.838   7.685  0.3280 -0.0982  0.1262
  982POPC   C4B14622   3.551   0.737   8.110 -0.0406 -0.0820  0.1807
  983POPC   NC314623   9.698  13.749   5.867  0.0037  0.0374  0.2150
  983POPC   PO414624  10.066  14.037   5.778 -0.0654  0.2998 -0.3637
  983POPC   GL114625  10.008  14.049   6.182 -0.0476 -0.0384 -0.0369
  983POPC   GL214626   9.667  13.989   6.316 -0.2111  0.1749 -0.2528
  983POPC   C1A14627  10.107  13.919   6.605 -0.0626  0.0489  0.1361
  983POPC   D2A14628  10.122  13.949   7.062  0.0643 -0.3059 -0.0271
  983POPC   C3A14629   9.893  14.006   7.475  0.4948 -0.3054  0.1534
  983POPC   C4A14630   9.731  13.878   7.788 -0.0120  0.2748 -0.2123
  983POPC   C1B14631   9.620  14.047   6.840 -0.1576 -0.1935  0.0065
  983POPC   C2B14632   9.445  13.851   7.251  0.1513  0.0282 -0.1304
  983POPC   C3B14633   9.237  13.586   7.635 -0.1297  0.0615  0.1342
  983POPC   C4B14634   9.029  13.445   7.913  0.1772 -0.0089  0.1379
  984YOPC   NC314635  11.638  11.077   5.396 -0.0823  0.1884  0.2681
  984YOPC   PO414636  11.940  10.928   5.711 -0.2635 -0.2350  0.2313
  984YOPC   GL114637  11.988  10.875   6.097  0.0027 -0.1753 -0.2250
  984YOPC   GL214638  11.789  10.984   6.272  0.3236 -0.2670 -0.1101
  984YOPC   C1A14639  12.252  10.793   6.532  0.1255 -0.0338  0.1649
  984YOPC   D2A14640  12.196  10.703   6.892 -0.2297  0.2617 -0.1541
  984YOPC   C3A14641  11.877  10.535   7.015  0.1280 -0.0516 -0.0857
  984YOPC   C4A14642  11.389  10.533   6.916 -0.2228  0.1476  0.0908
  984YOPC   C1B14643  11.420  11.187   6.410  0.0385 -0.2318  0.0040
  984YOPC   C2B14644  11.016  11.157   6.669 -0.3596 -0.1030  0.2024
  984YOPC   D3B14645  10.917  11.093   7.066  0.0708 -0.0503  0.1345
  984YOPC   C4B14646  10.905  11.343   7.441 -0.2353 -0.2687 -0.1034
  985YOPC   NC314647  13.267  14.077   5.824 -0.1125  0.1336  0.0860
  985YOPC   PO414648  13.093  13.677   6.011 -0.1514  0.0396  0.1527
  985YOPC   GL114649  13.346  13.796   6.313 -0.1466  0.2486  0.1131
  985YOPC   GL214650  13.150  13.971   6.406  0.0740 -0.2081 -0.0315
  985YOPC   C1A14651  13.391  13.508   6.671 -0.0273 -0.2361 -0.1435
  985YOPC   D2A14652  13.502  13.197   6.995 -0.2841 -0.0306 -0.1103
  985YOPC   C3A14653  13.379  12.713   7.314  0.0847  0.1385  0.1418
  985YOPC   C4A14654  13.158  12.453   7.569 -0.0335 -0.4210 -0.3086
  985YOPC   C1B14655  13.108  13.927   6.899 -0.0382 -0.0264 -0.0352
  985YOPC   C2B14656  12.944  13.893   7.249  0.4297 -0.2785 -0.0632
  985YOPC   D3B14657  13.179  14.178   7.555 -0.1427  0.1051 -0.1035
  985YOPC   C4B14658  13.197  14.337   7.978 -0.2196 -0.0225  0.3729
  986YOPC   NC314659   6.570  15.294   5.844 -0.3053  0.0048  0.3320
  986YOPC   PO414660   6.614  15.148   6.293  0.2701 -0.2177  0.2145
  986YOPC   GL114661   6.528  15.288   6.676  0.1796  0.0733 -0.0902
  986YOPC   GL214662   6.879  15.369   6.706  0.1213  0.1679 -0.0283
  986YOPC   C1A14663   6.326  15.502   7.104 -0.0477 -0.1374  0.0973
  986YOPC   D2A14664   6.361  15.664   7.558  0.2267 -0.2736  0.3064
  986YOPC   C3A14665   6.091  15.753   7.830 -0.2263  0.2166  0.2869
  986YOPC   C4A14666   6.015  16.026   8.173 -0.0483 -0.4334 -0.1074
  986YOPC   C1B14667   6.794  15.284   7.124  0.3408  0.0398 -0.1242
  986YOPC   C2B14668   6.635  15.324   7.503 -0.3822 -0.1937  0.1832
  986YOPC   D3B14669   6.887  15.615   7.776  0.1186 -0.0329  0.3529
  986YOPC   C4B14670   7.147  15.724   8.178 -0.0536 -0.0146 -0.0332
  987YOPC   NC314671  15.933  16.388   5.678  0.2040  0.3515 -0.1801
  987YOPC   PO414672  15.857  16.475   6.042  0.1085 -0.3156 -0.0651
  987YOPC   GL114673  16.137  16.333   6.473  0.0904 -0.0627 -0.1704
  987YOPC   GL214674  16.438  16.369   6.434 -0.1880 -0.0083 -0.1096
  987YOPC   C1A14675  16.382  16.138   6.870  0.1424  0.1727  0.0081
  987YOPC   D2A14676  16.423  15.732   7.042  0.0046  0.2170 -0.1026
  987YOPC   C3A14677  16.366  15.767   7.459  0.0336  0.0958 -0.0882
  987YOPC   C4A14678  16.368  15.919   7.927  0.0461  0.2133 -0.0141
  987YOPC   C1B14679  16.896  16.470   6.703 -0.1348  0.1663 -0.0697
  987YOPC   C2B14680  16.873  16.474   7.020  0.0070 -0.0847  0.0928
  987YOPC   D3B14681  16.785  16.767   7.465  0.0731 -0.1073 -0.2830
  987YOPC   C4B14682  16.750  16.754   7.911  0.1510  0.1836  0.1249
  988YOPC   NC314683   4.956  13.126   5.811 -0.1770  0.1110 -0.0453
  988YOPC   PO414684   5.277  13.251   5.973  0.0302  0.1750  0.0311
  988YOPC   GL114685   5.434  13.209   6.381 -0.0493  0.0799 -0.1017
  988YOPC   GL214686   5.200  13.091   6.658 -0.1670  0.1191  0.0570
  988YOPC   C1A14687   5.641  13.325   6.838 -0.2949  0.1958  0.0604
  988YOPC   D2A14688   5.925  13.369   7.177 -0.0318  0.3126 -0.0222
  988YOPC   C3A14689   5.891  13.297   7.523  0.1530 -0.0969 -0.0556
  988YOPC   C4A14690   6.081  13.136   7.818 -0.1571 -0.0284 -0.0391
  988YOPC   C1B14691   5.130  13.309   7.004  0.0370  0.0166 -0.1724
  988YOPC   C2B14692   4.828  13.495   7.314 -0.0476 -0.0725  0.0178
  988YOPC   D3B14693   4.837  13.580   7.765  0.1177 -0.0315  0.1473
  988YOPC   C4B14694   4.600  13.772   8.136  0.0274  0.0733  0.2771
  989YOPC   NC314695   9.254   6.197   5.228 -0.1657 -0.0838 -0.0002
  989YOPC   PO414696   9.587   6.512   5.076  0.0785 -0.0616 -0.2179
  989YOPC   GL114697   9.519   6.349   5.591 -0.3452 -0.0582 -0.2695
  989YOPC   GL214698   9.645   6.659   5.656  0.0246  0.2569 -0.0969
  989YOPC   C1A14699   9.848   6.255   5.973 -0.1183  0.3252 -0.2763
  989YOPC   D2A14700   9.816   6.104   6.389 -0.0590 -0.0974 -0.3995
  989YOPC   C3A14701   9.877   6.358   6.749 -0.4146 -0.2293 -0.0351
  989YOPC   C4A14702  10.200   6.522   7.072  0.1267 -0.2785  0.1741
  989YOPC   C1B14703   9.573   6.726   6.020 -0.2017  0.0593  0.1929
  989YOPC   C2B14704   9.714   6.718   6.380  0.1887  0.1762  0.0356
  989YOPC   D3B14705   9.535   6.819   6.788 -0.1993 -0.0066  0.4422
  989YOPC   C4B14706   9.211   6.612   6.998  0.1213 -0.1889  0.2551
  990YOPC   NC314707   2.641  13.438   6.317  0.1797 -0.0128  0.1601
  990YOPC   PO414708   2.161  13.387   6.302 -0.1072  0.1374 -0.2039
  990YOPC   GL114709   2.171  13.231   6.783  0.1043 -0.0368  0.2146
  990YOPC   GL214710   1.919  13.007   6.835 -0.3771 -0.0061  0.0547
  990YOPC   C1A14711   2.477  13.287   7.216  0.0660 -0.3395 -0.1810
  990YOPC   D2A14712   2.531  13.295   7.697  0.1653  0.3536 -0.1114
  990YOPC   C3A14713   2.566  13.313   8.159 -0.0726 -0.0470 -0.0318
  990YOPC   C4A14714   2.812  13.373   8.527  0.3140 -0.2468 -0.0087
  990YOPC   C1B14715   1.756  13.172   7.294  0.1200  0.2417 -0.0393
  990YOPC   C2B14716   1.725  13.321   7.778 -0.2180  0.1803  0.0278
  990YOPC   D3B14717   1.446  13.304   8.081 -0.2153  0.1542 -0.2242
  990YOPC   C4B14718   1.175  13.155   8.375  0.2416 -0.0238 -0.1792
  991YOPC   NC314719  14.591  14.308   5.948 -0.1216 -0.2388 -0.0389
  991YOPC   PO414720  14.189  14.364   6.174 -0.1302 -0.0294 -0.1337
  991YOPC   GL114721  13.838  14.225   6.376  0.1728 -0.0508 -0.1828
  991YOPC   GL214722  13.849  13.953   6.252 -0.0316 -0.3929 -0.0974
  991YOPC   C1A14723  13.484  14.179   6.728 -0.2590  0.2424 -0.1135
  991YOPC   D2A14724  13.410  14.317   7.173 -0.0657 -0.3707 -0.3072
  991YOPC   C3A14725  13.176  14.778   7.322  0.0234  0.0267  0.1066
  991YOPC   C4A14726  13.192  15.129   7.604 -0.0338  0.1150 -0.1505
  991YOPC   C1B14727  13.793  13.722   6.582 -0.3119 -0.0802 -0.2414
  991YOPC   C2B14728  13.576  13.728   7.093  0.1646 -0.3385  0.2032
  991YOPC   D3B14729  13.729  14.018   7.412 -0.1785  0.0904  0.0498
  991YOPC   C4B14730  13.910  14.360   7.530 -0.2498 -0.2424 -0.3027
  992YOPC   NC314731   2.045  17.245   5.897  0.3324  0.0243  0.3332
  992YOPC   PO414732   1.986  16.972   6.191 -0.1716 -0.0055 -0.2077
  992YOPC   GL114733   2.093  16.758   6.618  0.0367  0.1673  0.0976
  992YOPC   GL214734   1.796  16.536   6.615  0.1648  0.2245 -0.1137
  992YOPC   C1A14735   2.159  16.874   7.023 -0.2377  0.0325  0.1680
  992YOPC   D2A14736   1.955  16.987   7.364  0.0926  0.1045 -0.0418
  992YOPC   C3A14737   1.933  16.936   7.779 -0.1089 -0.1484 -0.0028
  992YOPC   C4A14738   1.972  16.936   8.130  0.1312  0.1190  0.3888
  992YOPC   C1B14739   1.618  16.570   7.077 -0.0221  0.1515 -0.1501
  992YOPC   C2B14740   1.546  16.529   7.571  0.2196 -0.2493  0.0731
  992YOPC   D3B14741   1.451  16.869   7.754  0.3890 -0.0109  0.0866
  992YOPC   C4B14742   1.516  17.218   8.001  0.0637 -0.3687 -0.0643
  993YOPC   NC314743  12.206  16.612   5.649 -0.1853  0.1145 -0.0191
  993YOPC   PO414744  12.214  17.028   5.794 -0.0006 -0.2319 -0.0714
  993YOPC   GL114745  12.167  16.959   6.239  0.4209  0.3099 -0.4275
  993YOPC   GL214746  11.936  16.774   6.367  0.1667 -0.1220 -0.1791
  993YOPC   C1A14747  12.364  17.041   6.560 -0.0147 -0.0548 -0.0657
  993YOPC   D2A14748  12.230  17.193   6.909 -0.1430 -0.1153 -0.2861
  993YOPC   C3A14749  12.289  17.097   7.335 -0.0775 -0.2175  0.1008
  993YOPC   C4A14750  12.188  17.184   7.740 -0.0848  0.0580 -0.0003
  993YOPC   C1B14751  11.600  16.511   6.434  0.0517  0.0684  0.1731
  993YOPC   C2B14752  11.494  16.440   6.881 -0.0925 -0.1707 -0.2666
  993YOPC   D3B14753  11.672  16.540   7.257  0.2629 -0.0739  0.2239
  993YOPC   C4B14754  11.694  16.303   7.695 -0.1050 -0.1620  0.0666
  994YOPC   NC314755   4.038  11.305   6.008  0.1376  0.1110  0.2584
  994YOPC   PO414756   3.856  10.902   5.762  0.0707  0.0566  0.0797
  994YOPC   GL114757   4.055  10.769   6.203  0.0110  0.1369  0.2117
  994YOPC   GL214758   4.314  10.504   6.253  0.0934 -0.1073 -0.3645
  994YOPC   C1A14759   4.053  10.795   6.680 -0.2196 -0.0394  0.3861
  994YOPC   D2A14760   4.221  10.666   7.066  0.1211 -0.3368 -0.0114
  994YOPC   C3A14761   4.283  10.226   7.066 -0.2293  0.0367  0.0426
  994YOPC   C4A14762   4.363   9.913   7.291  0.0596  0.0603  0.2313
  994YOPC   C1B14763   4.413  10.494   6.643 -0.0288 -0.1012 -0.1706
  994YOPC   C2B14764   4.702  10.728   6.961 -0.0974  0.0362  0.0212
  994YOPC   D3B14765   4.687  10.705   7.418 -0.1668  0.0013  0.1295
  994YOPC   C4B14766   4.665  10.798   7.750 -0.0919  0.0221 -0.1200
  995YOPC   NC314767   7.281   1.980   5.798  0.1411  0.2924 -0.0188
  995YOPC   PO414768   7.006   1.570   5.880 -0.3898  0.1920  0.0991
  995YOPC   GL114769   7.184   1.753   6.272  0.1932  0.2073  0.3523
  995YOPC   GL214770   7.146   2.053   6.275  0.0704 -0.0760 -0.0572
  995YOPC   C1A14771   7.402   1.850   6.697 -0.1459 -0.1226  0.0955
  995YOPC   D2A14772   7.632   1.977   7.018 -0.2811 -0.0970 -0.0254
  995YOPC   C3A14773   7.633   1.886   7.458  0.1072  0.0870  0.0645
  995YOPC   C4A14774   7.794   2.038   7.860  0.0925  0.0689 -0.0028
  995YOPC   C1B14775   6.926   1.908   6.678  0.0728  0.2210  0.0325
  995YOPC   C2B14776   6.829   1.500   6.766  0.2036 -0.0356 -0.2418
  995YOPC   D3B14777   6.477   1.427   7.076 -0.2721 -0.0969  0.0471
  995YOPC   C4B14778   6.264   1.375   7.428  0.1230  0.0895 -0.2009
  996YOPC   NC314779  10.625   2.728   5.731  0.1204 -0.0441  0.1000
  996YOPC   PO414780  10.920   2.901   5.472 -0.2105  0.0953  0.0710
  996YOPC   GL114781  11.348   2.993   5.766  0.0473 -0.0666  0.1850
  996YOPC   GL214782  11.299   3.116   5.984 -0.1030 -0.2727  0.2455
  996YOPC   C1A14783  11.547   2.744   6.119 -0.0027 -0.3002  0.1401
  996YOPC   D2A14784  11.582   2.693   6.478 -0.1019 -0.1637  0.1657
  996YOPC   C3A14785  11.454   2.850   6.822  0.1692  0.0237 -0.1726
  996YOPC   C4A14786  11.527   2.928   7.207  0.2867  0.0867 -0.0321
  996YOPC   C1B14787  11.127   2.994   6.374 -0.2273  0.0336 -0.2511
  996YOPC   C2B14788  11.028   3.143   6.793 -0.0961 -0.1572 -0.0404
  996YOPC   D3B14789  11.128   3.239   7.174  0.0251 -0.2577 -0.3110
  996YOPC   C4B14790  11.206   3.105   7.568  0.1861  0.2580  0.0779
  997YOPC   NC314791  13.798   9.744   5.660  0.2327  0.0215 -0.1541
  997YOPC   PO414792  13.661  10.159   5.875  0.0521  0.0490  0.0610
  997YOPC   GL114793  13.347  10.215   6.245  0.0543 -0.0579 -0.0323
  997YOPC   GL214794  13.224  10.611   6.355  0.0392 -0.3577  0.0484
  997YOPC   C1A14795  13.129  10.118   6.569 -0.4043 -0.4518  0.0247
  997YOPC   D2A14796  13.006  10.175   6.974 -0.0715  0.2136 -0.1820
  997YOPC   C3A14797  13.133  10.031   7.262 -0.1611  0.1081  0.0541
  997YOPC   C4A14798  13.301  10.216   7.623 -0.2123 -0.2292 -0.1706
  997YOPC   C1B14799  13.077  10.639   6.840  0.2345 -0.2737  0.0507
  997YOPC   C2B14800  13.114  10.567   7.272 -0.2094 -0.2668 -0.0555
  997YOPC   D3B14801  13.286  10.770   7.643  0.3414 -0.1995 -0.0423
  997YOPC   C4B14802  13.321  11.059   7.903  0.1293 -0.3415 -0.0171
  998YOPC   NC314803  17.137   3.843   5.414 -0.1927  0.2675  0.0351
  998YOPC   PO414804  17.551   3.785   5.465 -0.1532  0.5193  0.1586
  998YOPC   GL114805  17.473   3.531   5.828  0.0568 -0.2198 -0.2114
  998YOPC   GL214806  17.745   3.430   5.990  0.1667  0.0798  0.1377
  998YOPC   C1A14807  17.252   3.428   6.202 -0.0970 -0.1014 -0.1412
  998YOPC   D2A14808  17.254   3.635   6.616  0.3087  0.0932  0.0092
  998YOPC   C3A14809  17.452   3.536   6.903  0.1873 -0.1991  0.0200
  998YOPC   C4A14810  17.630   3.143   6.750 -0.1230  0.2123 -0.0744
  998YOPC   C1B14811  17.615   3.041   6.264  0.2113  0.1804  0.0172
  998YOPC   C2B14812  17.626   2.571   6.258 -0.0797  0.0566  0.0961
  998YOPC   D3B14813  17.431   2.375   6.528 -0.1351  0.0942 -0.0095
  998YOPC   C4B14814  17.417   2.661   6.997 -0.0645 -0.0271 -0.2778
  999YOPC   NC314815  17.543   9.952   5.953  0.1799  0.0366  0.0965
  999YOPC   PO414816  17.509  10.334   5.793 -0.0424  0.2431 -0.0745
  999YOPC   GL114817  17.562  10.596   6.144  0.1666  0.3093 -0.1823
  999YOPC   GL214818  17.861  10.434   6.168 -0.2308  0.0678 -0.1302
  999YOPC   C1A14819  17.258  10.700   6.380  0.0072  0.3381  0.2644
  999YOPC   D2A14820  17.036  10.509   6.705  0.2066 -0.1476 -0.2268
  999YOPC   C3A14821  16.960  10.679   7.031 -0.0143  0.2401  0.0710
  999YOPC   C4A14822  16.676  10.699   7.432 -0.3559 -0.0875  0.0282
  999YOPC   C1B14823  17.880  10.189   6.574 -0.2088  0.0242  0.2640
  999YOPC   C2B14824  17.872  10.266   7.051  0.0594 -0.1648  0.2645
  999YOPC   D3B14825  18.130  10.113   7.317 -0.2285 -0.3661  0.0857
  999YOPC   C4B14826  18.407   9.911   7.545  0.1344 -0.0056  0.5558
 1000YOPC   NC314827  10.121   3.924   5.367  0.1579  0.3140  0.1071
 1000YOPC   PO414828  10.362   4.320   5.451 -0.1278  0.0824 -0.0905
 1000YOPC   GL114829  10.407   4.342   5.928 -0.0834  0.2340  0.1569
 1000YOPC   GL214830  10.760   4.224   6.095  0.0739  0.0519 -0.0786
 1000YOPC   C1A14831  10.422   4.567   6.291  0.2659  0.2081 -0.0010
 1000YOPC   D2A14832  10.456   4.729   6.672  0.0637  0.0508 -0.2736
 1000YOPC   C3A14833  10.667   5.066   6.804  0.1793 -0.0401 -0.1777
 1000YOPC   C4A14834  10.655   5.241   7.219  0.2557 -0.2252 -0.1074
 1000YOPC   C1B14835  11.068   4.442   6.303  0.3653 -0.2076  0.0181
 1000YOPC   C2B14836  11.414   4.485   6.642 -0.0504  0.1338 -0.1782
 1000YOPC   D3B14837  11.501   4.138   6.841 -0.0056 -0.0515 -0.0227
 1000YOPC   C4B14838  11.634   4.116   7.319  0.0013 -0.1400  0.0656
 1001YOPC   NC314839  10.255   9.890   5.613 -0.2271 -0.1698 -0.0550
 1001YOPC   PO414840   9.931   9.531   5.535 -0.0129  0.3200  0.0351
 1001YOPC   GL114841  10.038   9.376   5.945  0.2122  0.2307 -0.2790
 1001YOPC   GL214842   9.950   9.058   5.918 -0.1100  0.1590 -0.0649
 1001YOPC   C1A14843  10.329   9.471   6.321 -0.0908  0.0380 -0.1641
 1001YOPC   D2A14844  10.327   9.317   6.713  0.0849 -0.0547 -0.0272
 1001YOPC   C3A14845   9.932   9.406   6.911  0.1313  0.2164  0.1907
 1001YOPC   C4A14846   9.616   9.750   6.832 -0.0600 -0.1897 -0.0625
 1001YOPC   C1B14847   9.875   8.696   6.266 -0.1123 -0.1103 -0.0212
 1001YOPC   C2B14848   9.669   8.619   6.623  0.1516 -0.1731  0.0531
 1001YOPC   D3B14849   9.823   8.458   6.912  0.0941 -0.1290  0.1854
 1001YOPC   C4B14850  10.016   8.497   7.244 -0.0891  0.0636  0.1789
 1002YOPC   NC314851   4.704   0.082   6.304 -0.1118  0.1038  0.0601
 1002YOPC   PO414852   5.137   0.078   6.472  0.1440  0.0733  0.2746
 1002YOPC   GL114853   5.228   0.200   6.933  0.3126 -0.1641  0.3796
 1002YOPC   GL214854   5.480   0.389   6.960  0.0333  0.3243 -0.1772
 1002YOPC   C1A14855   5.216   0.149   7.413 -0.0853  0.0609 -0.2111
 1002YOPC   D2A14856   5.281   0.060   7.887 -0.1015 -0.2268  0.1028
 1002YOPC   C3A14857   5.572  -0.290   8.006 -0.1554  0.1001 -0.3301
 1002YOPC   C4A14858   6.065  -0.259   8.185  0.2564 -0.0512 -0.3400
 1002YOPC   C1B14859   5.539   0.499   7.405 -0.2696  0.0324  0.0616
 1002YOPC   C2B14860   5.469   0.602   7.827 -0.3998 -0.0046  0.0897
 1002YOPC   D3B14861   5.712   0.875   8.054  0.2335 -0.0548  0.0248
 1002YOPC   C4B14862   6.098   0.946   7.835 -0.1439 -0.0356 -0.1299
 1003YOPC   NC314863   3.394  15.947   5.743  0.0871  0.2490  0.3103
 1003YOPC   PO414864   3.563  16.051   6.144  0.2345 -0.2622 -0.1013
 1003YOPC   GL114865   3.685  16.227   6.487 -0.0236 -0.0340  0.0171
 1003YOPC   GL214866   4.087  16.202   6.529  0.0057 -0.0598 -0.0196
 1003YOPC   C1A14867   3.795  16.393   6.968  0.0801  0.0675  0.0949
 1003YOPC   D2A14868   3.551  16.583   7.359  0.2963 -0.1214  0.1995
 1003YOPC   C3A14869   3.501  17.011   7.333  0.1179 -0.1186  0.2606
 1003YOPC   C4A14870   3.818  17.275   7.457  0.0666 -0.3365  0.1490
 1003YOPC   C1B14871   4.235  16.456   6.794 -0.0061 -0.4388 -0.3140
 1003YOPC   C2B14872   4.283  16.406   7.258  0.1640  0.0753 -0.0792
 1003YOPC   D3B14873   3.918  16.293   7.476 -0.0039 -0.1064  0.2552
 1003YOPC   C4B14874   3.615  16.444   7.795  0.0703 -0.1099 -0.0562
 1004YOPC   NC314875   4.523   6.892   5.586 -0.0318 -0.1091  0.0549
 1004YOPC   PO414876   4.415   7.177   5.876 -0.1329  0.1964 -0.2664
 1004YOPC   GL114877   4.428   7.326   6.199 -0.1371  0.0178  0.4479
 1004YOPC   GL214878   4.251   7.304   6.407  0.0830  0.0293  0.2270
 1004YOPC   C1A14879   4.596   7.680   6.454 -0.2865  0.1200  0.2305
 1004YOPC   D2A14880   4.283   8.085   6.532  0.1794 -0.1114  0.1829
 1004YOPC   C3A14881   4.262   8.124   6.977 -0.1215  0.6016 -0.1976
 1004YOPC   C4A14882   4.038   8.208   7.456  0.1417 -0.0360 -0.1882
 1004YOPC   C1B14883   3.924   7.239   6.758 -0.0654 -0.1928  0.1386
 1004YOPC   C2B14884   3.889   7.058   7.157  0.2312 -0.1421  0.0347
 1004YOPC   D3B14885   3.665   7.186   7.501  0.1197 -0.0599  0.0156
 1004YOPC   C4B14886   3.317   7.281   7.805 -0.0738 -0.1666  0.1392
 1005YOPC   NC314887  12.977   9.550   5.800  0.0500  0.1351 -0.0062
 1005YOPC   PO414888  13.283   9.801   5.974 -0.1692  0.2073 -0.0286
 1005YOPC   GL114889  13.500   9.643   6.239  0.0977  0.0097  0.1585
 1005YOPC   GL214890  13.316   9.552   6.442 -0.0459  0.0388 -0.4126
 1005YOPC   C1A14891  13.786   9.384   6.480 -0.3695 -0.3864 -0.0940
 1005YOPC   D2A14892  13.825   9.465   6.844  0.0656  0.0035  0.1136
 1005YOPC   C3A14893  13.455   9.391   6.944  0.1234 -0.3172  0.2570
 1005YOPC   C4A14894  13.085   9.496   7.248 -0.0626 -0.0088  0.2924
 1005YOPC   C1B14895  12.966   9.667   6.755  0.2610  0.0033 -0.0815
 1005YOPC   C2B14896  12.735   9.287   6.858 -0.1346 -0.0051 -0.1601
 1005YOPC   D3B14897  12.859   8.990   7.157  0.0578  0.2921  0.1140
 1005YOPC   C4B14898  12.554   8.794   7.481  0.2736 -0.5178 -0.1273
 1006YOPC   NC314899   3.586  10.584   5.952  0.0904 -0.2628 -0.4788
 1006YOPC   PO414900   3.253  10.564   6.169 -0.1616  0.0080 -0.0530
 1006YOPC   GL114901   3.535  10.518   6.540  0.1260 -0.2028  0.1045
 1006YOPC   GL214902   3.555  10.790   6.638  0.0336  0.1887 -0.2497
 1006YOPC   C1A14903   3.855  10.378   6.796 -0.0413 -0.0829  0.0594
 1006YOPC   D2A14904   3.849  10.318   7.209  0.2091 -0.0716  0.1004
 1006YOPC   C3A14905   3.985  10.088   7.545  0.2997 -0.0011  0.6412
 1006YOPC   C4A14906   4.229   9.773   7.756  0.0178  0.0147 -0.0406
 1006YOPC   C1B14907   3.660  10.812   7.026  0.0917 -0.1665  0.2425
 1006YOPC   C2B14908   3.523  10.834   7.440 -0.0189 -0.0084 -0.1156
 1006YOPC   D3B14909   3.632  10.447   7.670  0.1497 -0.1791  0.0699
 1006YOPC   C4B14910   3.916  10.242   8.008 -0.0202 -0.3267 -0.0984
 1007YOPC   NC314911   8.537  16.344   5.960 -0.0961 -0.0348 -0.2796
 1007YOPC   PO414912   8.707  16.604   6.267  0.0017  0.0576  0.1726
 1007YOPC   GL114913   8.776  16.209   6.432 -0.2143  0.3873  0.1753
 1007YOPC   GL214914   9.101  16.242   6.450  0.0818  0.2021 -0.1854
 1007YOPC   C1A14915   8.709  15.875   6.614  0.0377 -0.1691  0.1362
 1007YOPC   D2A14916   8.462  15.574   6.722 -0.3197  0.1555  0.1342
 1007YOPC   C3A14917   8.236  15.581   7.002 -0.1323  0.0439 -0.2842
 1007YOPC   C4A14918   8.245  15.814   7.350 -0.1220 -0.2575  0.4147
 1007YOPC   C1B14919   9.128  16.155   6.909 -0.3404  0.3253 -0.3272
 1007YOPC   C2B14920   9.094  16.222   7.280 -0.3030  0.0348 -0.1948
 1007YOPC   D3B14921   8.958  16.500   7.553 -0.0295 -0.1815  0.0185
 1007YOPC   C4B14922   8.852  16.803   7.912  0.2052 -0.0052  0.3205
 1008YOPC   NC314923  17.925  15.701   5.775 -0.0636  0.1311  0.2355
 1008YOPC   PO414924  17.586  15.907   6.046 -0.0603  0.0997  0.1896
 1008YOPC   GL114925  17.535  15.771   6.544  0.2363  0.0528  0.0513
 1008YOPC   GL214926  17.497  15.471   6.620 -0.1905  0.2213  0.0278
 1008YOPC   C1A14927  17.505  15.733   6.984 -0.1548  0.1133 -0.1368
 1008YOPC   D2A14928  17.618  15.799   7.412  0.0479  0.0643  0.0378
 1008YOPC   C3A14929  17.357  15.994   7.577  0.1217 -0.1778  0.1150
 1008YOPC   C4A14930  17.275  16.064   8.009 -0.1600  0.3606  0.0999
 1008YOPC   C1B14931  17.195  15.302   7.026 -0.0187  0.1642 -0.2923
 1008YOPC   C2B14932  17.221  15.524   7.444 -0.1441 -0.2440  0.0448
 1008YOPC   D3B14933  17.140  15.301   7.793  0.2848  0.1823  0.3071
 1008YOPC   C4B14934  17.175  15.447   8.201 -0.0739  0.0188  0.0772
 1009YOPC   NC314935  10.316   6.602   5.238  0.0708  0.0805  0.0613
 1009YOPC   PO414936  10.008   6.881   5.385  0.0653  0.1081  0.1845
 1009YOPC   GL114937  10.116   6.785   5.807  0.0052  0.0124  0.0742
 1009YOPC   GL214938   9.957   7.063   5.875  0.0156  0.0720  0.1316
 1009YOPC   C1A14939  10.162   6.564   6.213 -0.0139  0.1417 -0.1488
 1009YOPC   D2A14940  10.359   6.380   6.593 -0.2095 -0.2447 -0.1156
 1009YOPC   C3A14941  10.611   6.101   6.770 -0.0219 -0.0010  0.1288
 1009YOPC   C4A14942  10.710   5.722   6.952  0.1093  0.3143  0.0994
 1009YOPC   C1B14943   9.998   7.039   6.225  0.0475 -0.0590  0.1179
 1009YOPC   C2B14944  10.152   6.862   6.643  0.5655  0.2120 -0.1706
 1009YOPC   D3B14945   9.915   7.083   6.997  0.2961 -0.0437  0.2008
 1009YOPC   C4B14946   9.646   7.390   7.230 -0.0947 -0.0037 -0.0044
 1010YOPC   NC314947   4.078   7.552   5.741  0.3243 -0.0620  0.0064
 1010YOPC   PO414948   4.111   8.011   5.818 -0.0581 -0.0281 -0.3671
 1010YOPC   GL114949   4.104   7.725   6.250  0.0751  0.2752 -0.0494
 1010YOPC   GL214950   3.846   7.581   6.383  0.0933 -0.0637  0.3481
 1010YOPC   C1A14951   4.154   7.650   6.736 -0.2387  0.0167  0.2363
 1010YOPC   D2A14952   4.128   7.669   7.137  0.0060  0.0129 -0.4219
 1010YOPC   C3A14953   4.377   7.779   7.455  0.1062 -0.1282 -0.0803
 1010YOPC   C4A14954   4.462   8.245   7.647 -0.0214  0.5030  0.0228
 1010YOPC   C1B14955   3.503   7.470   6.653  0.0818 -0.3780  0.1320
 1010YOPC   C2B14956   3.483   7.188   6.952  0.0205  0.1306 -0.1981
 1010YOPC   D3B14957   3.263   6.928   7.144 -0.0284 -0.0113 -0.2407
 1010YOPC   C4B14958   3.008   6.932   7.588  0.1032 -0.1661  0.3512
 1011YOPC   NC314959  12.103  14.652   5.548  0.2482 -0.1547  0.0295
 1011YOPC   PO414960  12.393  14.282   5.451 -0.2229 -0.0467 -0.2250
 1011YOPC   GL114961  12.173  14.231   5.768 -0.0966 -0.1001  0.2186
 1011YOPC   GL214962  12.279  14.030   5.955  0.0003  0.1391  0.1901
 1011YOPC   C1A14963  11.979  14.466   6.110  0.2101 -0.0353  0.0203
 1011YOPC   D2A14964  12.059  14.743   6.563 -0.1785  0.1563  0.1315
 1011YOPC   C3A14965  12.206  14.702   6.875  0.1664  0.0570 -0.1778
 1011YOPC   C4A14966  12.337  14.671   7.210  0.4559 -0.1757  0.1078
 1011YOPC   C1B14967  12.368  13.922   6.341  0.1471  0.0032  0.2308
 1011YOPC   C2B14968  12.731  13.948   6.584 -0.0463  0.0409 -0.1844
 1011YOPC   D3B14969  12.913  13.535   6.607 -0.1880  0.0179  0.1114
 1011YOPC   C4B14970  12.947  13.455   6.927  0.0348 -0.0139 -0.0621
 1012YOPC   NC314971   4.962   9.652   5.842 -0.3563 -0.0665  0.1866
 1012YOPC   PO414972   4.436   9.654   5.891 -0.0200 -0.0415 -0.0189
 1012YOPC   GL114973   4.634   9.844   6.315  0.2740 -0.0708 -0.1126
 1012YOPC   GL214974   4.742  10.174   6.293  0.1199  0.1652  0.0521
 1012YOPC   C1A14975   5.048   9.879   6.530 -0.0924 -0.3200  0.3255
 1012YOPC   D2A14976   5.037   9.839   6.996  0.2162 -0.3001  0.1320
 1012YOPC   C3A14977   5.284  10.031   7.278  0.1309 -0.0412  0.0770
 1012YOPC   C4A14978   5.420  10.015   7.709 -0.0961  0.0449  0.2262
 1012YOPC   C1B14979   4.807  10.233   6.800  0.3495 -0.1951 -0.0500
 1012YOPC   C2B14980   4.748  10.260   7.227  0.0001 -0.1827  0.2261
 1012YOPC   D3B14981   4.846  10.059   7.511  0.0695  0.1896  0.1245
 1012YOPC   C4B14982   5.053   9.650   7.535  0.2316  0.2221 -0.0652
 1013YOPC   NC314983   9.830  18.054   6.298  0.1770 -0.1000  0.0027
 1013YOPC   PO414984   9.778  18.405   6.259 -0.4404 -0.0772 -0.0356
 1013YOPC   GL114985   9.652  18.558   6.547 -0.1086  0.0174 -0.1426
 1013YOPC   GL214986   9.429  18.347   6.664 -0.3841 -0.0305 -0.0645
 1013YOPC   C1A14987   9.796  18.668   6.973  0.1648 -0.1745  0.1056
 1013YOPC   D2A14988  10.125  18.909   7.228 -0.0921 -0.1062 -0.1673
 1013YOPC   C3A14989  10.202  18.660   7.671 -0.1083 -0.0876  0.0483
 1013YOPC   C4A14990   9.803  18.532   7.978  0.2360 -0.0248  0.0535
 1013YOPC   C1B14991   9.287  18.614   7.053  0.4130 -0.0244 -0.1926
 1013YOPC   C2B14992   9.429  18.697   7.472 -0.0773  0.0822 -0.1611
 1013YOPC   D3B14993   9.788  18.922   7.578  0.1295 -0.2728 -0.0691
 1013YOPC   C4B14994  10.059  19.213   7.765 -0.1841  0.1319  0.1458
 1014YOPC   NC314995  13.886   5.174   5.762 -0.1039 -0.0154  0.0124
 1014YOPC   PO414996  14.338   5.083   5.865  0.0675  0.0901 -0.1782
 1014YOPC   GL114997  14.355   4.670   6.158 -0.1685  0.3635  0.0278
 1014YOPC   GL214998  14.137   4.500   6.171 -0.2021 -0.1192 -0.0611
 1014YOPC   C1A14999  14.260   4.674   6.599  0.1015  0.0573  0.3300
 1014YOPC   D2A15000  14.046   4.630   6.995 -0.0178  0.1507  0.3177
 1014YOPC   C3A15001  14.147   4.296   7.314  0.1638  0.5017  0.2542
 1014YOPC   C4A15002  14.111   3.919   7.519  0.0177 -0.3038  0.0385
 1014YOPC   C1B15003  14.099   4.229   6.442 -0.0528 -0.1239  0.0350
 1014YOPC   C2B15004  14.218   4.133   6.763 -0.0269 -0.0504 -0.2130
 1014YOPC   D3B15005  14.113   3.859   7.003 -0.1315  0.2419  0.2028
 1014YOPC   C4B15006  13.956   3.431   6.884  0.0982  0.2965 -0.3358
 1015YOPC   NC315007   5.070   3.510   5.969 -0.3107  0.1752 -0.4641
 1015YOPC   PO415008   5.205   3.101   6.100 -0.1150  0.0117  0.3598
 1015YOPC   GL115009   5.117   3.191   6.486 -0.0269 -0.0432  0.1711
 1015YOPC   GL215010   4.869   3.276   6.406 -0.3915  0.0266  0.2563
 1015YOPC   C1A15011   4.899   3.433   6.848  0.4440 -0.1448 -0.0695
 1015YOPC   D2A15012   4.874   3.707   7.241 -0.0259  0.0657  0.0455
 1015YOPC   C3A15013   4.798   3.635   7.698  0.1669  0.0661  0.2629
 1015YOPC   C4A15014   4.559   3.632   8.167  0.1051  0.0050  0.0035
 1015YOPC   C1B15015   4.661   3.000   6.728  0.3839 -0.3381 -0.0414
 1015YOPC   C2B15016   4.962   2.888   6.921 -0.0702  0.2007  0.2909
 1015YOPC   D3B15017   5.015   2.818   7.395 -0.2457  0.0852 -0.2441
 1015YOPC   C4B15018   4.681   2.794   7.788 -0.0923  0.0713  0.2145
 1016YOPC   NC315019  10.185   7.406   5.586 -0.1796  0.1718 -0.1729
 1016YOPC   PO415020  10.287   7.789   5.648  0.0538 -0.0640  0.2141
 1016YOPC   GL115021  10.479   7.570   6.042  0.0116 -0.1798 -0.1656
 1016YOPC   GL215022  10.443   7.344   6.037  0.0020 -0.1254  0.1789
 1016YOPC   C1A15023  10.718   7.466   6.406  0.2299  0.1881 -0.1643
 1016YOPC   D2A15024  10.896   7.326   6.854 -0.0006 -0.0639  0.1375
 1016YOPC   C3A15025  11.125   6.956   7.053 -0.0356 -0.0387  0.0394
 1016YOPC   C4A15026  11.393   6.536   7.140  0.2007 -0.4583  0.0523
 1016YOPC   C1B15027  10.554   6.938   6.253 -0.1033  0.1533 -0.0848
 1016YOPC   C2B15028  10.733   6.829   6.748  0.1975 -0.0110 -0.1917
 1016YOPC   D3B15029  10.649   6.529   7.005  0.1630 -0.1897  0.1017
 1016YOPC   C4B15030  10.569   6.163   7.290  0.0783 -0.3545  0.0636
 1017YOPC   NC315031  16.368  14.509   6.204 -0.0432 -0.0963 -0.2086
 1017YOPC   PO415032  16.137  14.814   6.131 -0.2428  0.0800  0.1161
 1017YOPC   GL115033  16.167  14.802   6.636 -0.2404  0.0868  0.1744
 1017YOPC   GL215034  16.514  14.831   6.685  0.1802  0.0512 -0.3449
 1017YOPC   C1A15035  16.168  14.875   7.128 -0.1148  0.2774  0.0566
 1017YOPC   D2A15036  15.835  14.930   7.498  0.1247  0.2659 -0.5107
 1017YOPC   C3A15037  15.807  14.623   7.792  0.2177  0.1059  0.0262
 1017YOPC   C4A15038  15.809  14.319   8.180  0.0301 -0.5698  0.0436
 1017YOPC   C1B15039  16.645  14.971   6.977  0.4657  0.3298 -0.1234
 1017YOPC   C2B15040  16.710  14.878   7.444  0.2001 -0.0474 -0.0849
 1017YOPC   D3B15041  16.317  14.826   7.690  0.0326 -0.1191 -0.0266
 1017YOPC   C4B15042  16.324  14.563   8.090 -0.3455  0.0608  0.3284
 1018YOPC   NC315043  15.143   5.889   5.669  0.1697  0.3155  0.2724
 1018YOPC   PO415044  14.843   6.068   5.930 -0.2976  0.2290  0.1792
 1018YOPC   GL115045  14.922   5.845   6.260  0.2027 -0.1117 -0.0059
 1018YOPC   GL215046  14.583   5.894   6.336  0.3282  0.1918  0.3636
 1018YOPC   C1A15047  15.023   5.783   6.695 -0.1344 -0.0304 -0.1896
 1018YOPC   D2A15048  15.055   6.097   7.003  0.3153 -0.0056  0.0404
 1018YOPC   C3A15049  15.054   6.084   7.417  0.1027 -0.2217 -0.0796
 1018YOPC   C4A15050  14.774   6.248   7.766  0.2397  0.0256  0.3285
 1018YOPC   C1B15051  14.202   6.089   6.628 -0.0460  0.0039 -0.2758
 1018YOPC   C2B15052  14.027   5.896   7.024 -0.0458  0.0683  0.0922
 1018YOPC   D3B15053  14.112   5.486   6.982  0.0595 -0.1739  0.0961
 1018YOPC   C4B15054  14.336   5.120   6.900 -0.3779 -0.2514 -0.1198
 1019YOPC   NC315055   2.425   7.433   5.700  0.2418 -0.0705  0.1670
 1019YOPC   PO415056   2.207   7.267   6.040 -0.1480 -0.1020 -0.1140
 1019YOPC   GL115057   2.178   7.209   6.477  0.2011  0.4675  0.2601
 1019YOPC   GL215058   2.488   7.297   6.514  0.4850 -0.1834  0.2561
 1019YOPC   C1A15059   2.195   7.141   6.997 -0.2501  0.1215  0.2073
 1019YOPC   D2A15060   2.293   7.149   7.405 -0.1220  0.1251  0.0906
 1019YOPC   C3A15061   2.537   6.733   7.631 -0.1756 -0.2358  0.0671
 1019YOPC   C4A15062   2.764   6.432   7.682 -0.0136  0.0725 -0.0707
 1019YOPC   C1B15063   2.793   7.492   6.712  0.2714  0.1575 -0.1435
 1019YOPC   C2B15064   3.094   7.582   6.969 -0.1482  0.1564  0.0852
 1019YOPC   D3B15065   3.064   7.475   7.394 -0.0074  0.2811  0.1437
 1019YOPC   C4B15066   2.749   7.342   7.708  0.0278  0.0977  0.2365
 1020YOPC   NC315067  16.971   2.059   5.264 -0.0429  0.0678  0.2348
 1020YOPC   PO415068  17.306   2.385   5.366 -0.3018  0.1735  0.2017
 1020YOPC   GL115069  17.110   2.417   5.733 -0.1418  0.1475  0.1340
 1020YOPC   GL215070  16.783   2.241   5.770 -0.2226  0.1813 -0.1425
 1020YOPC   C1A15071  17.229   2.639   6.056 -0.1973  0.2257  0.0112
 1020YOPC   D2A15072  17.105   2.723   6.531 -0.0681  0.3601 -0.1478
 1020YOPC   C3A15073  17.132   3.153   6.646  0.1932  0.4305  0.1712
 1020YOPC   C4A15074  16.888   3.398   6.879  0.0389  0.2396 -0.2243
 1020YOPC   C1B15075  17.078   2.175   6.121  0.0908  0.3471  0.0067
 1020YOPC   C2B15076  16.814   2.260   6.384  0.1204 -0.1904  0.0971
 1020YOPC   D3B15077  16.978   2.302   6.847 -0.1494  0.1787 -0.1664
 1020YOPC   C4B15078  16.993   2.528   7.251  0.0752  0.0567 -0.0655
 1021YOPC   NC315079  15.752  10.739   5.595 -0.0138  0.0139 -0.0037
 1021YOPC   PO415080  15.399  10.654   5.801  0.0567 -0.2543 -0.0858
 1021YOPC   GL115081  15.380  10.649   6.329 -0.1376 -0.1307  0.1735
 1021YOPC   GL215082  15.496  10.910   6.308  0.1276 -0.2280  0.0251
 1021YOPC   C1A15083  15.048  10.712   6.521  0.0893 -0.1481  0.2380
 1021YOPC   D2A15084  14.741  10.630   6.705 -0.0181 -0.0919  0.0628
 1021YOPC   C3A15085  14.767  10.615   7.066 -0.0123 -0.2005 -0.0881
 1021YOPC   C4A15086  14.728  10.743   7.468 -0.2325  0.1484  0.2420
 1021YOPC   C1B15087  15.342  11.094   6.630 -0.2873  0.2629 -0.1801
 1021YOPC   C2B15088  15.050  11.003   6.926  0.1247 -0.4070 -0.2030
 1021YOPC   D3B15089  15.100  10.961   7.263  0.2211 -0.1191  0.3239
 1021YOPC   C4B15090  15.159  10.898   7.668  0.1988 -0.2047  0.0662
 1022YOPC   NC315091   7.169  12.723   5.532 -0.1334 -0.2736 -0.0213
 1022YOPC   PO415092   6.980  12.286   5.824  0.0532 -0.1369  0.0931
 1022YOPC   GL115093   6.862  12.396   6.263 -0.0478  0.3467 -0.2254
 1022YOPC   GL215094   7.030  12.286   6.425 -0.1733  0.0597 -0.0146
 1022YOPC   C1A15095   6.691  12.582   6.728 -0.1164 -0.2242 -0.1117
 1022YOPC   D2A15096   6.583  12.683   7.208 -0.2208  0.1009  0.1019
 1022YOPC   C3A15097   6.913  12.723   7.466  0.2401  0.0864  0.1904
 1022YOPC   C4A15098   7.237  12.868   7.742  0.2091 -0.0593 -0.1019
 1022YOPC   C1B15099   7.421  12.286   6.713  0.4018  0.3688 -0.3222
 1022YOPC   C2B15100   7.532  12.209   7.128 -0.1443  0.0742 -0.0808
 1022YOPC   D3B15101   7.494  11.794   7.366  0.2262 -0.0412  0.1440
 1022YOPC   C4B15102   7.451  11.882   7.768 -0.1122  0.2383 -0.0073
 1023YOPC   NC315103   2.735  12.331   6.120 -0.0907  0.1659 -0.2559
 1023YOPC   PO415104   2.388  12.032   6.141  0.2270 -0.2103  0.2886
 1023YOPC   GL115105   2.238  12.173   6.520  0.0962 -0.1683  0.1056
 1023YOPC   GL215106   2.357  12.025   6.812  0.1606 -0.0662 -0.1535
 1023YOPC   C1A15107   2.201  12.597   6.834  0.1701  0.0281 -0.0635
 1023YOPC   D2A15108   2.164  12.879   7.212 -0.0724 -0.0933 -0.2014
 1023YOPC   C3A15109   2.130  13.037   7.621  0.0998 -0.0346  0.1336
 1023YOPC   C4A15110   2.112  13.085   8.006 -0.1681 -0.2329 -0.0152
 1023YOPC   C1B15111   2.277  12.281   7.251 -0.3065  0.0883 -0.1903
 1023YOPC   C2B15112   2.236  12.530   7.649 -0.0468 -0.2229  0.1316
 1023YOPC   D3B15113   2.140  12.496   8.095 -0.0686  0.4652  0.0174
 1023YOPC   C4B15114   1.871  12.731   8.376 -0.2508  0.0793 -0.2508
 1024YOPC   NC315115   9.563  12.188   5.354  0.0674 -0.0825  0.2595
 1024YOPC   PO415116   9.293  12.029   5.685  0.0974  0.2743  0.1646
 1024YOPC   GL115117   9.299  12.066   6.155  0.1620  0.2564 -0.1278
 1024YOPC   GL215118   9.089  11.768   6.171 -0.2536 -0.0600  0.4558
 1024YOPC   C1A15119   9.338  12.271   6.551 -0.1925 -0.0764  0.1087
 1024YOPC   D2A15120   9.376  12.615   6.760 -0.0904 -0.1086  0.0490
 1024YOPC   C3A15121   9.461  12.512   7.225  0.1510  0.0486  0.0023
 1024YOPC   C4A15122   9.542  12.677   7.672 -0.1066  0.0984 -0.0151
 1024YOPC   C1B15123   8.847  12.049   6.418  0.0919 -0.3128  0.1486
 1024YOPC   C2B15124   8.427  12.185   6.629  0.0694  0.2838 -0.1583
 1024YOPC   D3B15125   8.460  12.171   7.087  0.1105  0.2509 -0.2673
 1024YOPC   C4B15126   8.419  12.135   7.547 -0.1256 -0.0264  0.1466
 1025YOPC   NC315127   2.376   1.319   5.745  0.1239 -0.2160  0.0192
 1025YOPC   PO415128   2.256   0.947   5.909 -0.1112 -0.1937  0.0622
 1025YOPC   GL115129   2.452   1.105   6.212  0.4866 -0.0088 -0.1899
 1025YOPC   GL215130   2.647   1.162   6.383  0.0466 -0.0280  0.2154
 1025YOPC   C1A15131   2.186   1.224   6.545 -0.3067 -0.0125 -0.1883
 1025YOPC   D2A15132   1.706   1.338   6.655 -0.1480  0.1330 -0.1917
 1025YOPC   C3A15133   1.557   1.418   7.023  0.0921  0.0992  0.5630
 1025YOPC   C4A15134   1.587   1.592   7.422 -0.1732  0.0900 -0.3170
 1025YOPC   C1B15135   3.057   1.327   6.611 -0.0558  0.2435  0.2793
 1025YOPC   C2B15136   3.476   1.301   6.841 -0.0113  0.1586  0.1072
 1025YOPC   D3B15137   3.545   1.323   7.293 -0.1681  0.0922  0.1657
 1025YOPC   C4B15138   3.516   1.353   7.683 -0.0247  0.2907  0.0522
 1026YOPC   NC315139  12.124   9.417   5.771 -0.1263 -0.1343  0.2882
 1026YOPC   PO415140  12.557   9.161   5.861  0.1165 -0.2127  0.3370
 1026YOPC   GL115141  12.325   9.298   6.235 -0.0385  0.0513 -0.0894
 1026YOPC   GL215142  12.014   9.162   6.222 -0.1715 -0.3180 -0.1474
 1026YOPC   C1A15143  12.271   9.303   6.687 -0.0648  0.0260 -0.1878
 1026YOPC   D2A15144  12.397   9.182   7.162 -0.0475 -0.0736  0.0557
 1026YOPC   C3A15145  12.600   9.315   7.525 -0.0016 -0.1891  0.0184
 1026YOPC   C4A15146  12.813   9.397   7.960 -0.3619  0.2199  0.1733
 1026YOPC   C1B15147  11.795   9.262   6.542  0.2423 -0.0159 -0.0007
 1026YOPC   C2B15148  11.553   9.385   6.911 -0.2281 -0.3098 -0.0101
 1026YOPC   D3B15149  11.441   9.010   7.182 -0.1798  0.0263  0.2478
 1026YOPC   C4B15150  11.566   8.648   7.362 -0.0669  0.0550  0.0604
 1027YOPC   NC315151  13.360   6.275   5.527  0.2799  0.2025 -0.0636
 1027YOPC   PO415152  13.712   6.177   5.799 -0.2191 -0.2568  0.0419
 1027YOPC   GL115153  13.743   6.047   6.162  0.1271 -0.2464 -0.0778
 1027YOPC   GL215154  13.987   5.866   6.210  0.0930 -0.0266  0.1856
 1027YOPC   C1A15155  13.692   6.176   6.643 -0.0988  0.1232 -0.0112
 1027YOPC   D2A15156  13.636   6.235   7.148 -0.0985  0.5545  0.3914
 1027YOPC   C3A15157  13.577   6.642   7.264  0.1845  0.2221 -0.0961
 1027YOPC   C4A15158  13.411   6.730   7.544 -0.1649 -0.0854  0.0864
 1027YOPC   C1B15159  13.899   5.717   6.545 -0.2683  0.2197  0.0241
 1027YOPC   C2B15160  13.626   5.621   6.849  0.0397 -0.1564  0.0032
 1027YOPC   D3B15161  13.597   5.628   7.260 -0.0462  0.2908  0.2992
 1027YOPC   C4B15162  13.763   5.909   7.489 -0.0297  0.2341 -0.1158
 1028YOPC   NC315163   8.090  16.638   6.108  0.1823  0.2822  0.0166
 1028YOPC   PO415164   7.923  17.026   6.203  0.1281  0.2753 -0.0130
 1028YOPC   GL115165   8.067  17.512   6.355 -0.0737 -0.1053  0.0091
 1028YOPC   GL215166   7.900  17.873   6.445 -0.0515 -0.3024  0.2975
 1028YOPC   C1A15167   8.237  17.699   6.782  0.0310 -0.2282 -0.1101
 1028YOPC   D2A15168   8.268  17.472   7.170  0.0480 -0.1046 -0.1220
 1028YOPC   C3A15169   8.507  17.301   7.460  0.1472  0.0760  0.1876
 1028YOPC   C4A15170   8.939  17.480   7.521  0.1795 -0.2107 -0.0198
 1028YOPC   C1B15171   7.829  17.927   6.808  0.0053 -0.2167 -0.2226
 1028YOPC   C2B15172   8.089  18.044   7.141  0.6153 -0.2099 -0.1480
 1028YOPC   D3B15173   8.109  17.817   7.496 -0.0313  0.0212  0.2170
 1028YOPC   C4B15174   7.973  17.365   7.676 -0.0717 -0.0851  0.1941
 1029YOPC   NC315175  10.874  15.027   5.667  0.0352  0.3290 -0.1879
 1029YOPC   PO415176  11.086  14.747   5.556 -0.1087  0.0469 -0.2059
 1029YOPC   GL115177  11.179  14.541   5.912  0.2549  0.0877 -0.2216
 1029YOPC   GL215178  10.894  14.321   6.014 -0.0886 -0.3796 -0.2474
 1029YOPC   C1A15179  11.490  14.554   6.290 -0.0740  0.2954  0.0299
 1029YOPC   D2A15180  11.613  14.464   6.583 -0.1388  0.1356  0.1109
 1029YOPC   C3A15181  11.572  14.267   6.959  0.2762 -0.3099 -0.0320
 1029YOPC   C4A15182  11.565  14.048   7.428 -0.3638 -0.0510 -0.1390
 1029YOPC   C1B15183  10.745  14.395   6.501 -0.1191  0.1168  0.1151
 1029YOPC   C2B15184  10.657  14.565   6.795  0.2115  0.3735 -0.3160
 1029YOPC   D3B15185  10.826  14.823   7.114  0.0543  0.3723  0.0051
 1029YOPC   C4B15186  10.812  14.847   7.525  0.1085  0.0814 -0.1379
 1030YOPC   NC315187  11.700  15.478   5.359 -0.0486 -0.2314  0.2258
 1030YOPC   PO415188  11.908  15.109   5.552 -0.0584  0.2584 -0.4176
 1030YOPC   GL115189  11.945  14.960   5.952  0.0575 -0.0386  0.1672
 1030YOPC   GL215190  12.196  15.179   5.961 -0.0922  0.2629  0.0756
 1030YOPC   C1A15191  11.726  15.018   6.278  0.1283  0.2413 -0.0761
 1030YOPC   D2A15192  11.577  15.133   6.647  0.1339  0.0566  0.1222
 1030YOPC   C3A15193  11.757  14.795   6.996 -0.0550  0.4002  0.1471
 1030YOPC   C4A15194  11.851  14.539   7.300  0.0207 -0.1643 -0.0487
 1030YOPC   C1B15195  12.380  14.991   6.330  0.0334 -0.3740 -0.1124
 1030YOPC   C2B15196  12.635  14.907   6.647  0.2372  0.1668 -0.0666
 1030YOPC   D3B15197  12.735  14.953   7.028  0.1078  0.0999 -0.1574
 1030YOPC   C4B15198  12.715  14.946   7.449  0.0198  0.2895 -0.3101
 1031YOPC   NC315199  10.857   7.298   5.027 -0.0655 -0.2313  0.0871
 1031YOPC   PO415200  10.937   7.007   5.120  0.0482  0.1741  0.1040
 1031YOPC   GL115201  11.008   6.991   5.556 -0.2199 -0.3124 -0.0592
 1031YOPC   GL215202  11.259   6.881   5.713  0.1329  0.2286 -0.0043
 1031YOPC   C1A15203  10.938   7.242   5.904  0.3060  0.0043 -0.0155
 1031YOPC   D2A15204  11.035   7.640   6.058  0.3200 -0.2571 -0.0606
 1031YOPC   C3A15205  11.106   7.787   6.360  0.2330 -0.0223  0.0032
 1031YOPC   C4A15206  11.131   7.866   6.785  0.0344 -0.3064 -0.2070
 1031YOPC   C1B15207  11.605   6.910   6.087 -0.3468  0.1257 -0.2888
 1031YOPC   C2B15208  11.898   6.869   6.524  0.1140  0.0053  0.0270
 1031YOPC   D3B15209  11.754   6.937   6.962 -0.0536  0.0451  0.0428
 1031YOPC   C4B15210  11.509   7.163   7.299  0.1047 -0.0212 -0.2517
 1032YOPC   NC315211   2.143  13.837   6.107 -0.1596  0.0887  0.1969
 1032YOPC   PO415212   2.496  13.896   6.252  0.0350 -0.3419 -0.1765
 1032YOPC   GL115213   2.774  13.907   6.516  0.0874 -0.1555 -0.3124
 1032YOPC   GL215214   3.090  14.037   6.593  0.1392 -0.1263 -0.2110
 1032YOPC   C1A15215   2.660  14.131   6.920 -0.0873 -0.1962  0.1000
 1032YOPC   D2A15216   2.326  14.341   7.095  0.0410  0.1869  0.0820
 1032YOPC   C3A15217   2.298  14.329   7.490 -0.0911  0.1474 -0.0732
 1032YOPC   C4A15218   2.536  14.430   7.909  0.0468 -0.3129  0.3483
 1032YOPC   C1B15219   3.319  14.391   6.713 -0.0008  0.1458 -0.0777
 1032YOPC   C2B15220   3.575  14.487   7.031 -0.1789 -0.1426  0.3083
 1032YOPC   D3B15221   3.415  14.634   7.462  0.0973 -0.0408 -0.1438
 1032YOPC   C4B15222   3.584  14.541   7.867  0.2138  0.0145  0.1778
 1033YOPC   NC315223  13.153  11.804   5.485  0.2377  0.3139 -0.3777
 1033YOPC   PO415224  13.394  12.067   5.733 -0.3701  0.0388 -0.1286
 1033YOPC   GL115225  13.493  11.883   6.213  0.2272  0.3863  0.0994
 1033YOPC   GL215226  13.720  11.966   6.314 -0.5288 -0.0323  0.0109
 1033YOPC   C1A15227  13.345  11.991   6.657  0.0919  0.2556 -0.1648
 1033YOPC   D2A15228  13.055  11.801   6.887 -0.1292  0.1939  0.1526
 1033YOPC   C3A15229  12.716  12.098   7.023  0.1333  0.0553  0.2709
 1033YOPC   C4A15230  12.375  12.003   7.426 -0.1490 -0.1111 -0.3036
 1033YOPC   C1B15231  13.872  12.255   6.668 -0.6079  0.1769  0.4419
 1033YOPC   C2B15232  13.816  12.378   7.140  0.1844  0.1566 -0.3154
 1033YOPC   D3B15233  13.787  12.319   7.663  0.0619 -0.1405 -0.2691
 1033YOPC   C4B15234  13.722  12.129   8.056  0.0565  0.3316  0.3352
 1034YOPC   NC315235  11.433  11.810   5.886 -0.3918 -0.0393 -0.1233
 1034YOPC   PO415236  11.792  12.028   5.842 -0.0652  0.0903  0.2779
 1034YOPC   GL115237  11.919  11.856   6.276  0.3140  0.0123 -0.0747
 1034YOPC   GL215238  11.646  11.636   6.307 -0.1774  0.1581 -0.0638
 1034YOPC   C1A15239  12.005  11.765   6.677 -0.2024  0.2160  0.1598
 1034YOPC   D2A15240  12.066  11.884   7.005  0.0817  0.0529  0.0262
 1034YOPC   C3A15241  11.859  11.634   7.372  0.1229 -0.1308 -0.0067
 1034YOPC   C4A15242  11.769  11.284   7.568  0.0511 -0.0826  0.4460
 1034YOPC   C1B15243  11.588  11.506   6.795  0.1320  0.1354 -0.0100
 1034YOPC   C2B15244  11.429  11.525   7.152 -0.1599  0.2717 -0.1562
 1034YOPC   D3B15245  11.365  11.544   7.551  0.0953  0.1738  0.2774
 1034YOPC   C4B15246  11.570  11.713   7.853 -0.1050  0.0865  0.2950
 1035YOPC   NC315247  17.640   1.494   5.590  0.0250 -0.0952  0.0084
 1035YOPC   PO415248  17.969   1.838   5.842  0.0734 -0.0824  0.1071
 1035YOPC   GL115249  17.612   1.693   6.133 -0.3439  0.3098 -0.3005
 1035YOPC   GL215250  17.493   1.921   6.355 -0.0095  0.1150 -0.2553
 1035YOPC   C1A15251  17.704   1.575   6.612 -0.3261  0.3389  0.2102
 1035YOPC   D2A15252  17.896   1.699   6.969  0.1703 -0.0512  0.1102
 1035YOPC   C3A15253  18.267   1.626   7.196  0.1720  0.0000  0.2051
 1035YOPC   C4A15254  18.276   1.457   7.610  0.1627  0.0790  0.1776
 1035YOPC   C1B15255  17.396   1.933   6.801  0.3024 -0.3327  0.0386
 1035YOPC   C2B15256  17.468   1.871   7.223  0.3308  0.1483  0.3942
 1035YOPC   D3B15257  17.884   1.974   7.415  0.5280  0.0597  0.0112
 1035YOPC   C4B15258  18.241   2.025   7.573  0.0379  0.0498 -0.3220
 1036YOPC   NC315259   9.174  10.933   5.611  0.0707 -0.0059  0.1475
 1036YOPC   PO415260   8.810  11.106   5.605  0.2726 -0.0085 -0.1741
 1036YOPC   GL115261   8.843  11.207   6.044  0.3256 -0.1191  0.2490
 1036YOPC   GL215262   9.094  11.329   6.064 -0.1395 -0.3120 -0.1573
 1036YOPC   C1A15263   8.879  10.916   6.437 -0.0016 -0.2884  0.0892
 1036YOPC   D2A15264   8.892  10.652   6.704 -0.3824  0.0094  0.1732
 1036YOPC   C3A15265   8.640  10.771   7.053 -0.2429 -0.4425  0.2684
 1036YOPC   C4A15266   8.600  10.870   7.472 -0.0442  0.0187 -0.1782
 1036YOPC   C1B15267   9.077  11.359   6.493  0.2518 -0.0613 -0.1073
 1036YOPC   C2B15268   8.914  11.237   6.897  0.1581 -0.0125  0.1035
 1036YOPC   D3B15269   9.048  11.498   7.206 -0.2493  0.2700  0.0995
 1036YOPC   C4B15270   8.783  11.360   7.558  0.2029  0.1410  0.0776
 1037YOPC   NC315271   8.568   0.691   5.766 -0.0602 -0.0710  0.0038
 1037YOPC   PO415272   8.703   0.382   6.094 -0.1442 -0.1514 -0.3507
 1037YOPC   GL115273   8.505   0.728   6.325 -0.3986  0.1230 -0.1388
 1037YOPC   GL215274   8.716   0.874   6.179  0.0098  0.2355 -0.2545
 1037YOPC   C1A15275   8.400   0.980   6.685 -0.0059  0.1520  0.3441
 1037YOPC   D2A15276   8.408   0.908   7.140 -0.1631  0.1059  0.1070
 1037YOPC   C3A15277   8.302   1.183   7.443 -0.0101  0.1261 -0.1264
 1037YOPC   C4A15278   8.181   1.256   7.890 -0.1846 -0.3327 -0.1564
 1037YOPC   C1B15279   8.854   1.165   6.566 -0.0092  0.1245  0.0032
 1037YOPC   C2B15280   8.858   1.249   6.874  0.0878 -0.0228 -0.0160
 1037YOPC   D3B15281   8.779   1.300   7.307 -0.1513  0.2818  0.3658
 1037YOPC   C4B15282   9.096   1.334   7.680  0.0231  0.1689  0.1025
 1038YOPC   NC315283  11.541  10.185   5.883 -0.0540 -0.3262 -0.0519
 1038YOPC   PO415284  11.978  10.439   5.816  0.0240 -0.0253 -0.0022
 1038YOPC   GL115285  12.097  10.418   6.195 -0.2172  0.1301 -0.1255
 1038YOPC   GL215286  12.217  10.159   6.303 -0.0962  0.1347  0.1484
 1038YOPC   C1A15287  11.826  10.556   6.509  0.2748 -0.2325 -0.0396
 1038YOPC   D2A15288  11.718  10.977   6.752 -0.0466  0.0863  0.0019
 1038YOPC   C3A15289  11.663  10.963   7.044 -0.1256 -0.2422  0.1635
 1038YOPC   C4A15290  11.345  11.016   7.289 -0.0101 -0.0291  0.1605
 1038YOPC   C1B15291  12.076  10.187   6.760 -0.1733 -0.0728  0.2028
 1038YOPC   C2B15292  12.090  10.083   7.174  0.0076  0.2137 -0.0704
 1038YOPC   D3B15293  12.098  10.381   7.445  0.0568  0.0420  0.1985
 1038YOPC   C4B15294  12.019  10.863   7.406 -0.3390  0.4274  0.0484
 1039YOPC   NC315295   7.703   9.901   5.167 -0.2533 -0.2942  0.1587
 1039YOPC   PO415296   7.619  10.269   5.500 -0.4181 -0.0487 -0.0372
 1039YOPC   GL115297   7.734  10.021   5.915  0.2316 -0.2850 -0.4406
 1039YOPC   GL215298   7.597  10.125   6.280  0.0568  0.0553 -0.2080
 1039YOPC   C1A15299   8.082  10.243   6.231 -0.2959  0.3246  0.1059
 1039YOPC   D2A15300   8.423  10.561   6.413  0.1331  0.1513  0.0423
 1039YOPC   C3A15301   8.341  10.938   6.319 -0.0683 -0.0737 -0.4018
 1039YOPC   C4A15302   8.575  11.413   6.487  0.0843  0.0690  0.0104
 1039YOPC   C1B15303   7.521  10.539   6.604 -0.1454 -0.0479  0.2419
 1039YOPC   C2B15304   7.679  10.743   7.035  0.0131  0.0734 -0.4185
 1039YOPC   D3B15305   7.472  10.790   7.349 -0.2351 -0.0808 -0.2833
 1039YOPC   C4B15306   7.491  10.548   7.748  0.0135 -0.3461  0.0678
 1040YOPC   NC315307  15.782   6.973   5.802  0.0375 -0.0072 -0.1691
 1040YOPC   PO415308  16.257   6.974   5.752  0.0063  0.3886 -0.1911
 1040YOPC   GL115309  16.270   6.759   6.172 -0.1168  0.0272  0.3053
 1040YOPC   GL215310  16.149   6.427   6.214 -0.2594 -0.1651  0.2426
 1040YOPC   C1A15311  16.314   6.614   6.653  0.1950 -0.3128 -0.0907
 1040YOPC   D2A15312  15.954   6.295   6.821 -0.0067  0.0827 -0.1520
 1040YOPC   C3A15313  15.918   6.026   7.214 -0.3980 -0.3878  0.3827
 1040YOPC   C4A15314  15.548   5.976   7.485  0.0321  0.0186  0.0752
 1040YOPC   C1B15315  16.237   6.054   6.484 -0.1515 -0.3056 -0.0628
 1040YOPC   C2B15316  16.227   5.784   6.805  0.2608  0.1707 -0.0298
 1040YOPC   D3B15317  16.363   5.770   7.208 -0.0019 -0.2847  0.1780
 1040YOPC   C4B15318  16.339   5.672   7.670  0.0946  0.0782  0.1575
 1041YOPC   NC315319  13.086  10.934   5.991 -0.1361 -0.0195  0.1053
 1041YOPC   PO415320  13.171  11.420   5.801 -0.2018  0.0890 -0.0559
 1041YOPC   GL115321  13.171  11.520   6.189  0.1193 -0.1339 -0.1745
 1041YOPC   GL215322  12.985  11.535   6.414  0.1310  0.2145 -0.0270
 1041YOPC   C1A15323  13.491  11.517   6.535  0.5279 -0.1118 -0.4485
 1041YOPC   D2A15324  13.560  11.414   6.963 -0.0097 -0.1820 -0.1174
 1041YOPC   C3A15325  13.260  11.590   7.299  0.1562  0.1247  0.0638
 1041YOPC   C4A15326  12.944  11.895   7.434  0.0262  0.0253  0.1236
 1041YOPC   C1B15327  12.864  11.931   6.431  0.0667 -0.1706  0.1749
 1041YOPC   C2B15328  12.954  12.317   6.575 -0.3533  0.0523  0.2679
 1041YOPC   D3B15329  12.643  12.690   6.645 -0.1196 -0.0521 -0.1486
 1041YOPC   C4B15330  12.746  13.039   6.434 -0.1949  0.1111  0.1261
 1042YOPC   NC315331  11.372   1.111   5.941  0.0722  0.0312  0.1838
 1042YOPC   PO415332  11.561   1.448   5.784 -0.0032 -0.2440  0.0531
 1042YOPC   GL115333  11.567   1.553   6.205  0.1339 -0.0343  0.1550
 1042YOPC   GL215334  11.780   1.746   6.200  0.1220  0.1639  0.1502
 1042YOPC   C1A15335  11.323   1.407   6.653  0.0150  0.0539 -0.4560
 1042YOPC   D2A15336  11.127   1.086   6.827  0.0965  0.2404  0.0871
 1042YOPC   C3A15337  11.048   1.039   7.285  0.0203 -0.1067  0.2424
 1042YOPC   C4A15338  11.068   0.843   7.606  0.1209 -0.2807  0.1406
 1042YOPC   C1B15339  11.812   1.653   6.654  0.0310  0.2894 -0.2619
 1042YOPC   C2B15340  11.703   1.847   7.084 -0.1194  0.1825  0.0708
 1042YOPC   D3B15341  12.057   1.852   7.382  0.2624  0.1467  0.0445
 1042YOPC   C4B15342  12.430   1.801   7.400  0.0112 -0.2760 -0.2488
 1043YOPC   NC315343   8.936  13.558   5.601  0.2534 -0.1584 -0.2244
 1043YOPC   PO415344   8.973  12.982   5.746 -0.1017 -0.2196  0.2121
 1043YOPC   GL115345   9.040  13.000   6.174  0.2740 -0.1567  0.1348
 1043YOPC   GL215346   9.231  12.851   6.341 -0.3381 -0.0472 -0.0272
 1043YOPC   C1A15347   8.644  13.137   6.426 -0.1555  0.0990 -0.0755
 1043YOPC   D2A15348   8.622  12.957   6.874  0.3219  0.1922 -0.1289
 1043YOPC   C3A15349   8.699  13.274   7.174  0.2974 -0.1656  0.0579
 1043YOPC   C4A15350   8.669  13.231   7.586 -0.1711 -0.3432 -0.0910
 1043YOPC   C1B15351   9.039  13.071   6.725  0.0130 -0.1701 -0.2801
 1043YOPC   C2B15352   9.070  12.915   7.155  0.0216 -0.2775 -0.0311
 1043YOPC   D3B15353   9.277  13.142   7.371 -0.0670 -0.2863  0.1067
 1043YOPC   C4B15354   9.434  13.166   7.763 -0.0072 -0.0646  0.3175
 1044YOPC   NC315355   5.835  13.457   6.147 -0.0576 -0.0225 -0.0162
 1044YOPC   PO415356   5.944  13.915   6.198 -0.1016  0.0908 -0.1004
 1044YOPC   GL115357   5.785  13.954   6.510 -0.2960  0.1111  0.0182
 1044YOPC   GL215358   5.440  14.121   6.558  0.0990 -0.0496 -0.1009
 1044YOPC   C1A15359   5.879  13.828   7.000 -0.2959  0.2418 -0.1556
 1044YOPC   D2A15360   5.949  13.814   7.516 -0.0791 -0.2701  0.3194
 1044YOPC   C3A15361   6.071  14.145   7.677 -0.3014 -0.3011  0.2052
 1044YOPC   C4A15362   6.280  14.459   7.435  0.1972  0.0368 -0.1954
 1044YOPC   C1B15363   5.532  14.203   6.956  0.0989  0.0739 -0.0642
 1044YOPC   C2B15364   5.701  14.191   7.334  0.0713 -0.1120  0.3003
 1044YOPC   D3B15365   5.507  14.135   7.681 -0.0214  0.1514  0.1453
 1044YOPC   C4B15366   5.243  13.851   7.957 -0.1404 -0.0175  0.0366
 1045YOPC   NC315367   1.256  17.550   5.904 -0.0255 -0.2915  0.1525
 1045YOPC   PO415368   1.581  17.250   6.095 -0.2043  0.1308 -0.0718
 1045YOPC   GL115369   1.573  17.295   6.580  0.3482 -0.0477 -0.0190
 1045YOPC   GL215370   1.673  17.045   6.806 -0.0453  0.1732 -0.0873
 1045YOPC   C1A15371   1.268  17.426   6.966  0.1013 -0.1955 -0.1007
 1045YOPC   D2A15372   1.243  17.697   7.260 -0.1863  0.1708  0.0607
 1045YOPC   C3A15373   0.911  17.614   7.561  0.0254 -0.0645 -0.1945
 1045YOPC   C4A15374   0.883  17.628   8.015  0.0735 -0.1156 -0.1167
 1045YOPC   C1B15375   1.473  17.028   7.216  0.0165 -0.1363 -0.2534
 1045YOPC   C2B15376   1.312  17.283   7.462 -0.1335 -0.0114 -0.0147
 1045YOPC   D3B15377   1.033  17.179   7.820 -0.1242  0.0750 -0.4571
 1045YOPC   C4B15378   1.068  17.222   8.236  0.3173 -0.0075  0.4447
 1046YOPC   NC315379   4.743   5.930   5.441 -0.1336  0.0010 -0.1360
 1046YOPC   PO415380   4.304   5.915   5.636 -0.0954  0.2726 -0.1385
 1046YOPC   GL115381   4.446   5.998   6.124  0.2726 -0.1307  0.1032
 1046YOPC   GL215382   4.512   6.379   6.131 -0.1255  0.0275 -0.1467
 1046YOPC   C1A15383   4.553   5.874   6.560 -0.0113  0.1306  0.0253
 1046YOPC   D2A15384   4.680   5.495   6.871  0.0574  0.1923 -0.0346
 1046YOPC   C3A15385   5.120   5.356   6.922 -0.3155 -0.1842 -0.1253
 1046YOPC   C4A15386   5.217   5.221   7.359  0.0869 -0.1227  0.0676
 1046YOPC   C1B15387   4.390   6.349   6.539 -0.0058  0.1123  0.3046
 1046YOPC   C2B15388   4.470   6.297   6.944  0.2791 -0.0789 -0.0986
 1046YOPC   D3B15389   4.395   6.208   7.426 -0.3061 -0.0905  0.0152
 1046YOPC   C4B15390   4.250   5.958   7.960  0.0970  0.0202 -0.1837
 1047YOPC   NC315391  15.271  17.213   6.058 -0.2724  0.2317  0.1598
 1047YOPC   PO415392  15.402  16.815   5.986  0.2252 -0.1490  0.3757
 1047YOPC   GL115393  15.556  16.862   6.392 -0.0057  0.3235  0.2286
 1047YOPC   GL215394  15.718  16.570   6.564 -0.0324 -0.2412  0.3090
 1047YOPC   C1A15395  15.371  16.827   6.740  0.1848  0.1994  0.3860
 1047YOPC   D2A15396  15.304  17.110   7.030 -0.3189  0.2450  0.1802
 1047YOPC   C3A15397  15.297  16.928   7.455  0.1952 -0.0265  0.0218
 1047YOPC   C4A15398  15.132  16.951   7.869 -0.1315 -0.1708  0.2230
 1047YOPC   C1B15399  15.768  16.417   6.918  0.0484  0.0515  0.1731
 1047YOPC   C2B15400  15.664  16.601   7.356 -0.1335  0.2695  0.0178
 1047YOPC   D3B15401  15.586  16.229   7.757 -0.0571 -0.1541 -0.0908
 1047YOPC   C4B15402  15.470  15.950   8.085  0.1001  0.0882  0.0647
 1048YOPC   NC315403   0.685  14.153   6.171  0.0581 -0.2519  0.1331
 1048YOPC   PO415404   1.080  14.073   6.237 -0.0207  0.2657 -0.0015
 1048YOPC   GL115405   1.020  14.366   6.477 -0.2138  0.0082 -0.6402
 1048YOPC   GL215406   0.725  14.169   6.676 -0.1029 -0.1042 -0.0640
 1048YOPC   C1A15407   0.930  14.618   6.887  0.2697 -0.0367  0.1771
 1048YOPC   D2A15408   0.768  14.653   7.254  0.2599 -0.1881 -0.2310
 1048YOPC   C3A15409   1.069  14.636   7.515 -0.1675  0.1383 -0.3973
 1048YOPC   C4A15410   1.173  14.473   7.936 -0.0393  0.1640  0.0455
 1048YOPC   C1B15411   0.688  14.184   7.083 -0.2937 -0.3559 -0.2517
 1048YOPC   C2B15412   0.683  14.205   7.520  0.1667 -0.0588  0.1448
 1048YOPC   D3B15413   0.683  14.480   7.889 -0.3836  0.2267  0.2823
 1048YOPC   C4B15414   0.435  14.759   8.007 -0.0189  0.0425  0.0564
 1049YOPC   NC315415   5.158   8.114   5.534 -0.2353  0.0451 -0.1994
 1049YOPC   PO415416   4.952   8.003   5.874 -0.0434 -0.2706 -0.1205
 1049YOPC   GL115417   5.124   8.090   6.240 -0.2038 -0.0318  0.0496
 1049YOPC   GL215418   4.972   8.041   6.444 -0.1767  0.1281 -0.1084
 1049YOPC   C1A15419   5.409   7.747   6.382 -0.2492  0.3433 -0.0686
 1049YOPC   D2A15420   5.885   7.771   6.390 -0.0649 -0.2065  0.2128
 1049YOPC   C3A15421   6.157   7.555   6.809  0.3209 -0.0557 -0.2612
 1049YOPC   C4A15422   6.432   7.265   6.863  0.1058 -0.2544 -0.3612
 1049YOPC   C1B15423   4.796   8.155   6.784  0.2947 -0.0306  0.0383
 1049YOPC   C2B15424   4.735   8.368   7.208 -0.1433  0.0354  0.0333
 1049YOPC   D3B15425   4.902   8.315   7.551  0.2271  0.0816 -0.1103
 1049YOPC   C4B15426   5.284   8.138   7.823 -0.1921 -0.0205  0.2427
 1050YOPC   NC315427  16.045  12.877   5.878  0.3981  0.1004 -0.2187
 1050YOPC   PO415428  16.434  12.727   6.007  0.1399  0.0950  0.0661
 1050YOPC   GL115429  16.640  12.807   6.433 -0.1387 -0.3362 -0.0628
 1050YOPC   GL215430  17.083  12.770   6.389 -0.2014  0.0836  0.1287
 1050YOPC   C1A15431  16.589  13.217   6.666  0.1513  0.1301  0.0928
 1050YOPC   D2A15432  16.379  13.537   6.843  0.0090  0.2848  0.1191
 1050YOPC   C3A15433  16.142  13.515   7.174 -0.0179 -0.2360 -0.1507
 1050YOPC   C4A15434  15.781  13.498   7.571  0.1529 -0.0296  0.0004
 1050YOPC   C1B15435  16.938  12.808   6.812 -0.3595  0.3420  0.1849
 1050YOPC   C2B15436  16.941  13.037   7.123  0.0697  0.0421  0.0944
 1050YOPC   D3B15437  17.139  13.140   7.542  0.1460  0.1433  0.1446
 1050YOPC   C4B15438  17.574  13.075   7.710  0.1254  0.0222  0.2032
 1051YOPC   NC315439   9.687   5.018   5.777 -0.2634  0.0218  0.1790
 1051YOPC   PO415440   9.645   4.621   5.911 -0.0280 -0.0957  0.0804
 1051YOPC   GL115441   9.338   4.885   6.108 -0.3125 -0.2283 -0.2537
 1051YOPC   GL215442   9.025   4.736   6.144 -0.0628  0.0354  0.1141
 1051YOPC   C1A15443   9.364   5.039   6.444 -0.0653 -0.0320  0.2994
 1051YOPC   D2A15444   9.426   5.124   6.852  0.0508 -0.1740  0.0256
 1051YOPC   C3A15445   8.992   5.216   7.002 -0.0491 -0.1085  0.0608
 1051YOPC   C4A15446   8.656   5.271   7.150  0.1736  0.1588  0.3164
 1051YOPC   C1B15447   9.241   4.474   6.437  0.1843 -0.4075  0.2481
 1051YOPC   C2B15448   9.538   4.630   6.688 -0.0662  0.0335  0.2035
 1051YOPC   D3B15449   9.597   4.483   7.025 -0.2497 -0.1177 -0.0352
 1051YOPC   C4B15450   9.473   4.109   7.292  0.1478  0.1889 -0.1894
 1052YOPC   NC315451   8.587   1.867   5.996 -0.3046 -0.1456  0.1699
 1052YOPC   PO415452   8.250   1.643   5.802 -0.0185  0.1999  0.0865
 1052YOPC   GL115453   8.246   1.713   6.287 -0.3323 -0.1912  0.2218
 1052YOPC   GL215454   8.394   1.961   6.468 -0.0519  0.4455  0.1180
 1052YOPC   C1A15455   8.019   1.661   6.738 -0.0590 -0.2921  0.0407
 1052YOPC   D2A15456   8.073   1.864   7.196  0.0835  0.1818  0.0715
 1052YOPC   C3A15457   7.998   2.256   7.377  0.0208 -0.0589  0.1887
 1052YOPC   C4A15458   8.317   2.611   7.581  0.0215 -0.2518  0.0374
 1052YOPC   C1B15459   8.513   1.870   6.826 -0.0360 -0.2539  0.0677
 1052YOPC   C2B15460   8.900   1.738   6.936  0.0015  0.2981  0.0039
 1052YOPC   D3B15461   9.324   1.890   6.950 -0.0937 -0.2287  0.3177
 1052YOPC   C4B15462   9.767   1.980   7.116 -0.1275 -0.0440 -0.0922
 1053YOPC   NC315463   4.127   3.117   5.884  0.1484  0.0422 -0.1360
 1053YOPC   PO415464   3.784   2.968   6.179  0.1002  0.0652  0.2999
 1053YOPC   GL115465   3.966   3.461   6.295  0.2233 -0.0917 -0.0644
 1053YOPC   GL215466   3.741   3.781   6.242  0.0291  0.0625 -0.1681
 1053YOPC   C1A15467   4.003   3.710   6.718 -0.0772  0.2992  0.0904
 1053YOPC   D2A15468   3.873   3.458   7.086  0.2039 -0.2621 -0.2736
 1053YOPC   C3A15469   3.775   3.294   7.594  0.0643 -0.4535 -0.0111
 1053YOPC   C4A15470   3.801   3.220   7.927  0.0062  0.1892  0.1913
 1053YOPC   C1B15471   3.427   3.827   6.617  0.0734  0.0279 -0.2944
 1053YOPC   C2B15472   3.472   4.073   6.996 -0.0611  0.0367  0.0550
 1053YOPC   D3B15473   3.668   3.803   7.392  0.2686 -0.1597  0.3605
 1053YOPC   C4B15474   3.803   3.786   7.829 -0.2104  0.1512  0.2471
 1054YOPC   NC315475  13.344  12.547   5.745 -0.0606 -0.0804 -0.1583
 1054YOPC   PO415476  13.686  12.833   5.555  0.2500 -0.0747 -0.2038
 1054YOPC   GL115477  13.885  12.613   5.927 -0.1364  0.3488 -0.2029
 1054YOPC   GL215478  13.733  12.382   5.977 -0.0206  0.0325  0.1023
 1054YOPC   C1A15479  14.022  12.666   6.343  0.0997 -0.0515  0.0387
 1054YOPC   D2A15480  14.283  12.914   6.640  0.1634 -0.0927  0.0909
 1054YOPC   C3A15481  14.361  13.027   7.042 -0.0960 -0.1449  0.1041
 1054YOPC   C4A15482  14.455  12.982   7.481  0.0390  0.1605 -0.1199
 1054YOPC   C1B15483  13.511  12.492   6.392 -0.0244  0.1037 -0.0993
 1054YOPC   C2B15484  13.453  12.459   6.833  0.0719 -0.1323  0.2822
 1054YOPC   D3B15485  12.957  12.536   7.040 -0.0100  0.2992 -0.1509
 1054YOPC   C4B15486  12.689  12.368   7.417 -0.1550  0.0195 -0.2186
 1055YOPC   NC315487  11.259   5.913   4.813  0.0100 -0.0661 -0.5148
 1055YOPC   PO415488  11.484   5.955   5.177 -0.2714  0.2804 -0.0515
 1055YOPC   GL115489  11.297   5.820   5.605 -0.3104 -0.2870 -0.1761
 1055YOPC   GL215490  10.946   5.902   5.795  0.0033  0.0866 -0.0788
 1055YOPC   C1A15491  11.427   5.694   6.038 -0.4113  0.2155 -0.1176
 1055YOPC   D2A15492  11.542   5.455   6.384 -0.2470  0.0111 -0.1757
 1055YOPC   C3A15493  11.878   5.583   6.591  0.1371 -0.0185  0.0982
 1055YOPC   C4A15494  11.945   5.920   6.744  0.0038  0.2022  0.2712
 1055YOPC   C1B15495  11.075   5.987   6.209  0.0801 -0.0724 -0.0353
 1055YOPC   C2B15496  11.067   5.758   6.609  0.0118 -0.0907  0.3303
 1055YOPC   D3B15497  11.030   6.126   7.072  0.0298  0.1148 -0.2602
 1055YOPC   C4B15498  11.242   6.165   7.430 -0.0842 -0.2392 -0.0101
 1056YOPC   NC315499  11.095   2.108   5.524  0.2745 -0.1271 -0.1432
 1056YOPC   PO415500  11.445   2.314   5.653 -0.0004 -0.1514  0.4395
 1056YOPC   GL115501  11.860   2.438   5.895  0.0453  0.1703 -0.0246
 1056YOPC   GL215502  11.711   2.281   6.150  0.1617 -0.1079  0.0801
 1056YOPC   C1A15503  12.058   2.685   6.092  0.0663 -0.2152  0.1171
 1056YOPC   D2A15504  12.119   2.898   6.439 -0.1824 -0.0716  0.2600
 1056YOPC   C3A15505  11.948   2.686   6.805 -0.0900 -0.0179 -0.0133
 1056YOPC   C4A15506  11.941   2.722   7.349 -0.0533  0.0835 -0.0148
 1056YOPC   C1B15507  11.636   2.105   6.542  0.3002 -0.0361 -0.3875
 1056YOPC   C2B15508  11.516   2.336   6.929  0.2075  0.3149  0.0222
 1056YOPC   D3B15509  11.702   2.274   7.267 -0.1439  0.0492 -0.2281
 1056YOPC   C4B15510  11.839   2.255   7.677 -0.0072  0.1787 -0.1711
 1057YOPC   NC315511   7.001   4.194   5.695 -0.0918 -0.1966  0.2133
 1057YOPC   PO415512   6.934   4.430   6.050  0.1416 -0.0115 -0.0963
 1057YOPC   GL115513   7.081   4.628   6.465  0.2698 -0.2080  0.1307
 1057YOPC   GL215514   7.028   4.901   6.432  0.0609  0.3112  0.1915
 1057YOPC   C1A15515   6.919   4.261   6.684 -0.0688  0.1775 -0.0723
 1057YOPC   D2A15516   6.840   4.048   7.048 -0.1206  0.3175 -0.1011
 1057YOPC   C3A15517   6.902   3.937   7.473 -0.1654  0.0014  0.0062
 1057YOPC   C4A15518   7.078   3.701   7.841 -0.0244 -0.0017  0.0806
 1057YOPC   C1B15519   7.056   5.095   6.690  0.2693 -0.0948  0.2642
 1057YOPC   C2B15520   7.105   5.228   7.082 -0.0568 -0.1204  0.0951
 1057YOPC   D3B15521   6.858   4.974   7.481  0.1782  0.1413 -0.1387
 1057YOPC   C4B15522   6.460   4.970   7.520  0.1918 -0.0754 -0.2105
 1058YOPC   NC315523  16.173  11.892   5.634  0.2541 -0.0224 -0.0408
 1058YOPC   PO415524  15.837  11.656   5.805 -0.1633 -0.0964  0.1743
 1058YOPC   GL115525  15.871  11.614   6.239 -0.1205 -0.2170 -0.2388
 1058YOPC   GL215526  15.913  11.272   6.403 -0.0154  0.0397 -0.0883
 1058YOPC   C1A15527  15.847  11.629   6.757  0.1625  0.2870  0.1940
 1058YOPC   D2A15528  15.681  11.793   7.141 -0.0513  0.1383  0.0586
 1058YOPC   C3A15529  15.750  11.833   7.490 -0.0752  0.1194 -0.4980
 1058YOPC   C4A15530  15.790  11.802   7.906  0.0825  0.1281  0.0237
 1058YOPC   C1B15531  15.844  11.154   6.782 -0.2092  0.1995  0.1785
 1058YOPC   C2B15532  15.439  11.250   7.122  0.0401 -0.1967  0.0579
 1058YOPC   D3B15533  15.689  11.368   7.443 -0.0308 -0.0448 -0.0976
 1058YOPC   C4B15534  16.045  11.415   7.598 -0.1886 -0.2910  0.0394
 1059YOPC   NC315535   9.401  13.510   5.165 -0.2034 -0.1258 -0.1257
 1059YOPC   PO415536   9.412  13.403   5.516  0.1101 -0.3041 -0.3308
 1059YOPC   GL115537   9.308  13.467   5.954  0.1306  0.2077 -0.0927
 1059YOPC   GL215538   9.463  13.384   6.247  0.0051 -0.2550 -0.0189
 1059YOPC   C1A15539   9.013  13.579   6.303 -0.1645 -0.2199 -0.0265
 1059YOPC   D2A15540   8.971  13.996   6.478 -0.0224  0.0944  0.1247
 1059YOPC   C3A15541   9.122  13.980   6.905  0.2496 -0.3032 -0.3013
 1059YOPC   C4A15542   9.300  14.348   7.122 -0.2506  0.1941 -0.1333
 1059YOPC   C1B15543   9.420  13.525   6.644  0.0637 -0.2708  0.2308
 1059YOPC   C2B15544   9.762  13.600   6.836 -0.2421  0.1697 -0.1492
 1059YOPC   D3B15545   9.830  13.516   7.287  0.0326  0.0875  0.2066
 1059YOPC   C4B15546   9.999  13.371   7.690 -0.1540 -0.0569 -0.2045
 1060YOPC   NC315547   1.320   2.500   5.745  0.0603 -0.2338  0.1689
 1060YOPC   PO415548   1.653   2.667   5.815 -0.0519  0.0167  0.1223
 1060YOPC   GL115549   1.368   2.634   6.180 -0.2609  0.1887  0.0830
 1060YOPC   GL215550   1.751   2.507   6.285 -0.3289  0.2033  0.3285
 1060YOPC   C1A15551   1.183   2.417   6.540  0.2610 -0.1143  0.1392
 1060YOPC   D2A15552   0.912   2.139   6.668 -0.1114  0.0491  0.3494
 1060YOPC   C3A15553   1.055   1.744   6.812  0.0607 -0.1806 -0.0809
 1060YOPC   C4A15554   1.315   1.919   7.211  0.1066  0.0034  0.1490
 1060YOPC   C1B15555   1.673   2.511   6.688 -0.0543 -0.3591  0.0900
 1060YOPC   C2B15556   1.471   2.446   6.975 -0.1044  0.2412 -0.0416
 1060YOPC   D3B15557   1.620   2.459   7.323  0.1252 -0.0884 -0.2496
 1060YOPC   C4B15558   1.790   2.482   7.745  0.0511  0.0793 -0.0635
 1061YOPC   NC315559   9.129   9.080   5.497 -0.0112  0.1005 -0.1428
 1061YOPC   PO415560   8.971   9.450   5.562  0.1170 -0.1602 -0.1571
 1061YOPC   GL115561   8.976   9.593   5.940  0.1331  0.1998 -0.1207
 1061YOPC   GL215562   9.257   9.507   6.031 -0.0672  0.2802  0.1688
 1061YOPC   C1A15563   8.853   9.906   6.175 -0.1401 -0.0721  0.0493
 1061YOPC   D2A15564   8.968  10.252   6.400  0.0478 -0.1542 -0.2950
 1061YOPC   C3A15565   9.329  10.422   6.708 -0.2236  0.2452  0.1544
 1061YOPC   C4A15566   9.474  10.182   7.040 -0.0413 -0.1827 -0.0710
 1061YOPC   C1B15567   9.238   9.789   6.441 -0.2433 -0.0587 -0.0028
 1061YOPC   C2B15568   9.082   9.905   6.772 -0.0211  0.1972 -0.2701
 1061YOPC   D3B15569   9.209   9.732   7.199  0.0747 -0.0302  0.0520
 1061YOPC   C4B15570   9.300   9.782   7.649 -0.3272 -0.0976  0.1309
 1062YOPC   NC315571   8.549   5.685   5.536 -0.1354  0.1140 -0.1201
 1062YOPC   PO415572   8.347   5.302   5.682  0.0371 -0.0762  0.2208
 1062YOPC   GL115573   8.631   5.343   6.095  0.2231  0.2188 -0.2112
 1062YOPC   GL215574   8.873   5.174   6.165  0.2278  0.3815 -0.0689
 1062YOPC   C1A15575   8.538   5.364   6.565  0.2226 -0.1687 -0.1746
 1062YOPC   D2A15576   8.386   5.648   6.911 -0.1055 -0.0034  0.1830
 1062YOPC   C3A15577   8.529   5.776   7.320  0.2104 -0.1023 -0.1797
 1062YOPC   C4A15578   8.617   5.806   7.799  0.1443  0.0777  0.2211
 1062YOPC   C1B15579   8.869   5.004   6.523 -0.0662  0.0416 -0.1121
 1062YOPC   C2B15580   8.973   4.705   6.742  0.3982 -0.2913 -0.1651
 1062YOPC   D3B15581   9.123   4.688   7.051  0.2998  0.0343 -0.2633
 1062YOPC   C4B15582   9.191   4.475   7.453  0.3755 -0.2874 -0.1396
 1063YOPC   NC315583  11.265  16.785   5.801 -0.0575 -0.1091 -0.0516
 1063YOPC   PO415584  10.827  16.683   5.781  0.1779  0.1356  0.1238
 1063YOPC   GL115585  10.851  16.691   6.264 -0.1511  0.3516  0.0796
 1063YOPC   GL215586  10.621  16.713   6.434  0.2500  0.0222 -0.3402
 1063YOPC   C1A15587  11.096  16.645   6.587 -0.3869  0.3100  0.0830
 1063YOPC   D2A15588  11.155  17.042   6.854  0.0324 -0.1146  0.1558
 1063YOPC   C3A15589  11.447  17.199   7.219 -0.5224  0.0080  0.1602
 1063YOPC   C4A15590  11.818  17.209   7.355  0.0437  0.0360  0.2344
 1063YOPC   C1B15591  10.677  16.779   6.908  0.0586 -0.2499 -0.1923
 1063YOPC   C2B15592  10.433  16.932   7.250  0.1696 -0.3490  0.1751
 1063YOPC   D3B15593  10.583  16.803   7.647  0.0654  0.1285 -0.0192
 1063YOPC   C4B15594  10.747  16.470   7.855 -0.1298 -0.0902  0.0160
 1064YOPC   NC315595  14.939  15.486   5.455 -0.0020 -0.1246  0.0609
 1064YOPC   PO415596  14.668  15.297   5.711  0.1348  0.2211 -0.0308
 1064YOPC   GL115597  14.720  15.319   6.198  0.2348  0.3034 -0.0821
 1064YOPC   GL215598  14.678  15.528   6.328 -0.1542  0.3800  0.0622
 1064YOPC   C1A15599  14.713  14.966   6.476  0.0541  0.1552 -0.2685
 1064YOPC   D2A15600  14.814  14.683   6.804 -0.1989 -0.4279  0.1768
 1064YOPC   C3A15601  14.625  14.604   7.260  0.0667  0.2168  0.2563
 1064YOPC   C4A15602  14.543  14.491   7.688 -0.0408 -0.1270 -0.1326
 1064YOPC   C1B15603  14.570  15.421   6.762  0.0914 -0.0432  0.3098
 1064YOPC   C2B15604  14.146  15.620   6.849  0.3650  0.6408  0.0203
 1064YOPC   D3B15605  14.047  15.596   7.181  0.0983  0.1358  0.1135
 1064YOPC   C4B15606  14.074  15.396   7.561 -0.2671  0.0677  0.5090
 1065YOPC   NC315607   2.493   3.477   5.640 -0.1287 -0.2295 -0.1334
 1065YOPC   PO415608   2.361   3.151   5.613  0.2086 -0.0361 -0.0330
 1065YOPC   GL115609   2.388   3.251   6.160  0.1270 -0.0837  0.0660
 1065YOPC   GL215610   2.371   3.531   6.129 -0.1252 -0.1900 -0.2556
 1065YOPC   C1A15611   2.444   3.149   6.618  0.2792  0.0130  0.2170
 1065YOPC   D2A15612   2.305   2.961   7.049 -0.0886 -0.0169  0.0707
 1065YOPC   C3A15613   2.340   3.116   7.374 -0.1758  0.0552  0.1142
 1065YOPC   C4A15614   2.430   3.212   7.744  0.1114 -0.0070  0.0230
 1065YOPC   C1B15615   2.575   3.611   6.589  0.0137  0.2765 -0.1061
 1065YOPC   C2B15616   2.571   3.431   6.979 -0.0908 -0.1282  0.0364
 1065YOPC   D3B15617   2.843   3.673   7.153 -0.1884  0.2546 -0.0404
 1065YOPC   C4B15618   3.175   3.875   7.420  0.0280  0.0891 -0.1637
 1066YOPC   NC315619   0.944   9.441   5.763  0.0343  0.0102 -0.1546
 1066YOPC   PO415620   1.259   9.310   5.988 -0.2416 -0.2869 -0.0800
 1066YOPC   GL115621   0.954   9.348   6.352 -0.0946 -0.0678 -0.3304
 1066YOPC   GL215622   0.684   9.201   6.256 -0.0472  0.1197 -0.0551
 1066YOPC   C1A15623   0.884   9.089   6.738  0.0578  0.0452 -0.0315
 1066YOPC   D2A15624   0.950   8.772   6.940  0.5651  0.0018 -0.0304
 1066YOPC   C3A15625   1.241   8.705   7.345 -0.1481  0.1757 -0.3583
 1066YOPC   C4A15626   1.274   8.787   7.718 -0.0379 -0.0139 -0.3317
 1066YOPC   C1B15627   0.393   9.018   6.516  0.2811 -0.2297  0.1716
 1066YOPC   C2B15628   0.480   8.672   6.850  0.0379 -0.1587 -0.1148
 1066YOPC   D3B15629   0.720   8.407   6.688  0.1427  0.1577 -0.0255
 1066YOPC   C4B15630   1.030   8.070   6.589 -0.0292  0.0051 -0.0792
 1067YOPC   NC315631   0.259   8.151   5.730  0.1170  0.2606  0.0367
 1067YOPC   PO415632  -0.077   8.401   5.947 -0.0156  0.3317 -0.1367
 1067YOPC   GL115633  -0.340   8.306   6.310 -0.0215  0.1193 -0.4263
 1067YOPC   GL215634  -0.411   8.569   6.297 -0.3168  0.0610  0.2080
 1067YOPC   C1A15635  -0.438   8.256   6.756  0.2843 -0.1814  0.1719
 1067YOPC   D2A15636  -0.636   8.464   7.094 -0.1340  0.0018  0.1672
 1067YOPC   C3A15637  -0.592   8.801   7.267  0.1358 -0.1752  0.2917
 1067YOPC   C4A15638  -0.496   9.109   7.495  0.1127  0.0758  0.0611
 1067YOPC   C1B15639  -0.027   8.824   6.411  0.2350  0.0077  0.3013
 1067YOPC   C2B15640   0.014   9.265   6.693  0.3686 -0.1363  0.0996
 1067YOPC   D3B15641   0.315   9.228   6.914  0.1447  0.0390  0.1459
 1067YOPC   C4B15642   0.627   9.056   7.226 -0.1594  0.1940  0.0144
 1068YOPC   NC315643   5.339  16.179   5.695  0.1070 -0.0939 -0.2316
 1068YOPC   PO415644   5.328  16.002   6.067 -0.2424  0.1121 -0.1682
 1068YOPC   GL115645   5.512  15.847   6.427  0.1297  0.0395 -0.1024
 1068YOPC   GL215646   5.818  15.764   6.352 -0.2287 -0.0880  0.0925
 1068YOPC   C1A15647   5.687  15.814   6.898  0.0115 -0.1794 -0.0278
 1068YOPC   D2A15648   5.878  15.863   7.360  0.0770 -0.1695 -0.0598
 1068YOPC   C3A15649   5.711  16.018   7.687  0.1371  0.0392  0.0578
 1068YOPC   C4A15650   5.588  16.249   7.994 -0.0698  0.0757 -0.0493
 1068YOPC   C1B15651   6.167  15.635   6.651  0.2931 -0.0012  0.1412
 1068YOPC   C2B15652   6.495  15.829   6.622  0.3069 -0.0991  0.2480
 1068YOPC   D3B15653   6.733  15.776   6.893  0.0515  0.1655 -0.0486
 1068YOPC   C4B15654   6.742  15.814   7.308 -0.1500  0.2139 -0.2219
 1069YOPC   NC315655   6.424  14.103   6.220 -0.1717  0.1073  0.1533
 1069YOPC   PO415656   6.514  13.694   6.279  0.2467 -0.0212  0.3034
 1069YOPC   GL115657   6.749  13.858   6.581  0.0206  0.0093 -0.0723
 1069YOPC   GL215658   6.690  14.278   6.634  0.0761  0.0961  0.2733
 1069YOPC   C1A15659   6.879  13.935   7.047 -0.1918  0.0815 -0.0624
 1069YOPC   D2A15660   6.974  13.794   7.381 -0.1616  0.0853  0.1724
 1069YOPC   C3A15661   7.041  14.054   7.652 -0.1573  0.0695  0.2265
 1069YOPC   C4A15662   7.125  14.051   8.042  0.1216  0.1206  0.0768
 1069YOPC   C1B15663   6.537  14.442   6.978  0.0088  0.0781 -0.0567
 1069YOPC   C2B15664   6.771  14.358   7.387 -0.0981 -0.0738  0.0586
 1069YOPC   D3B15665   6.575  14.177   7.725  0.0120  0.0699 -0.2465
 1069YOPC   C4B15666   6.324  13.915   8.040  0.0725  0.2292 -0.0748
 1070YOPC   NC315667  12.879  16.243   5.250  0.1271  0.3521  0.0898
 1070YOPC   PO415668  12.718  16.502   5.537  0.2314  0.0526 -0.2875
 1070YOPC   GL115669  12.701  16.261   5.995  0.1303 -0.4128 -0.1914
 1070YOPC   GL215670  12.627  16.602   6.090 -0.0081  0.2716 -0.1426
 1070YOPC   C1A15671  12.639  16.116   6.403 -0.4252 -0.2099 -0.1272
 1070YOPC   D2A15672  12.873  15.931   6.665  0.2403 -0.2164 -0.0202
 1070YOPC   C3A15673  13.215  16.055   6.947 -0.1271 -0.2933  0.0316
 1070YOPC   C4A15674  13.275  16.502   7.218  0.3233  0.1211  0.3788
 1070YOPC   C1B15675  12.739  16.783   6.435  0.1467  0.1989  0.2232
 1070YOPC   C2B15676  12.641  16.575   6.698  0.0985  0.3519  0.0375
 1070YOPC   D3B15677  12.466  16.725   7.040 -0.1113  0.0212 -0.3194
 1070YOPC   C4B15678  12.149  16.635   7.280 -0.0308  0.0652 -0.0361
 1071YOPC   NC315679   1.528   8.659   5.925 -0.1507 -0.3075 -0.0330
 1071YOPC   PO415680   1.517   8.262   6.148  0.2009  0.1318  0.1010
 1071YOPC   GL115681   1.407   8.347   6.572  0.3610  0.1020 -0.0670
 1071YOPC   GL215682   1.172   8.616   6.520 -0.1459 -0.1344  0.0434
 1071YOPC   C1A15683   1.135   8.343   6.987 -0.1190  0.1724  0.0829
 1071YOPC   D2A15684   1.060   8.072   7.263 -0.0863  0.1209 -0.2079
 1071YOPC   C3A15685   1.051   8.309   7.668 -0.0370 -0.1586 -0.0148
 1071YOPC   C4A15686   0.981   8.215   8.116 -0.1252  0.1387  0.3780
 1071YOPC   C1B15687   1.418   8.794   6.850 -0.2591  0.2554 -0.2009
 1071YOPC   C2B15688   1.750   8.947   6.934 -0.2179  0.3998  0.3846
 1071YOPC   D3B15689   1.692   8.945   7.329 -0.0007 -0.2633  0.1640
 1071YOPC   C4B15690   1.808   8.786   7.679  0.0267 -0.0266 -0.0514
 1072YOPC   NC315691  16.015  10.058   5.952  0.2500  0.1057 -0.3822
 1072YOPC   PO415692  16.348  10.306   5.757 -0.2656  0.0400 -0.0565
 1072YOPC   GL115693  16.606  10.591   5.988 -0.0580 -0.3317 -0.0820
 1072YOPC   GL215694  16.436  10.801   6.185 -0.2853  0.2573 -0.0399
 1072YOPC   C1A15695  16.800  10.337   6.245  0.0551 -0.2269  0.1729
 1072YOPC   D2A15696  17.185  10.111   6.346 -0.0036 -0.3527  0.0446
 1072YOPC   C3A15697  17.236   9.906   6.711 -0.2580  0.0715 -0.0294
 1072YOPC   C4A15698  17.056   9.582   6.866  0.0900  0.0746  0.0454
 1072YOPC   C1B15699  16.136  10.803   6.502  0.0076 -0.0007  0.1794
 1072YOPC   C2B15700  15.784  10.506   6.663  0.0388  0.0986 -0.0277
 1072YOPC   D3B15701  15.509  10.705   6.925  0.2345  0.1074  0.0865
 1072YOPC   C4B15702  15.574  10.807   7.381  0.0073  0.1612  0.2384
 1073YOPC   NC315703   3.783  14.394   6.068 -0.1434 -0.0058 -0.0732
 1073YOPC   PO415704   4.102  14.662   6.190  0.2278  0.0337 -0.1986
 1073YOPC   GL115705   4.102  14.677   6.636  0.2096 -0.3267 -0.0683
 1073YOPC   GL215706   4.032  15.030   6.654 -0.0516 -0.0004  0.2346
 1073YOPC   C1A15707   4.124  14.457   7.042  0.2365  0.2148  0.0540
 1073YOPC   D2A15708   4.283  14.459   7.473 -0.0220 -0.0931 -0.1971
 1073YOPC   C3A15709   4.086  14.512   7.812 -0.0667  0.2778  0.1110
 1073YOPC   C4A15710   3.867  14.366   8.218  0.1493  0.1203 -0.1133
 1073YOPC   C1B15711   3.826  14.989   6.980  0.1313  0.0823 -0.0155
 1073YOPC   C2B15712   3.920  14.751   7.411 -0.0556 -0.1044  0.0189
 1073YOPC   D3B15713   3.802  14.246   7.468 -0.1440  0.1736  0.2363
 1073YOPC   C4B15714   3.771  13.835   7.483  0.0914 -0.2443 -0.1591
 1074YOPC   NC315715  17.726   3.203   5.532  0.1935  0.2036 -0.2207
 1074YOPC   PO415716  18.050   2.904   5.611  0.2542 -0.0312  0.1153
 1074YOPC   GL115717  18.027   2.891   6.065  0.0760  0.1787 -0.0140
 1074YOPC   GL215718  18.069   2.730   6.266  0.0950 -0.2434 -0.0551
 1074YOPC   C1A15719  18.074   3.210   6.342  0.2747  0.0206 -0.2281
 1074YOPC   D2A15720  17.825   3.516   6.470 -0.3171 -0.0581 -0.1439
 1074YOPC   C3A15721  17.574   3.798   6.256  0.1026 -0.2450  0.1806
 1074YOPC   C4A15722  17.082   3.884   6.072  0.0169 -0.0109 -0.1655
 1074YOPC   C1B15723  17.857   2.729   6.697 -0.0415 -0.1135  0.2175
 1074YOPC   C2B15724  17.840   2.871   7.183 -0.0881 -0.1485 -0.2392
 1074YOPC   D3B15725  17.990   2.562   7.538  0.1959  0.0974  0.0021
 1074YOPC   C4B15726  17.863   2.271   7.837 -0.0011  0.2758 -0.2401
 1075YOPC   NC315727  14.725   2.619   5.675  0.0462  0.1467 -0.1958
 1075YOPC   PO415728  15.026   2.634   6.080  0.1423  0.1549 -0.0785
 1075YOPC   GL115729  15.210   2.775   6.467 -0.0862 -0.1747  0.2091
 1075YOPC   GL215730  15.265   2.539   6.581 -0.0756  0.2133  0.0567
 1075YOPC   C1A15731  15.249   3.099   6.786 -0.0873 -0.0887 -0.1392
 1075YOPC   D2A15732  15.108   3.215   7.206  0.0995  0.0595 -0.1624
 1075YOPC   C3A15733  14.832   3.525   7.341  0.0433  0.2647 -0.0092
 1075YOPC   C4A15734  14.378   3.516   7.365 -0.1822 -0.1923 -0.3886
 1075YOPC   C1B15735  15.537   2.615   6.827  0.2319 -0.0884  0.2010
 1075YOPC   C2B15736  15.646   2.983   7.131 -0.1196 -0.2020  0.0907
 1075YOPC   D3B15737  15.570   3.218   7.619  0.0182  0.2455  0.0473
 1075YOPC   C4B15738  15.357   3.292   7.955  0.0130 -0.4637  0.3828
 1076YOPC   NC315739  12.637   1.144   5.937 -0.0632  0.1419 -0.2404
 1076YOPC   PO415740  12.933   1.130   5.758  0.1055 -0.0119  0.0640
 1076YOPC   GL115741  13.070   0.912   6.219 -0.1511  0.2108  0.1564
 1076YOPC   GL215742  13.231   0.563   6.156  0.3991  0.1215  0.0042
 1076YOPC   C1A15743  13.342   1.112   6.539 -0.1764  0.2374  0.0387
 1076YOPC   D2A15744  13.463   0.972   6.979 -0.1541 -0.1122 -0.0590
 1076YOPC   C3A15745  13.196   1.109   7.192  0.1316  0.0026 -0.1196
 1076YOPC   C4A15746  13.140   1.344   7.607  0.1221 -0.1187 -0.0522
 1076YOPC   C1B15747  13.267   0.585   6.538  0.1358 -0.0016 -0.1449
 1076YOPC   C2B15748  13.034   0.679   6.901 -0.2287 -0.1073  0.0053
 1076YOPC   D3B15749  12.861   1.124   6.751  0.0346 -0.0896  0.0413
 1076YOPC   C4B15750  12.488   1.177   6.903  0.2256  0.0656 -0.0488
 1077YOPC   NC315751  15.550  12.938   6.132 -0.1914  0.0731 -0.2158
 1077YOPC   PO415752  15.245  13.198   5.895  0.2224  0.0907 -0.1236
 1077YOPC   GL115753  14.987  13.382   6.191  0.3303 -0.0617  0.0080
 1077YOPC   GL215754  14.968  13.442   6.481  0.0016  0.0512 -0.0664
 1077YOPC   C1A15755  14.642  13.720   6.225  0.0726  0.1412 -0.1378
 1077YOPC   D2A15756  14.324  13.906   6.309  0.0340 -0.1960 -0.0000
 1077YOPC   C3A15757  14.249  13.892   6.766  0.2730 -0.0447 -0.0813
 1077YOPC   C4A15758  13.941  14.152   6.898 -0.4486  0.0962  0.1173
 1077YOPC   C1B15759  14.828  13.884   6.669 -0.2260  0.1881  0.0886
 1077YOPC   C2B15760  14.675  14.214   6.534  0.0394 -0.2560 -0.0096
 1077YOPC   D3B15761  14.340  14.421   6.759  0.5152 -0.0900  0.0279
 1077YOPC   C4B15762  14.118  14.568   7.060 -0.1452  0.0240 -0.2402
 1078YOPC   NC315763   9.317   3.496   5.440 -0.0203  0.0514  0.0263
 1078YOPC   PO415764   9.714   3.690   5.674 -0.0305 -0.0669  0.2649
 1078YOPC   GL115765   9.714   3.714   6.117  0.0781  0.1101  0.1681
 1078YOPC   GL215766   9.914   3.916   6.077  0.0536 -0.0107 -0.0572
 1078YOPC   C1A15767   9.507   4.059   6.332  0.1523 -0.3952 -0.1961
 1078YOPC   D2A15768   9.467   4.042   6.785  0.0943 -0.3191 -0.2130
 1078YOPC   C3A15769   9.153   4.203   6.877  0.0552 -0.0687 -0.3971
 1078YOPC   C4A15770   8.730   4.335   7.142  0.0948 -0.1077  0.0645
 1078YOPC   C1B15771  10.258   4.011   6.354 -0.0624  0.2741 -0.1026
 1078YOPC   C2B15772  10.585   4.207   6.584  0.0107 -0.2467  0.0155
 1078YOPC   D3B15773  10.566   4.031   6.945  0.1535  0.0383  0.0200
 1078YOPC   C4B15774  10.334   3.796   7.210 -0.4765 -0.4375  0.0841
 1079YOPC   NC315775  15.571   6.561   5.315  0.2263  0.1886 -0.2368
 1079YOPC   PO415776  15.501   6.286   5.632  0.1578  0.2022 -0.2311
 1079YOPC   GL115777  15.296   6.091   6.110  0.0400  0.2863 -0.0471
 1079YOPC   GL215778  15.481   5.802   6.169  0.0904  0.3039  0.1090
 1079YOPC   C1A15779  15.133   6.249   6.463 -0.1349  0.0018 -0.3137
 1079YOPC   D2A15780  15.073   6.657   6.639  0.1569  0.1453 -0.1329
 1079YOPC   C3A15781  15.002   6.620   7.108 -0.0205  0.3198  0.0618
 1079YOPC   C4A15782  14.989   6.648   7.598 -0.1858 -0.1585  0.0424
 1079YOPC   C1B15783  15.877   5.605   6.443  0.0829  0.1842 -0.3001
 1079YOPC   C2B15784  16.018   5.311   6.528 -0.3016  0.1218 -0.2586
 1079YOPC   D3B15785  15.708   5.062   6.600  0.1218 -0.0091 -0.1555
 1079YOPC   C4B15786  15.511   4.603   6.654  0.0262  0.0455 -0.1627
 1080YOPC   NC315787  14.166  11.428   5.870 -0.0251  0.0709  0.1712
 1080YOPC   PO415788  14.054  10.968   5.950 -0.0010  0.1075  0.0661
 1080YOPC   GL115789  13.868  10.768   6.325  0.0190  0.1205 -0.0099
 1080YOPC   GL215790  13.649  10.911   6.511 -0.1785  0.2465 -0.3574
 1080YOPC   C1A15791  13.687  10.364   6.518  0.3364  0.1194  0.0448
 1080YOPC   D2A15792  13.504  10.372   6.907  0.1286  0.2044 -0.0375
 1080YOPC   C3A15793  13.657  10.361   7.313 -0.1461 -0.1525  0.1287
 1080YOPC   C4A15794  13.874  10.358   7.700  0.2859  0.0502  0.1125
 1080YOPC   C1B15795  13.748  10.802   6.958  0.0533 -0.1441 -0.1907
 1080YOPC   C2B15796  13.514  10.950   7.137  0.0719 -0.2097  0.1448
 1080YOPC   D3B15797  13.586  11.279   7.435 -0.0864  0.0564  0.2873
 1080YOPC   C4B15798  13.980  11.385   7.666  0.3786  0.0861  0.0139
 1081YOPC   NC315799   7.582  15.339   5.698 -0.1316  0.0172 -0.0579
 1081YOPC   PO415800   7.651  15.376   6.034  0.1153  0.1074 -0.2308
 1081YOPC   GL115801   7.866  15.160   6.372  0.1114 -0.0279  0.0208
 1081YOPC   GL215802   7.790  14.812   6.597 -0.0295  0.0131  0.0853
 1081YOPC   C1A15803   8.212  15.115   6.707  0.0242  0.1851  0.1435
 1081YOPC   D2A15804   8.450  15.147   7.111 -0.0959  0.0333  0.2130
 1081YOPC   C3A15805   8.858  15.132   7.189  0.0026  0.1981 -0.3898
 1081YOPC   C4A15806   9.190  15.365   7.230 -0.2337 -0.1676  0.0647
 1081YOPC   C1B15807   8.041  14.796   7.077  0.1305  0.1261 -0.0443
 1081YOPC   C2B15808   8.148  14.859   7.544 -0.1739  0.1202  0.3173
 1081YOPC   D3B15809   8.450  15.101   7.600  0.3536  0.0418  0.2069
 1081YOPC   C4B15810   8.470  15.617   7.756  0.1515 -0.0854 -0.0239
 1082YOPC   NC315811   4.893   2.890   5.765  0.2703  0.0234 -0.0956
 1082YOPC   PO415812   4.710   3.162   5.889  0.1483  0.4033 -0.0902
 1082YOPC   GL115813   4.525   3.481   6.166  0.1657 -0.0607  0.0643
 1082YOPC   GL215814   4.729   3.775   6.308 -0.5272  0.0792  0.2649
 1082YOPC   C1A15815   4.431   3.427   6.548 -0.2031  0.2033  0.1510
 1082YOPC   D2A15816   4.392   3.319   7.005 -0.0754 -0.2151 -0.1441
 1082YOPC   C3A15817   4.313   3.508   7.381  0.3014 -0.1590 -0.1233
 1082YOPC   C4A15818   4.221   3.507   7.773 -0.1622  0.0151  0.0841
 1082YOPC   C1B15819   4.877   3.935   6.721  0.3152  0.1359 -0.2307
 1082YOPC   C2B15820   4.905   4.173   7.128 -0.1327  0.1631 -0.1592
 1082YOPC   D3B15821   4.555   4.115   7.420 -0.2395  0.0271 -0.2713
 1082YOPC   C4B15822   4.411   3.963   7.803  0.1639  0.0452 -0.2306
 1083YOPC   NC315823   5.068  15.598   6.094 -0.0893 -0.2027 -0.3058
 1083YOPC   PO415824   5.202  15.107   6.266 -0.1443  0.1147 -0.2400
 1083YOPC   GL115825   5.130  15.427   6.585  0.3955 -0.2178  0.0861
 1083YOPC   GL215826   4.830  15.756   6.541 -0.3213 -0.4106  0.0935
 1083YOPC   C1A15827   5.320  15.541   6.989  0.1040  0.0659  0.0096
 1083YOPC   D2A15828   5.489  15.587   7.395 -0.0454 -0.0567 -0.4481
 1083YOPC   C3A15829   5.570  15.565   7.817 -0.1818  0.0586  0.3802
 1083YOPC   C4A15830   5.809  15.603   8.306  0.0465  0.0442  0.0705
 1083YOPC   C1B15831   4.817  15.654   6.940  0.0261  0.1989  0.0890
 1083YOPC   C2B15832   4.909  15.700   7.414 -0.0449 -0.3062  0.0410
 1083YOPC   D3B15833   5.088  15.529   7.737 -0.1386 -0.0632 -0.0067
 1083YOPC   C4B15834   5.280  15.202   8.016  0.3021  0.1635 -0.0836
 1084YOPC   NC315835  11.643   3.666   5.261  0.1789  0.2223 -0.0986
 1084YOPC   PO415836  11.700   3.319   5.391  0.6447 -0.3240  0.2213
 1084YOPC   GL115837  11.680   3.632   5.790  0.1824  0.1728 -0.0627
 1084YOPC   GL215838  11.647   3.941   5.874  0.1096  0.1209  0.3806
 1084YOPC   C1A15839  11.354   3.560   6.032  0.0788 -0.3186 -0.3910
 1084YOPC   D2A15840  11.119   3.480   6.372  0.0507  0.0625 -0.0920
 1084YOPC   C3A15841  11.183   3.622   6.801  0.2731 -0.0815  0.0595
 1084YOPC   C4A15842  11.237   3.839   7.167 -0.2380  0.0053 -0.3226
 1084YOPC   C1B15843  11.795   3.871   6.285 -0.2521 -0.4417 -0.1877
 1084YOPC   C2B15844  12.044   3.830   6.622 -0.2136 -0.1256  0.2412
 1084YOPC   D3B15845  11.881   3.714   7.028  0.2118  0.2586  0.0602
 1084YOPC   C4B15846  11.980   3.769   7.501 -0.2675  0.2599  0.1481
 1085YOPC   NC315847   5.202   2.196   5.964  0.3324 -0.0400 -0.0298
 1085YOPC   PO415848   5.505   1.986   6.145  0.0580  0.1218 -0.2192
 1085YOPC   GL115849   5.847   1.989   6.405  0.1179  0.1957  0.0251
 1085YOPC   GL215850   5.659   1.750   6.609  0.1394 -0.2356  0.1386
 1085YOPC   C1A15851   6.073   1.929   6.801  0.1196 -0.0370 -0.0697
 1085YOPC   D2A15852   6.472   1.938   6.880 -0.0911 -0.1573  0.4506
 1085YOPC   C3A15853   6.802   1.795   7.211 -0.1666  0.1019  0.2023
 1085YOPC   C4A15854   7.150   1.621   7.200 -0.1259 -0.4267  0.0053
 1085YOPC   C1B15855   5.353   1.873   6.920  0.3527  0.1213 -0.1529
 1085YOPC   C2B15856   5.420   1.779   7.410  0.0732 -0.0663  0.1776
 1085YOPC   D3B15857   5.321   2.058   7.856 -0.0563  0.3837  0.0271
 1085YOPC   C4B15858   5.342   2.280   8.208 -0.3737  0.0700 -0.0130
 1086YOPC   NC315859  12.898   0.265   5.845 -0.0554 -0.0614 -0.1297
 1086YOPC   PO415860  12.700   0.631   5.992 -0.1306 -0.0824 -0.0711
 1086YOPC   GL115861  12.776   0.543   6.405 -0.0147  0.0880  0.1845
 1086YOPC   GL215862  12.797   0.246   6.664 -0.4626  0.0081 -0.0439
 1086YOPC   C1A15863  12.514   0.663   6.834  0.2346 -0.2198  0.0439
 1086YOPC   D2A15864  12.159   0.809   7.086 -0.0651 -0.0771 -0.3082
 1086YOPC   C3A15865  12.176   0.905   7.511 -0.1239  0.1463  0.2584
 1086YOPC   C4A15866  11.923   0.998   7.877 -0.3324  0.2196 -0.2019
 1086YOPC   C1B15867  13.169   0.240   6.945  0.1084  0.1589  0.0073
 1086YOPC   C2B15868  13.299   0.056   7.374  0.3218  0.0766 -0.2013
 1086YOPC   D3B15869  13.068   0.168   7.632  0.0437 -0.0563 -0.2815
 1086YOPC   C4B15870  12.834   0.237   8.047 -0.1250  0.1369 -0.0929
 1087YOPC   NC315871  11.593   7.972   5.292 -0.4096 -0.0411  0.4094
 1087YOPC   PO415872  11.720   7.625   5.377  0.0387  0.3940  0.1411
 1087YOPC   GL115873  11.652   7.905   5.770 -0.0872  0.2733 -0.0550
 1087YOPC   GL215874  11.925   7.889   5.910  0.1367 -0.1517  0.3010
 1087YOPC   C1A15875  11.497   8.074   6.121  0.0977 -0.1686  0.0649
 1087YOPC   D2A15876  11.404   8.396   6.390  0.3880  0.2295  0.1945
 1087YOPC   C3A15877  11.055   8.365   6.630  0.0176 -0.0861 -0.3275
 1087YOPC   C4A15878  10.882   8.310   6.968 -0.1019  0.2013 -0.1992
 1087YOPC   C1B15879  12.018   7.840   6.359 -0.0894 -0.2808 -0.1015
 1087YOPC   C2B15880  12.007   7.860   6.814  0.1456  0.1957 -0.0123
 1087YOPC   D3B15881  11.860   8.173   7.066 -0.2345  0.2305  0.2621
 1087YOPC   C4B15882  11.624   8.167   7.362  0.3680  0.1304  0.0607
 1088YOPC   NC315883  15.165   1.716   5.509  0.3469  0.1066 -0.0602
 1088YOPC   PO415884  15.525   1.493   5.718 -0.0418 -0.4128 -0.0193
 1088YOPC   GL115885  15.633   1.561   6.157 -0.1817 -0.4412  0.0013
 1088YOPC   GL215886  15.571   1.272   6.343 -0.0729 -0.0646 -0.0984
 1088YOPC   C1A15887  15.603   1.729   6.587 -0.0626  0.3138 -0.0515
 1088YOPC   D2A15888  15.851   1.692   6.978  0.0284 -0.4321 -0.1553
 1088YOPC   C3A15889  16.073   2.014   7.353  0.0329 -0.2969  0.0523
 1088YOPC   C4A15890  16.231   2.172   7.845  0.1348 -0.4831 -0.0323
 1088YOPC   C1B15891  15.736   1.243   6.742  0.0588 -0.2344  0.2115
 1088YOPC   C2B15892  15.666   1.252   7.223  0.6104 -0.0242  0.0598
 1088YOPC   D3B15893  15.360   1.337   7.594 -0.2025 -0.0732  0.1752
 1088YOPC   C4B15894  15.044   1.560   7.829 -0.1785 -0.4264  0.0057
 1089YOPC   NC315895  11.589  17.605   5.728 -0.1673 -0.2216 -0.0394
 1089YOPC   PO415896  11.251  17.305   5.898 -0.0689  0.0953  0.2194
 1089YOPC   GL115897  11.151  17.268   6.296 -0.1328  0.4471 -0.0775
 1089YOPC   GL215898  11.416  17.055   6.365 -0.3159  0.0366 -0.1552
 1089YOPC   C1A15899  10.824  17.174   6.491 -0.0878 -0.0292  0.3535
 1089YOPC   D2A15900  10.481  17.134   6.674  0.1153  0.3128  0.1127
 1089YOPC   C3A15901  10.227  17.309   6.950 -0.1328 -0.0197 -0.0569
 1089YOPC   C4A15902  10.230  17.420   7.441  0.0507  0.1431  0.4183
 1089YOPC   C1B15903  11.656  17.409   6.564  0.0579 -0.0999 -0.0542
 1089YOPC   C2B15904  11.812  17.666   6.913 -0.1521 -0.1434  0.0991
 1089YOPC   D3B15905  11.620  17.733   7.306  0.1944  0.1060 -0.0063
 1089YOPC   C4B15906  11.275  17.547   7.535  0.1001 -0.1842  0.2591
 1090YOPC   NC315907   4.897   7.163   5.786  0.2373 -0.0877  0.1113
 1090YOPC   PO415908   5.289   7.006   5.811  0.2792  0.0256 -0.2465
 1090YOPC   GL115909   5.111   7.076   6.225  0.1771 -0.2338 -0.0993
 1090YOPC   GL215910   5.135   6.852   6.551 -0.1172  0.1567  0.1213
 1090YOPC   C1A15911   5.041   7.337   6.433 -0.0490  0.2077  0.1666
 1090YOPC   D2A15912   5.112   7.654   6.759  0.0712  0.0712  0.1296
 1090YOPC   C3A15913   5.177   7.513   7.165 -0.2633 -0.1523 -0.1249
 1090YOPC   C4A15914   5.424   7.756   7.525  0.0303  0.2322 -0.0414
 1090YOPC   C1B15915   5.073   7.135   6.870  0.1234 -0.2336  0.0546
 1090YOPC   C2B15916   5.008   7.091   7.302  0.0696 -0.0111 -0.2391
 1090YOPC   D3B15917   4.821   7.383   7.483  0.1030 -0.2292 -0.1119
 1090YOPC   C4B15918   4.959   7.736   7.616 -0.1561  0.1998 -0.0920
 1091YOPC   NC315919   5.800   1.656   5.931 -0.0541 -0.0619  0.2922
 1091YOPC   PO415920   6.072   2.041   5.871  0.2838 -0.0146  0.0582
 1091YOPC   GL115921   6.248   2.227   6.233  0.1984 -0.1514  0.0371
 1091YOPC   GL215922   6.590   2.487   6.216  0.0917 -0.2520 -0.2120
 1091YOPC   C1A15923   6.229   2.357   6.595 -0.2322 -0.1326 -0.0108
 1091YOPC   D2A15924   6.224   2.332   7.061  0.0599  0.0596 -0.4331
 1091YOPC   C3A15925   6.437   2.145   7.424 -0.0152 -0.1395  0.1591
 1091YOPC   C4A15926   6.626   1.772   7.654 -0.1149  0.0855 -0.3090
 1091YOPC   C1B15927   6.796   2.357   6.462 -0.0707  0.0185  0.0334
 1091YOPC   C2B15928   7.039   2.709   6.714 -0.1369  0.0715  0.0956
 1091YOPC   D3B15929   7.075   2.624   7.116  0.2275 -0.0805 -0.3506
 1091YOPC   C4B15930   7.131   2.668   7.489 -0.1449  0.0511 -0.0092
 1092YOPC   NC315931  15.983  13.751   5.903  0.1408 -0.1653  0.0355
 1092YOPC   PO415932  16.026  14.175   6.109 -0.2870  0.1446  0.2982
 1092YOPC   GL115933  15.829  13.863   6.406  0.2034  0.1682  0.1999
 1092YOPC   GL215934  16.160  13.984   6.684  0.0330  0.0827  0.3219
 1092YOPC   C1A15935  15.794  13.654   6.810 -0.0726 -0.0335  0.2165
 1092YOPC   D2A15936  15.580  13.755   7.200 -0.0384  0.0166 -0.2104
 1092YOPC   C3A15937  15.255  13.998   7.298  0.0900 -0.1895  0.2340
 1092YOPC   C4A15938  14.958  14.169   7.492 -0.0440  0.2136 -0.0245
 1092YOPC   C1B15939  15.987  14.018   7.081  0.3128 -0.0840 -0.4527
 1092YOPC   C2B15940  15.963  13.992   7.473 -0.0804 -0.5105  0.1642
 1092YOPC   D3B15941  15.753  13.997   7.741  0.5292 -0.1258 -0.0911
 1092YOPC   C4B15942  15.427  13.832   7.808 -0.1433  0.3807  0.0326
 1093YOPC   NC315943   4.759   4.369   5.601  0.0229  0.1154 -0.0488
 1093YOPC   PO415944   4.565   4.658   5.834 -0.0830 -0.0125  0.1081
 1093YOPC   GL115945   4.385   4.848   6.132 -0.0783  0.0556 -0.1866
 1093YOPC   GL215946   4.481   5.162   6.163  0.0059  0.1145 -0.1095
 1093YOPC   C1A15947   4.280   4.976   6.580 -0.1910  0.2199  0.0246
 1093YOPC   D2A15948   4.165   4.973   6.976  0.4942  0.0668  0.0655
 1093YOPC   C3A15949   4.246   5.333   7.214  0.1546 -0.1697 -0.0393
 1093YOPC   C4A15950   4.745   5.619   7.349 -0.3428  0.1568  0.4357
 1093YOPC   C1B15951   4.772   5.355   6.413  0.1629 -0.2673  0.0335
 1093YOPC   C2B15952   5.041   5.709   6.570 -0.1984  0.0281  0.0777
 1093YOPC   D3B15953   5.035   5.864   6.967 -0.0773  0.0762  0.2324
 1093YOPC   C4B15954   4.826   6.068   7.171 -0.0569  0.0013  0.0222
 1094YOPC   NC315955  11.192  13.677   5.382 -0.1551 -0.0686  0.2171
 1094YOPC   PO415956  11.576  13.538   5.593  0.1427 -0.1047  0.0601
 1094YOPC   GL115957  11.699  13.607   6.016 -0.1278  0.0588 -0.0902
 1094YOPC   GL215958  11.998  13.651   6.201 -0.1980 -0.2123 -0.0500
 1094YOPC   C1A15959  11.486  13.536   6.329 -0.1903 -0.1378  0.0475
 1094YOPC   D2A15960  11.472  13.776   6.779  0.2034  0.1184 -0.0743
 1094YOPC   C3A15961  11.534  13.588   7.102  0.0051  0.0069  0.1620
 1094YOPC   C4A15962  11.681  13.363   7.435  0.2518 -0.1062 -0.3144
 1094YOPC   C1B15963  11.881  13.446   6.588  0.0119  0.1116 -0.0445
 1094YOPC   C2B15964  11.971  13.386   7.007 -0.2977  0.2335 -0.1260
 1094YOPC   D3B15965  12.137  13.487   7.302  0.2422 -0.1336 -0.3981
 1094YOPC   C4B15966  12.297  13.505   7.649 -0.2271 -0.3415 -0.0897
 1095YOPC   NC315967   7.812   8.187   5.101 -0.0895  0.1736 -0.0998
 1095YOPC   PO415968   8.025   8.101   5.392  0.0929 -0.1509 -0.1416
 1095YOPC   GL115969   7.973   8.317   5.816  0.1623 -0.4773  0.0778
 1095YOPC   GL215970   7.643   8.305   6.030 -0.0562  0.1307 -0.0321
 1095YOPC   C1A15971   8.076   8.354   6.201 -0.3066  0.0849 -0.2551
 1095YOPC   D2A15972   8.258   8.306   6.602  0.0184  0.1657  0.0552
 1095YOPC   C3A15973   8.376   8.377   6.930 -0.2467 -0.0736  0.0578
 1095YOPC   C4A15974   8.098   8.415   7.293  0.0076 -0.1506  0.2008
 1095YOPC   C1B15975   7.720   8.317   6.505 -0.0044 -0.0574 -0.3939
 1095YOPC   C2B15976   7.754   8.355   6.936  0.1841 -0.1106 -0.1826
 1095YOPC   D3B15977   7.665   8.042   7.241 -0.0400  0.0997 -0.0708
 1095YOPC   C4B15978   7.478   7.713   7.242 -0.2549 -0.3745 -0.1592
 1096YOPC   NC315979   8.405   2.818   5.787 -0.0314  0.2205  0.0065
 1096YOPC   PO415980   7.943   2.623   5.803 -0.2721  0.3096 -0.0650
 1096YOPC   GL115981   7.905   2.541   6.155  0.2486  0.0484 -0.0923
 1096YOPC   GL215982   8.159   2.861   6.229 -0.0940 -0.3984 -0.2851
 1096YOPC   C1A15983   7.747   2.763   6.534 -0.4367  0.1242 -0.3668
 1096YOPC   D2A15984   7.612   2.773   6.861 -0.0559  0.0193  0.1862
 1096YOPC   C3A15985   7.640   2.596   7.115 -0.2884  0.0636  0.0116
 1096YOPC   C4A15986   7.771   2.687   7.564  0.0220  0.2548  0.1044
 1096YOPC   C1B15987   8.342   2.731   6.622  0.0753 -0.0930 -0.0260
 1096YOPC   C2B15988   8.652   2.418   6.817 -0.3476  0.1499  0.0008
 1096YOPC   D3B15989   8.566   2.233   7.200  0.0836 -0.1318  0.2465
 1096YOPC   C4B15990   8.581   2.168   7.687  0.3974 -0.0169  0.2422
 1097YOPC   NC315991   5.135   5.872   6.124  0.3281 -0.0197  0.0833
 1097YOPC   PO415992   4.926   6.177   5.872 -0.2778  0.1222 -0.0752
 1097YOPC   GL115993   4.948   6.284   6.343 -0.0364 -0.0307  0.0745
 1097YOPC   GL215994   5.298   6.168   6.540  0.1063 -0.0522  0.1340
 1097YOPC   C1A15995   4.941   6.400   6.795 -0.0398  0.1823  0.2690
 1097YOPC   D2A15996   4.884   6.649   7.069  0.0451 -0.0098 -0.1743
 1097YOPC   C3A15997   4.806   6.574   7.508  0.1405  0.0055  0.0466
 1097YOPC   C4A15998   4.540   6.454   7.870 -0.2117 -0.0254  0.0049
 1097YOPC   C1B15999   5.369   6.309   6.983  0.2048  0.2269 -0.0234
 1097YOPC   C2B16000   5.262   6.481   7.366  0.2000 -0.0589  0.2147
 1097YOPC   D3B16001   5.186   6.231   7.790  0.0378  0.3012  0.2115
 1097YOPC   C4B16002   5.359   6.288   8.107 -0.1596 -0.3212  0.0644
 1098YOPC   NC316003   4.469   8.833   5.824  0.0092 -0.1569  0.0819
 1098YOPC   PO416004   4.583   9.183   5.650  0.0994  0.0163 -0.0613
 1098YOPC   GL116005   4.859   9.097   5.953  0.0305  0.1839  0.2585
 1098YOPC   GL216006   4.727   9.396   6.205 -0.1143 -0.0495 -0.1011
 1098YOPC   C1A16007   5.045   9.062   6.327  0.0655  0.0182  0.0277
 1098YOPC   D2A16008   5.148   9.381   6.732  0.0176 -0.1684 -0.0855
 1098YOPC   C3A16009   5.006   9.314   7.167  0.2342  0.2286 -0.1715
 1098YOPC   C4A16010   5.186   9.166   7.554  0.0435  0.1599 -0.0634
 1098YOPC   C1B16011   4.701   9.345   6.655 -0.0683 -0.2952 -0.0154
 1098YOPC   C2B16012   4.612   9.591   7.005 -0.4619 -0.2909 -0.0968
 1098YOPC   D3B16013   4.528   9.876   6.773  0.3322 -0.0132 -0.0553
 1098YOPC   C4B16014   4.146  10.091   6.491 -0.0354  0.2853  0.3788
 1099YOPC   NC316015   7.713   3.549   5.508  0.1288 -0.2931  0.0641
 1099YOPC   PO416016   7.526   3.189   5.339  0.0937 -0.0118  0.1631
 1099YOPC   GL116017   7.668   3.047   5.821  0.1377  0.0276 -0.2396
 1099YOPC   GL216018   7.491   2.814   6.025  0.2172  0.3403 -0.1673
 1099YOPC   C1A16019   7.768   3.190   6.269  0.0276  0.2136 -0.1834
 1099YOPC   D2A16020   7.837   3.265   6.643 -0.0305 -0.2825 -0.0596
 1099YOPC   C3A16021   8.056   3.039   6.922 -0.0089  0.0933  0.3527
 1099YOPC   C4A16022   8.112   2.966   7.287  0.2699 -0.4980 -0.2056
 1099YOPC   C1B16023   7.348   2.487   6.381 -0.0118  0.0651  0.0467
 1099YOPC   C2B16024   7.325   2.323   6.817  0.0675  0.0799  0.0528
 1099YOPC   D3B16025   7.252   2.154   7.270 -0.0002 -0.0028  0.0426
 1099YOPC   C4B16026   7.364   2.262   7.678  0.0340  0.0273  0.0118
 1100YOPC   NC316027   6.941   1.019   5.833  0.1155  0.2559 -0.4262
 1100YOPC   PO416028   6.753   0.784   6.198  0.0251 -0.2078  0.1362
 1100YOPC   GL116029   6.813   0.675   6.510 -0.1152 -0.3622  0.2984
 1100YOPC   GL216030   6.866   0.424   6.632 -0.2553 -0.3269  0.1877
 1100YOPC   C1A16031   7.108   0.768   6.870 -0.1150  0.0248 -0.0781
 1100YOPC   D2A16032   7.321   1.002   7.337  0.2543 -0.4752  0.1289
 1100YOPC   C3A16033   7.381   1.398   7.589 -0.0053 -0.1831  0.3783
 1100YOPC   C4A16034   7.146   1.842   7.622 -0.2930  0.1092 -0.1388
 1100YOPC   C1B16035   7.079   0.254   7.050  0.0707 -0.1022  0.0542
 1100YOPC   C2B16036   7.232   0.263   7.525 -0.0627 -0.0841  0.0209
 1100YOPC   D3B16037   7.019   0.414   7.958  0.2412 -0.1220 -0.1597
 1100YOPC   C4B16038   6.751   0.079   8.323 -0.4231 -0.0122 -0.3927
 1101YOPC   NC316039  15.036   6.491   5.773 -0.0082  0.4971  0.0679
 1101YOPC   PO416040  15.337   6.806   5.700  0.2080  0.2514 -0.3708
 1101YOPC   GL116041  15.604   6.564   6.103  0.1391 -0.1846 -0.0788
 1101YOPC   GL216042  15.704   6.823   6.209  0.2428  0.0625  0.0315
 1101YOPC   C1A16043  15.694   6.181   6.399  0.0456 -0.0049 -0.1633
 1101YOPC   D2A16044  15.491   5.975   6.783 -0.3664  0.0656 -0.0608
 1101YOPC   C3A16045  15.724   5.676   6.894  0.0727 -0.2112 -0.3496
 1101YOPC   C4A16046  15.653   5.273   7.057 -0.0714  0.1376 -0.1808
 1101YOPC   C1B16047  15.547   6.613   6.612  0.0826 -0.0552 -0.0525
 1101YOPC   C2B16048  15.424   6.414   6.913 -0.1327  0.2347  0.1322
 1101YOPC   D3B16049  15.531   6.502   7.430  0.0322  0.0760  0.3224
 1101YOPC   C4B16050  15.564   6.543   7.851 -0.0143 -0.0611  0.1721
 1102YOPC   NC316051   0.045  12.135   6.181  0.0598  0.0383 -0.1832
 1102YOPC   PO416052   0.492  11.973   6.306 -0.1152  0.0599  0.1526
 1102YOPC   GL116053   0.563  12.012   6.684  0.0675 -0.0771  0.1815
 1102YOPC   GL216054   0.660  12.362   6.764  0.0525  0.0803 -0.1723
 1102YOPC   C1A16055   0.384  11.899   7.132 -0.1129  0.4135 -0.0192
 1102YOPC   D2A16056   0.365  11.822   7.520  0.1533 -0.1007  0.0040
 1102YOPC   C3A16057   0.451  11.904   7.918  0.1215 -0.1189  0.0256
 1102YOPC   C4A16058   0.385  11.826   8.278  0.2990  0.1512 -0.1723
 1102YOPC   C1B16059   0.739  12.414   7.190 -0.1585 -0.0496 -0.0931
 1102YOPC   C2B16060   0.769  12.111   7.507 -0.0986  0.2103  0.0047
 1102YOPC   D3B16061   0.781  12.272   7.986 -0.0546 -0.0781  0.3556
 1102YOPC   C4B16062   0.602  12.396   8.395 -0.0380 -0.1429  0.0214
 1103YOPC   NC316063  12.695   1.368   5.417 -0.0523 -0.0816 -0.0507
 1103YOPC   PO416064  12.854   1.571   5.926  0.1314 -0.1180 -0.0756
 1103YOPC   GL116065  12.561   1.737   6.192 -0.0146  0.3486  0.1487
 1103YOPC   GL216066  12.266   1.544   6.149 -0.1811  0.2060 -0.2366
 1103YOPC   C1A16067  12.707   1.979   6.480  0.2268  0.1221  0.0670
 1103YOPC   D2A16068  12.753   2.194   6.784 -0.1709 -0.6488  0.0191
 1103YOPC   C3A16069  12.771   2.098   7.189  0.0366 -0.0406  0.1509
 1103YOPC   C4A16070  13.091   2.167   7.533  0.2445 -0.2293 -0.2001
 1103YOPC   C1B16071  12.311   1.453   6.525 -0.1827  0.0150  0.4258
 1103YOPC   C2B16072  12.150   1.570   6.968 -0.2138  0.1258  0.0016
 1103YOPC   D3B16073  12.039   1.311   7.199 -0.0516 -0.1872  0.1516
 1103YOPC   C4B16074  12.249   1.363   7.623  0.0458 -0.1176  0.0036
 1104YOPC   NC316075   1.243   0.251   5.806  0.4471 -0.1195  0.0156
 1104YOPC   PO416076   1.596   0.547   5.967 -0.1504 -0.1615 -0.2544
 1104YOPC   GL116077   1.606   0.396   6.362  0.1157 -0.1544  0.0915
 1104YOPC   GL216078   1.858   0.442   6.464 -0.1985 -0.3998 -0.0162
 1104YOPC   C1A16079   1.570   0.080   6.674  0.1579  0.1978  0.0383
 1104YOPC   D2A16080   1.444   0.024   7.136 -0.3049  0.1021 -0.2661
 1104YOPC   C3A16081   1.685  -0.170   7.433  0.1733  0.0164 -0.0367
 1104YOPC   C4A16082   1.905  -0.090   7.672  0.0677 -0.1819  0.1660
 1104YOPC   C1B16083   1.728   0.409   6.934  0.0460  0.0455 -0.2511
 1104YOPC   C2B16084   1.772   0.368   7.395 -0.1058 -0.0148  0.3102
 1104YOPC   D3B16085   1.443   0.218   7.627  0.1490 -0.0741 -0.1093
 1104YOPC   C4B16086   1.201   0.452   7.945 -0.1627 -0.2191 -0.0866
 1105YOPC   NC316087   5.594   9.196   5.473  0.1735 -0.1504 -0.0906
 1105YOPC   PO416088   5.503   9.493   5.739 -0.0646 -0.1365 -0.2980
 1105YOPC   GL116089   5.781   9.370   6.076  0.3679 -0.0893  0.3321
 1105YOPC   GL216090   5.613   9.129   6.256 -0.0909 -0.2577 -0.2169
 1105YOPC   C1A16091   5.997   9.505   6.320 -0.0951  0.0037  0.1343
 1105YOPC   D2A16092   6.068   9.598   6.685  0.1949  0.1179  0.0604
 1105YOPC   C3A16093   6.195   9.838   6.902  0.1197 -0.2046  0.1531
 1105YOPC   C4A16094   6.113   9.812   7.300 -0.1362  0.0882  0.0113
 1105YOPC   C1B16095   5.701   9.244   6.750 -0.0694  0.2136  0.1509
 1105YOPC   C2B16096   5.403   9.061   7.023  0.1157  0.1578  0.1089
 1105YOPC   D3B16097   5.177   8.891   6.780  0.1941 -0.0842  0.0709
 1105YOPC   C4B16098   4.787   8.664   6.669 -0.0186  0.0709  0.2913
 1106YOPC   NC316099   7.945  11.171   5.813  0.0148 -0.0929  0.2677
 1106YOPC   PO416100   7.925  11.618   5.667 -0.0244  0.3882  0.0141
 1106YOPC   GL116101   7.803  11.696   6.097 -0.1060 -0.0696  0.0513
 1106YOPC   GL216102   7.696  11.438   6.217 -0.0080  0.0699  0.3047
 1106YOPC   C1A16103   8.090  11.816   6.469  0.0213  0.0661 -0.2027
 1106YOPC   D2A16104   8.260  11.723   6.827 -0.1922 -0.3051 -0.0102
 1106YOPC   C3A16105   8.737  11.714   6.834  0.1764  0.1345 -0.0064
 1106YOPC   C4A16106   9.159  11.818   6.747 -0.2419  0.0726  0.0823
 1106YOPC   C1B16107   8.013  11.284   6.576 -0.1344 -0.0331 -0.1125
 1106YOPC   C2B16108   8.283  11.170   6.814 -0.1592 -0.0832  0.2770
 1106YOPC   D3B16109   8.464  11.345   7.154  0.1520  0.2022  0.0124
 1106YOPC   C4B16110   8.491  11.706   7.337 -0.4353 -0.1260 -0.0019
 1107YOPC   NC316111  15.394   3.161   5.562  0.1940  0.0125  0.0889
 1107YOPC   PO416112  15.096   3.486   5.786  0.1678  0.1890  0.1406
 1107YOPC   GL116113  15.162   3.318   6.177 -0.0766  0.0748 -0.1288
 1107YOPC   GL216114  15.183   3.627   6.245  0.0031 -0.2405 -0.0901
 1107YOPC   C1A16115  15.477   3.228   6.394 -0.4804 -0.2575 -0.0044
 1107YOPC   D2A16116  15.715   3.396   6.835  0.1923 -0.1639  0.2365
 1107YOPC   C3A16117  15.412   3.554   7.089 -0.0376  0.0122 -0.2661
 1107YOPC   C4A16118  15.157   3.823   7.125 -0.0451 -0.1445 -0.1088
 1107YOPC   C1B16119  15.282   3.728   6.626 -0.2537 -0.0695  0.0683
 1107YOPC   C2B16120  15.592   3.982   6.810 -0.1223 -0.1075  0.0321
 1107YOPC   D3B16121  15.689   3.966   7.235  0.2209  0.2727  0.0686
 1107YOPC   C4B16122  15.573   3.786   7.574 -0.0498 -0.0914 -0.3338
 1108YOPC   NC316123   0.261   1.609   5.595  0.4865 -0.1379  0.0509
 1108YOPC   PO416124   0.472   1.395   5.727  0.2163  0.2426  0.1059
 1108YOPC   GL116125   0.546   1.475   6.113  0.0047  0.0879  0.2353
 1108YOPC   GL216126   0.344   1.324   6.261 -0.0317  0.0012  0.0632
 1108YOPC   C1A16127   0.683   1.665   6.500  0.1202  0.1023  0.0953
 1108YOPC   D2A16128   0.641   1.489   7.005 -0.0463  0.0244  0.2323
 1108YOPC   C3A16129   1.024   1.524   7.323 -0.0202  0.1217  0.5941
 1108YOPC   C4A16130   1.255   1.266   7.734 -0.1449  0.1131  0.0035
 1108YOPC   C1B16131   0.537   1.165   6.624 -0.1233  0.0121 -0.2183
 1108YOPC   C2B16132   0.512   1.044   7.040 -0.1363 -0.0457  0.1923
 1108YOPC   D3B16133   0.449   1.145   7.483 -0.0530  0.0162 -0.1749
 1108YOPC   C4B16134   0.330   1.107   7.891 -0.0344 -0.1269  0.1087
 1109YOPC   NC316135   1.943   6.537   5.675 -0.1843  0.1552 -0.0016
 1109YOPC   PO416136   2.181   6.254   6.042  0.3362  0.0794  0.2641
 1109YOPC   GL116137   2.404   6.368   6.377 -0.2270 -0.0649  0.0025
 1109YOPC   GL216138   2.311   6.191   6.540  0.3359 -0.2036 -0.1790
 1109YOPC   C1A16139   2.776   6.605   6.426 -0.0209  0.2467 -0.0035
 1109YOPC   D2A16140   3.052   6.549   6.781 -0.0425 -0.1225  0.0107
 1109YOPC   C3A16141   3.300   6.247   6.943  0.0897  0.1224 -0.2454
 1109YOPC   C4A16142   3.466   6.151   7.350 -0.1994  0.1036 -0.0012
 1109YOPC   C1B16143   2.377   5.813   6.738 -0.0278  0.1605  0.1462
 1109YOPC   C2B16144   2.450   5.627   7.073 -0.0713 -0.0594  0.0106
 1109YOPC   D3B16145   2.815   5.534   7.279 -0.1316  0.2166  0.1025
 1109YOPC   C4B16146   2.953   5.592   7.704  0.0702  0.0423  0.2971
 1110YOPC   NC316147   6.301   3.517   5.492 -0.2893 -0.0930 -0.1681
 1110YOPC   PO416148   6.149   3.490   5.861  0.0050 -0.1450 -0.0470
 1110YOPC   GL116149   6.382   3.111   6.097 -0.0982 -0.1467  0.0791
 1110YOPC   GL216150   6.087   2.819   6.105 -0.1663  0.4290 -0.3622
 1110YOPC   C1A16151   6.474   2.853   6.511  0.3968 -0.0854 -0.3239
 1110YOPC   D2A16152   6.559   2.600   6.890  0.5444 -0.1825  0.2226
 1110YOPC   C3A16153   6.739   2.284   7.013  0.1277 -0.1313 -0.1447
 1110YOPC   C4A16154   6.886   2.267   7.546 -0.1568 -0.2208 -0.2786
 1110YOPC   C1B16155   5.921   2.868   6.496 -0.0784 -0.2229 -0.1066
 1110YOPC   C2B16156   5.890   2.932   6.905  0.1723  0.0810 -0.0505
 1110YOPC   D3B16157   6.164   2.756   7.294 -0.1225  0.1236  0.0871
 1110YOPC   C4B16158   6.217   2.494   7.698  0.1016  0.0880  0.0929
 1111YOPC   NC316159   0.838  15.647   5.558  0.3810  0.2126 -0.0965
 1111YOPC   PO416160   1.018  15.676   5.909  0.1405 -0.1133  0.0200
 1111YOPC   GL116161   0.885  15.756   6.298  0.0960 -0.2419 -0.0895
 1111YOPC   GL216162   1.097  15.799   6.466 -0.0940  0.3361 -0.1919
 1111YOPC   C1A16163   0.714  15.728   6.746  0.0182 -0.2516 -0.3514
 1111YOPC   D2A16164   0.801  15.540   7.119  0.1008  0.0072  0.3268
 1111YOPC   C3A16165   0.555  15.515   7.554  0.1138 -0.0677  0.2487
 1111YOPC   C4A16166   0.418  15.753   7.895 -0.0134  0.1237 -0.1202
 1111YOPC   C1B16167   1.204  15.636   6.791  0.0297  0.3140  0.1726
 1111YOPC   C2B16168   1.323  15.562   7.231  0.1164  0.1170  0.1004
 1111YOPC   D3B16169   1.691  15.696   7.424 -0.0095  0.1343 -0.2736
 1111YOPC   C4B16170   1.846  16.139   7.400  0.0859 -0.3995 -0.1575
 1112YOPC   NC316171   3.822   4.021   5.823  0.1684 -0.0871  0.1917
 1112YOPC   PO416172   4.260   4.115   5.622  0.1908  0.0748  0.2214
 1112YOPC   GL116173   4.201   4.126   6.099 -0.3465 -0.1231 -0.0508
 1112YOPC   GL216174   4.211   3.879   6.291 -0.2665  0.0044 -0.3023
 1112YOPC   C1A16175   4.222   4.432   6.373 -0.0230 -0.0692 -0.2556
 1112YOPC   D2A16176   3.825   4.720   6.474  0.3192  0.2351  0.0161
 1112YOPC   C3A16177   3.668   4.783   6.819  0.2862 -0.0406 -0.1278
 1112YOPC   C4A16178   3.409   4.864   7.230  0.0091 -0.1731  0.3252
 1112YOPC   C1B16179   4.396   4.034   6.632  0.0116 -0.3641  0.4641
 1112YOPC   C2B16180   4.413   3.842   7.012 -0.1466 -0.0558  0.1262
 1112YOPC   D3B16181   4.118   3.965   7.246  0.3962  0.0774 -0.0294
 1112YOPC   C4B16182   4.027   4.203   7.664  0.2261 -0.2186  0.3911
 1113YOPC   NC316183  14.449   9.170   5.886 -0.0648  0.4582 -0.1365
 1113YOPC   PO416184  14.144   9.476   5.829  0.0825 -0.1353  0.1547
 1113YOPC   GL116185  14.081   9.544   6.169  0.1593  0.0035 -0.1343
 1113YOPC   GL216186  14.104   9.938   6.110  0.0326 -0.1148 -0.2539
 1113YOPC   C1A16187  14.293   9.571   6.601 -0.0299  0.2291  0.0398
 1113YOPC   D2A16188  14.292   9.698   7.056  0.0135 -0.1001  0.0756
 1113YOPC   C3A16189  14.506   9.733   7.430  0.2323 -0.0374 -0.0418
 1113YOPC   C4A16190  14.951   9.560   7.649 -0.1504  0.1020  0.1194
 1113YOPC   C1B16191  13.909   9.894   6.474 -0.1453 -0.2771  0.0414
 1113YOPC   C2B16192  13.525   9.881   6.736 -0.1262  0.0528 -0.1103
 1113YOPC   D3B16193  13.627   9.921   7.073  0.0077 -0.1218 -0.1213
 1113YOPC   C4B16194  13.549   9.730   7.507 -0.1620 -0.1743  0.2477
 1114YOPC   NC316195   0.920  11.178   6.136 -0.0882  0.1799  0.1270
 1114YOPC   PO416196   1.291  11.436   6.110 -0.4006  0.0378 -0.1286
 1114YOPC   GL116197   1.146  11.567   6.494  0.3145  0.1425 -0.4309
 1114YOPC   GL216198   0.814  11.585   6.629  0.3808  0.3758  0.4858
 1114YOPC   C1A16199   1.132  11.436   6.945 -0.1043 -0.0445 -0.0881
 1114YOPC   D2A16200   1.233  11.398   7.479 -0.1273  0.0662  0.0620
 1114YOPC   C3A16201   1.207  11.197   7.936  0.2076 -0.0242 -0.0627
 1114YOPC   C4A16202   1.351  11.367   8.307  0.2129 -0.1058  0.2293
 1114YOPC   C1B16203   0.438  11.514   6.829 -0.1225 -0.0215  0.1133
 1114YOPC   C2B16204   0.277  11.392   7.198  0.1051  0.1682  0.1630
 1114YOPC   D3B16205   0.068  11.025   7.262 -0.0547  0.0306  0.2370
 1114YOPC   C4B16206  -0.106  10.634   7.355 -0.1064  0.1138 -0.0792
 1115YOPC   NC316207  12.349   0.314   6.099  0.1113 -0.3533  0.2394
 1115YOPC   PO416208  12.691  -0.066   6.261  0.0431 -0.1587  0.1072
 1115YOPC   GL116209  12.377  -0.034   6.587  0.1214 -0.1691 -0.0218
 1115YOPC   GL216210  12.216   0.345   6.642 -0.0469 -0.0847 -0.1076
 1115YOPC   C1A16211  12.330  -0.374   6.856  0.2214  0.0645  0.2027
 1115YOPC   D2A16212  12.294  -0.591   7.211  0.1734  0.1512 -0.1548
 1115YOPC   C3A16213  12.452  -0.569   7.523  0.1111  0.1029 -0.0838
 1115YOPC   C4A16214  12.509  -0.658   7.905 -0.0423  0.1174  0.0287
 1115YOPC   C1B16215  12.374   0.237   7.092 -0.2781 -0.1556  0.0688
 1115YOPC   C2B16216  12.742   0.444   7.309  0.2116  0.0203  0.1216
 1115YOPC   D3B16217  12.662   0.914   7.332  0.2622 -0.2500  0.4545
 1115YOPC   C4B16218  12.631   1.386   7.324  0.1757 -0.0014  0.1475
 1116YOPC   NC316219  15.349   9.790   5.640 -0.0053 -0.0266  0.0110
 1116YOPC   PO416220  15.662   9.767   5.854  0.1868 -0.1957  0.1324
 1116YOPC   GL116221  15.749   9.460   6.121  0.1218 -0.1962 -0.4641
 1116YOPC   GL216222  15.959   9.664   6.295 -0.1030  0.0519  0.0136
 1116YOPC   C1A16223  15.731   9.446   6.626  0.3006 -0.0979  0.1824
 1116YOPC   D2A16224  15.764   9.347   7.058 -0.0872  0.3168 -0.0601
 1116YOPC   C3A16225  15.474   9.363   7.405  0.4634  0.0222 -0.0873
 1116YOPC   C4A16226  15.381   9.246   7.805  0.0541 -0.0188 -0.1008
 1116YOPC   C1B16227  16.232   9.703   6.652  0.0581  0.0791 -0.2776
 1116YOPC   C2B16228  16.573   9.638   6.955  0.0702  0.1638  0.1986
 1116YOPC   D3B16229  16.570   9.776   7.342 -0.2944 -0.0850 -0.1323
 1116YOPC   C4B16230  16.645  10.201   7.539 -0.0437  0.2358 -0.1562
 1117YOPC   NC316231  11.923   6.171   5.264  0.0526  0.0440  0.2008
 1117YOPC   PO416232  11.846   6.555   5.351  0.1782 -0.2543  0.1255
 1117YOPC   GL116233  12.097   6.529   5.748 -0.0310  0.0517  0.0597
 1117YOPC   GL216234  12.396   6.454   5.891  0.0877  0.0528 -0.3208
 1117YOPC   C1A16235  11.960   6.499   6.143  0.1113  0.3623  0.2527
 1117YOPC   D2A16236  11.795   6.397   6.485  0.0136  0.0177 -0.3180
 1117YOPC   C3A16237  11.966   6.455   6.937 -0.0987 -0.0914 -0.1410
 1117YOPC   C4A16238  11.930   6.475   7.339  0.0275 -0.0423  0.0653
 1117YOPC   C1B16239  12.438   6.658   6.179 -0.0616 -0.0635 -0.0232
 1117YOPC   C2B16240  12.314   6.478   6.516 -0.0885  0.2760 -0.2646
 1117YOPC   D3B16241  12.389   6.229   6.794 -0.1830  0.0174 -0.0750
 1117YOPC   C4B16242  12.269   6.023   7.221 -0.0115 -0.1307 -0.1570
 1118YOPC   NC316243   7.894   7.460   5.550  0.3274  0.3303  0.1339
 1118YOPC   PO416244   7.571   7.787   5.371 -0.1531 -0.3226 -0.4458
 1118YOPC   GL116245   7.752   7.858   5.841  0.2991 -0.3434 -0.0126
 1118YOPC   GL216246   7.577   7.524   5.943  0.3404  0.0806 -0.1998
 1118YOPC   C1A16247   7.940   7.885   6.237  0.0467 -0.2006  0.3653
 1118YOPC   D2A16248   8.331   7.816   6.317 -0.1041 -0.0398 -0.0237
 1118YOPC   C3A16249   8.537   7.892   6.729 -0.1681 -0.1617 -0.4106
 1118YOPC   C4A16250   8.881   7.642   6.872  0.0544  0.0028 -0.1732
 1118YOPC   C1B16251   7.111   7.383   6.041  0.0101 -0.2410  0.2115
 1118YOPC   C2B16252   6.833   7.301   6.401  0.1412  0.0230 -0.1278
 1118YOPC   D3B16253   6.816   6.975   6.680 -0.0166 -0.0477  0.3731
 1118YOPC   C4B16254   7.223   6.902   6.741 -0.1210 -0.1819 -0.0740
 1119YOPC   NC316255  13.229  15.042   5.587  0.2339  0.0916  0.0528
 1119YOPC   PO416256  13.464  15.309   5.574  0.0776  0.1182  0.2209
 1119YOPC   GL116257  13.601  15.291   5.987 -0.0358  0.1711 -0.1282
 1119YOPC   GL216258  13.290  15.374   6.159 -0.1051 -0.1254  0.2208
 1119YOPC   C1A16259  13.637  15.168   6.440 -0.3477  0.0839  0.0789
 1119YOPC   D2A16260  13.601  15.155   6.827 -0.2258 -0.0587 -0.0796
 1119YOPC   C3A16261  13.673  15.260   7.295  0.1529  0.3459 -0.5763
 1119YOPC   C4A16262  13.629  15.199   7.747 -0.0784  0.0938  0.0255
 1119YOPC   C1B16263  12.987  15.631   6.221 -0.0270  0.1651  0.1852
 1119YOPC   C2B16264  12.494  15.534   6.273 -0.2579 -0.1287  0.0791
 1119YOPC   D3B16265  12.351  15.762   6.686 -0.0594 -0.1037 -0.0480
 1119YOPC   C4B16266  12.305  15.754   7.130 -0.0094  0.1027  0.3352
 1120YOPC   NC316267  14.959  10.507   5.934 -0.2351 -0.0426 -0.0989
 1120YOPC   PO416268  15.351  10.183   5.981 -0.2225 -0.1160  0.1353
 1120YOPC   GL116269  15.614  10.069   6.331  0.4082 -0.0614 -0.1571
 1120YOPC   GL216270  15.887  10.083   6.522 -0.0058  0.0707  0.1670
 1120YOPC   C1A16271  15.332   9.770   6.517 -0.0404 -0.0920  0.0119
 1120YOPC   D2A16272  15.410   9.705   6.924  0.0382  0.1941  0.0534
 1120YOPC   C3A16273  15.474   9.815   7.285 -0.0107  0.1267 -0.2075
 1120YOPC   C4A16274  15.705   9.989   7.452 -0.0160 -0.3006  0.0204
 1120YOPC   C1B16275  15.758   9.979   6.856  0.1526  0.0209 -0.0118
 1120YOPC   C2B16276  16.019   9.749   7.125  0.5640  0.0638  0.3640
 1120YOPC   D3B16277  15.950   9.577   7.458  0.0744  0.0218 -0.1470
 1120YOPC   C4B16278  15.736   9.595   7.865  0.2909 -0.0441 -0.2074
 1121YOPC   NC316279   7.569   4.058   5.587  0.1529 -0.0765 -0.0258
 1121YOPC   PO416280   7.481   4.405   5.780 -0.0486  0.2172 -0.1871
 1121YOPC   GL116281   7.539   4.474   6.183  0.3178 -0.0260  0.1116
 1121YOPC   GL216282   7.669   4.677   6.282  0.0357 -0.1425 -0.0788
 1121YOPC   C1A16283   7.535   4.296   6.551  0.0418 -0.0939 -0.0342
 1121YOPC   D2A16284   7.360   4.093   6.841 -0.0046 -0.1882  0.3285
 1121YOPC   C3A16285   7.405   4.051   7.334  0.0265  0.2804  0.0611
 1121YOPC   C4A16286   7.446   4.085   7.760 -0.0915 -0.0507  0.1500
 1121YOPC   C1B16287   7.523   4.859   6.654  0.0134 -0.0349  0.1581
 1121YOPC   C2B16288   7.539   4.983   7.088  0.2272  0.2189 -0.0237
 1121YOPC   D3B16289   7.334   4.912   7.387  0.1133 -0.1456 -0.0999
 1121YOPC   C4B16290   7.217   4.491   7.422 -0.0288 -0.0038  0.0283
 1122YOPC   NC316291  10.274  17.114   5.623 -0.2591 -0.1220  0.3649
 1122YOPC   PO416292  10.351  16.894   6.038  0.0367 -0.2443  0.0274
 1122YOPC   GL116293  10.157  16.808   6.383  0.3104 -0.2834 -0.0167
 1122YOPC   GL216294  10.144  16.464   6.448 -0.1473  0.2848  0.1099
 1122YOPC   C1A16295  10.093  16.787   6.799  0.2475  0.2195  0.0296
 1122YOPC   D2A16296   9.912  16.936   7.095 -0.1196 -0.0678 -0.1156
 1122YOPC   C3A16297   9.941  16.830   7.486  0.0757  0.0072  0.3107
 1122YOPC   C4A16298  10.132  16.590   7.810  0.0424  0.0317 -0.2175
 1122YOPC   C1B16299  10.297  16.380   6.842  0.0782  0.1760 -0.2571
 1122YOPC   C2B16300  10.275  16.464   7.245 -0.0319  0.2062 -0.0153
 1122YOPC   D3B16301  10.669  16.452   7.288  0.0745 -0.1666  0.2016
 1122YOPC   C4B16302  11.094  16.402   7.100  0.1635  0.0065 -0.1271
 1123YOPC   NC316303  13.599   8.055   5.918  0.2417  0.0837  0.0469
 1123YOPC   PO416304  13.968   7.836   6.129 -0.0807  0.0759  0.0536
 1123YOPC   GL116305  14.244   7.713   6.418 -0.0527  0.0208  0.1494
 1123YOPC   GL216306  14.561   7.742   6.339  0.0610 -0.0496  0.0771
 1123YOPC   C1A16307  14.242   7.719   6.875 -0.1231  0.0181 -0.1002
 1123YOPC   D2A16308  14.237   7.782   7.261 -0.1883  0.0961  0.1458
 1123YOPC   C3A16309  14.061   7.654   7.603 -0.0042 -0.0092 -0.0898
 1123YOPC   C4A16310  14.006   7.405   7.880  0.0400  0.1223 -0.0415
 1123YOPC   C1B16311  14.819   7.733   6.708 -0.1455  0.0141 -0.0512
 1123YOPC   C2B16312  14.851   7.769   7.078  0.1544  0.0680 -0.0661
 1123YOPC   D3B16313  15.054   7.807   7.436  0.2598 -0.5013 -0.0836
 1123YOPC   C4B16314  14.966   7.797   7.796 -0.2037  0.1496 -0.3179
 1124YOPC   NC316315   5.177  11.390   5.993 -0.1412  0.4204 -0.0843
 1124YOPC   PO416316   4.830  11.644   6.209  0.1513  0.1333 -0.0990
 1124YOPC   GL116317   5.050  11.472   6.522 -0.1240  0.4266 -0.0691
 1124YOPC   GL216318   5.364  11.426   6.782  0.0644  0.0465 -0.0253
 1124YOPC   C1A16319   4.925  11.116   6.767 -0.1232 -0.0123 -0.2847
 1124YOPC   D2A16320   5.045  10.973   7.133 -0.1967 -0.1270  0.5463
 1124YOPC   C3A16321   4.975  11.183   7.412  0.0035  0.1403  0.0638
 1124YOPC   C4A16322   5.095  11.097   7.876  0.0142 -0.1256 -0.1204
 1124YOPC   C1B16323   5.301  11.473   7.134  0.0451 -0.0428  0.1210
 1124YOPC   C2B16324   5.304  11.569   7.519 -0.0065 -0.0682  0.0824
 1124YOPC   D3B16325   4.972  11.565   7.819 -0.0620  0.1506  0.0965
 1124YOPC   C4B16326   4.635  11.271   8.030  0.2575 -0.1741  0.3289
 1125YOPC   NC316327  10.811   5.088   5.322  0.1372  0.1920 -0.1123
 1125YOPC   PO416328  11.195   4.936   5.198  0.0173  0.1045 -0.1637
 1125YOPC   GL116329  11.129   4.812   5.616 -0.1766  0.1530 -0.0474
 1125YOPC   GL216330  10.895   4.712   5.911  0.2698  0.3491  0.1611
 1125YOPC   C1A16331  11.406   4.861   6.004  0.0756 -0.0551 -0.2221
 1125YOPC   D2A16332  11.368   4.967   6.467 -0.1933 -0.2015  0.1989
 1125YOPC   C3A16333  11.154   5.265   6.720  0.2485  0.0491  0.0569
 1125YOPC   C4A16334  11.436   5.630   6.905 -0.3221 -0.0841  0.1054
 1125YOPC   C1B16335  10.892   4.883   6.270  0.2915  0.4121 -0.0564
 1125YOPC   C2B16336  10.996   4.759   6.621  0.1732 -0.0709 -0.3352
 1125YOPC   D3B16337  11.174   4.842   6.975  0.2092 -0.2910 -0.2401
 1125YOPC   C4B16338  11.071   4.977   7.347  0.2357  0.0306  0.1342
 1126YOPC   NC316339   6.811  11.896   6.031 -0.4561 -0.2579 -0.2541
 1126YOPC   PO416340   6.351  12.040   6.034  0.0213 -0.1448  0.2770
 1126YOPC   GL116341   6.432  11.962   6.383 -0.1759  0.1022  0.1599
 1126YOPC   GL216342   6.502  11.666   6.337 -0.1632 -0.0692  0.1659
 1126YOPC   C1A16343   6.399  12.206   6.808  0.2356 -0.2554  0.0586
 1126YOPC   D2A16344   6.320  12.278   7.156 -0.0575  0.0980  0.1369
 1126YOPC   C3A16345   6.687  12.184   7.346 -0.0029  0.0834  0.3820
 1126YOPC   C4A16346   7.080  12.101   7.560 -0.0052  0.0206 -0.3448
 1126YOPC   C1B16347   6.618  11.497   6.744 -0.0003  0.1023 -0.0164
 1126YOPC   C2B16348   6.779  11.258   7.034 -0.2921  0.1734  0.0676
 1126YOPC   D3B16349   6.604  11.225   7.471  0.2088 -0.0408  0.2537
 1126YOPC   C4B16350   6.619  11.492   7.833  0.0144  0.3261 -0.1496
 1127YOPC   NC316351   2.587   9.734   6.096 -0.2143  0.1916 -0.2084
 1127YOPC   PO416352   2.182   9.411   6.134 -0.1798 -0.2040 -0.1910
 1127YOPC   GL116353   2.256   9.455   6.587 -0.2930 -0.0965 -0.1060
 1127YOPC   GL216354   2.243   9.103   6.812  0.1755  0.3454  0.0319
 1127YOPC   C1A16355   2.616   9.507   6.902  0.1739  0.1728 -0.0204
 1127YOPC   D2A16356   2.904   9.447   7.258 -0.1445 -0.0054  0.0658
 1127YOPC   C3A16357   3.081   9.568   7.584  0.0048 -0.2382  0.2538
 1127YOPC   C4A16358   3.232   9.502   7.974  0.0746  0.1370 -0.2109
 1127YOPC   C1B16359   2.135   9.129   7.173 -0.0895 -0.0827 -0.1423
 1127YOPC   C2B16360   2.045   9.307   7.607  0.2337  0.2936 -0.2373
 1127YOPC   D3B16361   1.937   9.697   7.748 -0.0395  0.0238  0.2334
 1127YOPC   C4B16362   1.811   9.745   8.215 -0.0725 -0.1401 -0.1190
 1128YOPC   NC316363   3.044  14.024   6.044  0.2098 -0.2047 -0.0399
 1128YOPC   PO416364   3.118  13.619   6.223 -0.2657 -0.2842  0.4856
 1128YOPC   GL116365   3.061  13.448   6.613  0.1586 -0.0218 -0.2009
 1128YOPC   GL216366   2.649  13.494   6.793  0.3648 -0.2917 -0.0144
 1128YOPC   C1A16367   3.101  13.242   6.974 -0.1102 -0.0353  0.2972
 1128YOPC   D2A16368   3.080  13.157   7.428  0.2207  0.4704  0.0144
 1128YOPC   C3A16369   3.154  13.231   7.802 -0.3781 -0.0581 -0.1325
 1128YOPC   C4A16370   3.479  13.293   8.208  0.0066 -0.0337 -0.4835
 1128YOPC   C1B16371   2.992  13.747   6.966  0.0331 -0.1202  0.0421
 1128YOPC   C2B16372   3.289  14.062   7.086 -0.1572 -0.0144  0.1031
 1128YOPC   D3B16373   3.266  14.156   7.520  0.2596 -0.2914  0.3589
 1128YOPC   C4B16374   3.045  14.196   7.918  0.1980 -0.0788  0.1564
 1129YOPC   NC316375   7.103  10.766   5.930  0.0111 -0.0969 -0.0847
 1129YOPC   PO416376   6.775  10.551   6.065  0.2531 -0.0116 -0.2755
 1129YOPC   GL116377   6.652  10.432   6.550  0.3947 -0.2177 -0.3849
 1129YOPC   GL216378   6.279  10.366   6.703 -0.2263  0.2653 -0.2468
 1129YOPC   C1A16379   6.743  10.148   6.725  0.1403 -0.1707  0.0797
 1129YOPC   D2A16380   6.841  10.119   7.176  0.1746 -0.1299  0.0702
 1129YOPC   C3A16381   7.052  10.358   7.620  0.2059 -0.0553  0.0022
 1129YOPC   C4A16382   7.049  10.630   8.018  0.1884  0.5662  0.0614
 1129YOPC   C1B16383   6.333  10.231   7.125  0.1045 -0.0189 -0.3237
 1129YOPC   C2B16384   6.062  10.160   7.584 -0.1138 -0.0057 -0.0377
 1129YOPC   D3B16385   5.832  10.237   7.978 -0.0603  0.1029 -0.1345
 1129YOPC   C4B16386   5.574  10.406   8.290 -0.2069 -0.2850  0.4324
 1130YOPC   NC316387  17.771   6.085   6.057 -0.2114  0.2946 -0.0561
 1130YOPC   PO416388  17.327   5.971   5.871  0.2330  0.1230 -0.3037
 1130YOPC   GL116389  17.350   5.780   6.239 -0.0686 -0.3544  0.1413
 1130YOPC   GL216390  17.541   5.920   6.455 -0.2265 -0.1190 -0.0680
 1130YOPC   C1A16391  17.241   5.393   6.457 -0.0490 -0.0988  0.1515
 1130YOPC   D2A16392  16.983   5.222   6.725  0.0742 -0.1809 -0.1057
 1130YOPC   C3A16393  16.930   5.154   7.152 -0.2106  0.1223 -0.0511
 1130YOPC   C4A16394  16.810   5.013   7.564 -0.0192 -0.0680  0.1681
 1130YOPC   C1B16395  17.662   6.267   6.673 -0.0258 -0.1008  0.0189
 1130YOPC   C2B16396  17.859   6.345   6.987  0.1691  0.2727  0.0131
 1130YOPC   D3B16397  17.882   6.119   7.412 -0.1048 -0.0328 -0.2625
 1130YOPC   C4B16398  18.210   5.981   7.723 -0.1122 -0.2162  0.3622
 1131YOPC   NC316399   6.810   8.541   5.953  0.1108 -0.1993 -0.2959
 1131YOPC   PO416400   7.001   8.299   5.768 -0.0967 -0.0514 -0.0162
 1131YOPC   GL116401   7.213   8.062   6.028 -0.1208  0.2937  0.1090
 1131YOPC   GL216402   6.978   7.846   6.138  0.0364  0.2195  0.0946
 1131YOPC   C1A16403   7.415   7.837   6.293  0.3382  0.2689 -0.2389
 1131YOPC   D2A16404   7.469   7.859   6.718 -0.1146 -0.0327  0.3593
 1131YOPC   C3A16405   7.887   7.885   6.809 -0.0061  0.0908 -0.1726
 1131YOPC   C4A16406   8.264   7.883   7.161 -0.2380  0.0418 -0.1354
 1131YOPC   C1B16407   6.905   7.743   6.537 -0.0452 -0.2957  0.0533
 1131YOPC   C2B16408   6.722   7.763   6.990 -0.2423  0.0229  0.1462
 1131YOPC   D3B16409   6.907   7.770   7.326 -0.0358 -0.0847  0.0683
 1131YOPC   C4B16410   7.234   7.630   7.690 -0.2600  0.0423 -0.0048
 1132YOPC   NC316411   8.185  17.494   5.868 -0.1531 -0.0338 -0.0418
 1132YOPC   PO416412   8.568  17.602   6.216  0.2829 -0.3103 -0.0151
 1132YOPC   GL116413   8.743  17.613   6.596  0.2007 -0.0851 -0.0151
 1132YOPC   GL216414   8.973  17.449   6.671  0.0583 -0.0473 -0.0194
 1132YOPC   C1A16415   8.675  17.697   6.987  0.1665  0.1405  0.2326
 1132YOPC   D2A16416   8.577  17.850   7.363  0.3284  0.0139 -0.0112
 1132YOPC   C3A16417   8.498  17.640   7.775 -0.1862  0.1651 -0.0392
 1132YOPC   C4A16418   8.224  17.467   8.104 -0.0461 -0.0294  0.2878
 1132YOPC   C1B16419   8.975  17.253   7.022 -0.0172 -0.2047  0.2086
 1132YOPC   C2B16420   8.964  17.027   7.479 -0.0657 -0.0008  0.0259
 1132YOPC   D3B16421   9.176  17.249   7.893  0.1297  0.0599  0.1194
 1132YOPC   C4B16422   9.281  17.446   8.294 -0.1565 -0.4126 -0.1443
 1133YOPC   NC316423   8.438   1.982   5.505  0.0482  0.0770 -0.0369
 1133YOPC   PO416424   8.607   2.350   5.789  0.0289 -0.2787 -0.0512
 1133YOPC   GL116425   8.842   2.704   6.030 -0.1351 -0.7127  0.0848
 1133YOPC   GL216426   9.069   3.008   5.925  0.1820  0.4393 -0.3193
 1133YOPC   C1A16427   8.868   2.665   6.376 -0.1096  0.0237  0.1899
 1133YOPC   D2A16428   8.922   2.832   6.808  0.2797  0.2059  0.1363
 1133YOPC   C3A16429   9.045   2.728   7.276 -0.0521  0.0060 -0.2845
 1133YOPC   C4A16430   8.880   2.544   7.578 -0.2156  0.1222 -0.2771
 1133YOPC   C1B16431   9.220   3.050   6.350 -0.0569  0.0211 -0.0289
 1133YOPC   C2B16432   9.291   3.165   6.794 -0.1202  0.3112 -0.2194
 1133YOPC   D3B16433   9.013   3.256   7.232 -0.1613 -0.1645 -0.0498
 1133YOPC   C4B16434   9.087   3.445   7.503 -0.0239 -0.1802 -0.3310
 1134YOPC   NC316435   3.032   9.748   6.126 -0.2584  0.1360  0.1124
 1134YOPC   PO416436   2.840   9.992   6.422  0.1185 -0.1293  0.0052
 1134YOPC   GL116437   2.873   9.909   6.800 -0.0869 -0.2462  0.2286
 1134YOPC   GL216438   2.612  10.220   6.975  0.1389  0.0580 -0.1980
 1134YOPC   C1A16439   3.148   9.878   7.167  0.1823  0.1349 -0.1727
 1134YOPC   D2A16440   3.379  10.011   7.465 -0.0818 -0.0608 -0.2446
 1134YOPC   C3A16441   3.644   9.744   7.733  0.2189 -0.0126 -0.0554
 1134YOPC   C4A16442   3.886   9.600   8.088  0.1742 -0.1494  0.0748
 1134YOPC   C1B16443   2.671   9.985   7.320  0.0284 -0.0257 -0.0219
 1134YOPC   C2B16444   2.867  10.117   7.619  0.0758  0.0198  0.3172
 1134YOPC   D3B16445   3.138  10.023   7.911  0.3831  0.0805 -0.0398
 1134YOPC   C4B16446   3.467   9.915   8.191  0.5590 -0.1707  0.1218
 1135YOPC   NC316447   6.688  17.670   5.973 -0.0237 -0.0637  0.1339
 1135YOPC   PO416448   6.265  17.646   5.947 -0.0626 -0.0353 -0.2569
 1135YOPC   GL116449   6.157  17.502   6.378  0.1998  0.0438  0.1349
 1135YOPC   GL216450   5.991  17.622   6.575 -0.3701 -0.4623  0.1213
 1135YOPC   C1A16451   6.208  17.165   6.625  0.0732 -0.0289  0.0842
 1135YOPC   D2A16452   6.708  16.908   6.539  0.2185  0.0284  0.1449
 1135YOPC   C3A16453   6.987  16.906   6.846  0.2514  0.1215 -0.0084
 1135YOPC   C4A16454   7.196  16.973   7.232  0.2263  0.0872  0.2440
 1135YOPC   C1B16455   5.953  17.771   6.944 -0.2483  0.0257  0.1754
 1135YOPC   C2B16456   5.793  17.705   7.274  0.1495 -0.3742  0.1991
 1135YOPC   D3B16457   6.020  17.424   7.565  0.3810 -0.0855  0.1415
 1135YOPC   C4B16458   6.386  17.200   7.563 -0.0924  0.2728  0.0004
 1136YOPC   NC316459   4.768  10.603   6.017 -0.4150 -0.3094  0.2966
 1136YOPC   PO416460   5.164  10.378   5.869  0.2757  0.2016 -0.0329
 1136YOPC   GL116461   5.228  10.271   6.264 -0.2270 -0.0478 -0.1943
 1136YOPC   GL216462   5.409  10.076   6.285 -0.4375  0.0231  0.1404
 1136YOPC   C1A16463   5.105  10.651   6.589  0.5854 -0.1641 -0.1097
 1136YOPC   D2A16464   5.443  10.929   6.868  0.0485 -0.3669  0.1136
 1136YOPC   C3A16465   5.506  10.917   7.391 -0.2274  0.0844 -0.3615
 1136YOPC   C4A16466   5.578  10.665   7.787 -0.2789 -0.2260 -0.0164
 1136YOPC   C1B16467   5.400  10.210   6.775  0.0433 -0.1400 -0.0132
 1136YOPC   C2B16468   5.213  10.477   7.035 -0.1637  0.0974 -0.4417
 1136YOPC   D3B16469   5.149  10.565   7.511 -0.1223  0.0900  0.4242
 1136YOPC   C4B16470   4.891  10.371   7.839  0.0041  0.1257  0.3249
 1137YOPC   NC316471  16.812   7.621   5.573  0.0087 -0.2452 -0.0134
 1137YOPC   PO416472  16.710   7.316   5.720 -0.0234 -0.0171  0.2099
 1137YOPC   GL116473  16.685   7.032   6.023  0.0139  0.0339 -0.1295
 1137YOPC   GL216474  16.585   7.228   6.214 -0.0561  0.0606 -0.1557
 1137YOPC   C1A16475  16.742   6.775   6.401 -0.1295 -0.0920 -0.0624
 1137YOPC   D2A16476  16.922   6.497   6.823  0.0463  0.1561 -0.0273
 1137YOPC   C3A16477  16.651   6.621   7.111  0.1215  0.0036 -0.1210
 1137YOPC   C4A16478  16.286   6.471   7.218 -0.1759  0.1440  0.0337
 1137YOPC   C1B16479  16.378   7.156   6.553  0.0918  0.1202 -0.2712
 1137YOPC   C2B16480  16.310   7.481   6.909  0.0942  0.1656  0.0375
 1137YOPC   D3B16481  16.391   7.345   7.399  0.1227 -0.1956 -0.0778
 1137YOPC   C4B16482  16.410   7.275   7.764  0.0906 -0.0932 -0.3201
 1138YOPC   NC316483   0.188   8.774   5.770 -0.1195  0.1969  0.0789
 1138YOPC   PO416484   0.548   8.582   5.857  0.0574  0.0866  0.1778
 1138YOPC   GL116485   0.489   8.314   6.198 -0.2465 -0.1981 -0.1103
 1138YOPC   GL216486   0.265   8.424   6.361 -0.1828 -0.1068  0.1057
 1138YOPC   C1A16487   0.485   7.994   6.631 -0.0881  0.2022  0.1936
 1138YOPC   D2A16488   0.602   7.935   7.054 -0.0337 -0.0888 -0.1793
 1138YOPC   C3A16489   0.717   8.407   7.214  0.2279 -0.1086 -0.3833
 1138YOPC   C4A16490   0.741   8.635   7.584  0.0273  0.0406 -0.3701
 1138YOPC   C1B16491   0.060   8.428   6.705  0.4141  0.0778 -0.2531
 1138YOPC   C2B16492  -0.087   8.562   7.054 -0.1064  0.1768 -0.1856
 1138YOPC   D3B16493   0.254   8.740   7.351 -0.0143  0.0611  0.3137
 1138YOPC   C4B16494   0.311   8.952   7.749  0.1941  0.0333 -0.0942
 1139YOPC   NC316495  17.016  11.433   5.580  0.2194  0.0896 -0.0795
 1139YOPC   PO416496  17.324  11.758   5.682  0.0706  0.5497 -0.0045
 1139YOPC   GL116497  17.522  11.713   6.130 -0.2350 -0.0540 -0.1003
 1139YOPC   GL216498  17.618  11.427   6.323  0.3260  0.5140  0.0872
 1139YOPC   C1A16499  17.618  11.840   6.622 -0.0684  0.0655  0.1335
 1139YOPC   D2A16500  17.682  11.751   7.097 -0.0007  0.1563  0.1272
 1139YOPC   C3A16501  17.587  11.574   7.510 -0.0849  0.2486 -0.0728
 1139YOPC   C4A16502  17.550  11.769   7.906  0.1856  0.0517 -0.0968
 1139YOPC   C1B16503  17.409  11.419   6.777  0.0859 -0.1393 -0.0098
 1139YOPC   C2B16504  17.388  11.272   7.170 -0.0392 -0.2900  0.2727
 1139YOPC   D3B16505  17.185  10.930   7.389 -0.2560 -0.0681 -0.0466
 1139YOPC   C4B16506  17.149  10.780   7.874  0.1651  0.1079 -0.0758
 1140YOPC   NC316507  15.572  17.944   5.616  0.2446  0.1026  0.1962
 1140YOPC   PO416508  15.235  18.081   5.734  0.1785 -0.0828 -0.6069
 1140YOPC   GL116509  15.347  17.987   6.167  0.1035  0.1760 -0.1305
 1140YOPC   GL216510  15.305  17.714   6.388  0.1693  0.0938 -0.0891
 1140YOPC   C1A16511  15.516  18.243   6.497 -0.1971  0.0907  0.0963
 1140YOPC   D2A16512  15.493  18.505   6.880  0.0999  0.0654  0.0951
 1140YOPC   C3A16513  15.776  18.433   7.230  0.0049  0.0912 -0.2393
 1140YOPC   C4A16514  16.005  18.312   7.646 -0.1027  0.1170  0.1206
 1140YOPC   C1B16515  15.564  17.700   6.704  0.0419 -0.3519 -0.0507
 1140YOPC   C2B16516  15.684  17.990   6.885  0.0221 -0.0892  0.1714
 1140YOPC   D3B16517  15.734  17.855   7.423 -0.2705 -0.2010  0.0718
 1140YOPC   C4B16518  15.454  17.751   7.829 -0.0702  0.1834  0.2875
 1141YOPC   NC316519   8.433   4.235   5.695  0.0947  0.3757  0.1221
 1141YOPC   PO416520   8.087   3.805   5.725  0.0557 -0.0774  0.4115
 1141YOPC   GL116521   8.254   3.715   6.198 -0.0928  0.0852 -0.1170
 1141YOPC   GL216522   8.187   3.464   6.341  0.0159 -0.1444 -0.0413
 1141YOPC   C1A16523   8.582   3.755   6.500  0.1931 -0.2791  0.0211
 1141YOPC   D2A16524   8.616   3.829   6.889  0.1264  0.2462  0.3300
 1141YOPC   C3A16525   8.777   3.840   7.305 -0.2343  0.0004 -0.1325
 1141YOPC   C4A16526   9.011   3.989   7.589  0.0886 -0.0885  0.0839
 1141YOPC   C1B16527   8.182   3.566   6.780  0.2875 -0.3304 -0.0159
 1141YOPC   C2B16528   8.210   3.863   7.198 -0.1168 -0.0209  0.1452
 1141YOPC   D3B16529   8.355   3.831   7.546  0.2686 -0.4608  0.1075
 1141YOPC   C4B16530   8.636   3.636   7.803 -0.1733  0.1185 -0.1196
 1142YOPC   NC316531   6.023  11.116   5.864 -0.1930 -0.2205  0.1297
 1142YOPC   PO416532   5.700  11.082   6.127 -0.0549  0.0382  0.0600
 1142YOPC   GL116533   5.814  11.151   6.483  0.0972 -0.4622  0.0114
 1142YOPC   GL216534   6.153  11.293   6.541 -0.4270  0.1113 -0.0199
 1142YOPC   C1A16535   5.800  11.244   6.934 -0.2679  0.0324 -0.0921
 1142YOPC   D2A16536   5.727  11.429   7.320  0.1971  0.3860 -0.0165
 1142YOPC   C3A16537   5.677  11.291   7.707 -0.2092 -0.2458 -0.1696
 1142YOPC   C4A16538   5.751  11.200   8.075 -0.0187  0.2324 -0.1823
 1142YOPC   C1B16539   6.308  11.194   7.076  0.1897 -0.4116  0.2502
 1142YOPC   C2B16540   6.104  11.153   7.436  0.1541  0.0627 -0.0524
 1142YOPC   D3B16541   6.215  11.069   7.786 -0.0559  0.2894  0.0699
 1142YOPC   C4B16542   6.227  11.307   8.103 -0.0164 -0.2769 -0.2451
 1143YOPC   NC316543  17.692   7.946   6.007  0.0294  0.0167  0.0660
 1143YOPC   PO416544  17.981   7.554   6.183  0.0146  0.0372 -0.0630
 1143YOPC   GL116545  17.809   7.359   6.530  0.3732 -0.0875  0.1554
 1143YOPC   GL216546  17.992   7.200   6.705 -0.2045 -0.0120 -0.0423
 1143YOPC   C1A16547  17.517   7.219   6.838  0.2189  0.3201  0.0845
 1143YOPC   D2A16548  17.441   7.056   7.228  0.1621  0.2386 -0.2853
 1143YOPC   C3A16549  17.311   7.164   7.613  0.3247 -0.1843 -0.0037
 1143YOPC   C4A16550  17.197   7.500   7.869  0.1266 -0.2227  0.3258
 1143YOPC   C1B16551  18.021   7.437   7.115  0.0675 -0.2462 -0.2419
 1143YOPC   C2B16552  18.196   7.533   7.526  0.2099 -0.0166  0.3475
 1143YOPC   D3B16553  17.981   7.877   7.718 -0.1668  0.1102 -0.0001
 1143YOPC   C4B16554  18.133   8.198   7.934  0.1345 -0.2920  0.0007
 1144YOPC   NC316555   5.992   7.510   6.024  0.3486 -0.1328  0.0064
 1144YOPC   PO416556   6.407   7.568   6.181  0.2004 -0.1122 -0.1303
 1144YOPC   GL116557   6.509   7.997   6.410 -0.1244  0.1291  0.0182
 1144YOPC   GL216558   6.688   8.294   6.428 -0.2297 -0.0585 -0.1088
 1144YOPC   C1A16559   6.457   8.232   6.858  0.1804 -0.0717  0.0791
 1144YOPC   D2A16560   6.075   8.380   7.135 -0.2066  0.0599 -0.1096
 1144YOPC   C3A16561   6.192   8.469   7.506  0.2151  0.1997 -0.1676
 1144YOPC   C4A16562   6.139   8.876   7.757  0.1674  0.1848 -0.0088
 1144YOPC   C1B16563   6.921   8.517   6.734 -0.1927 -0.1616  0.0042
 1144YOPC   C2B16564   6.821   8.535   7.171  0.2752 -0.1278 -0.0025
 1144YOPC   D3B16565   6.651   8.197   7.286  0.0538 -0.4478 -0.2233
 1144YOPC   C4B16566   6.683   7.965   7.748  0.1414 -0.0640 -0.1342
 1145YOPC   NC316567   9.114   4.793   5.595  0.3353 -0.3633  0.1785
 1145YOPC   PO416568   8.864   4.475   5.715 -0.0531 -0.0943  0.1030
 1145YOPC   GL116569   8.628   4.445   6.122 -0.0057 -0.1650  0.0173
 1145YOPC   GL216570   8.438   4.178   6.191  0.1776 -0.2728 -0.2683
 1145YOPC   C1A16571   8.709   4.262   6.623 -0.1367  0.1707  0.0388
 1145YOPC   D2A16572   8.351   4.404   6.868  0.0231  0.0767 -0.0698
 1145YOPC   C3A16573   8.298   4.422   7.302  0.2210  0.0063  0.2731
 1145YOPC   C4A16574   7.912   4.270   7.454  0.2283  0.0566 -0.0377
 1145YOPC   C1B16575   8.176   4.016   6.578 -0.2485  0.1308 -0.2862
 1145YOPC   C2B16576   7.906   4.202   6.949  0.3192  0.0737  0.1526
 1145YOPC   D3B16577   7.553   4.499   7.077 -0.0786 -0.2417  0.0980
 1145YOPC   C4B16578   7.141   4.635   6.978  0.1117  0.1851 -0.1243
 1146ERGO   ROH16579   9.313   0.952   6.414  0.0643  0.2764  0.1149
 1146ERGO    R116580   9.263   0.926   6.691 -0.0784  0.1944  0.0831
 1146ERGO    R216581   9.457   0.845   6.871 -0.2396 -0.1210  0.1271
 1146ERGO    R316582   9.390   1.076   6.998 -0.0260 -0.1024  0.2091
 1146ERGO    R416583   9.583   0.946   7.176 -0.0267 -0.2622  0.0875
 1146ERGO    R516584   9.384   1.016   7.230  0.0473 -0.1424  0.1985
 1146ERGO    C116585   9.594   1.222   7.473  0.2976 -0.3269  0.1416
 1146ERGO    C216586   9.629   1.392   7.879 -0.2179 -0.0704 -0.0180
 1147ERGO   ROH16587  10.949  14.889   6.157  0.1687  0.1472 -0.0017
 1147ERGO    R116588  11.132  14.863   6.371  0.1388  0.1255  0.0218
 1147ERGO    R216589  11.112  15.013   6.603 -0.0061 -0.0325  0.1162
 1147ERGO    R316590  11.116  14.769   6.723  0.1193 -0.1091 -0.0406
 1147ERGO    R416591  11.229  14.951   6.922  0.0587 -0.1858  0.0635
 1147ERGO    R516592  11.320  14.767   6.849  0.1341 -0.0975 -0.0657
 1147ERGO    C116593  11.300  14.686   7.221  0.2142 -0.3469 -0.1143
 1147ERGO    C216594  11.313  14.638   7.588 -0.1119  0.2422  0.0339
 1148ERGO   ROH16595  14.998  10.202   6.340  0.0995  0.0631 -0.0931
 1148ERGO    R116596  15.072  10.151   6.608  0.1796  0.0020 -0.1277
 1148ERGO    R216597  15.317  10.228   6.713  0.1106  0.2011 -0.1170
 1148ERGO    R316598  15.162  10.349   6.900  0.0046 -0.0536 -0.0342
 1148ERGO    R416599  15.395  10.251   7.048  0.1358  0.1248 -0.1164
 1148ERGO    R516600  15.186  10.211   7.095  0.1814 -0.1241 -0.1022
 1148ERGO    C116601  15.295  10.378   7.420  0.0511 -0.1588 -0.0381
 1148ERGO    C216602  15.477  10.383   7.716 -0.0527 -0.0262 -0.0648
 1149ERGO   ROH16603   1.822  17.627   6.847 -0.0001  0.0368 -0.0513
 1149ERGO    R116604   1.800  17.651   7.128 -0.1306  0.0790 -0.0640
 1149ERGO    R216605   1.726  17.440   7.290  0.0065  0.0410 -0.0450
 1149ERGO    R316606   1.957  17.500   7.420 -0.0966  0.2908  0.0283
 1149ERGO    R416607   1.778  17.399   7.629 -0.0369  0.0506 -0.0376
 1149ERGO    R516608   1.886  17.589   7.631 -0.2571  0.1759  0.0225
 1149ERGO    C116609   2.026  17.432   7.949 -0.1590  0.2902  0.0355
 1149ERGO    C216610   1.855  17.442   8.284 -0.0425 -0.0732 -0.0579
 1150ERGO   ROH16611  12.364   8.146   5.994  0.0442 -0.2269 -0.1511
 1150ERGO    R116612  12.491   8.146   6.247 -0.0358 -0.0444 -0.1103
 1150ERGO    R216613  12.406   8.306   6.455 -0.2334 -0.0492 -0.1877
 1150ERGO    R316614  12.397   8.070   6.590 -0.0815 -0.0155 -0.1157
 1150ERGO    R416615  12.394   8.276   6.799 -0.2200  0.0515 -0.1776
 1150ERGO    R516616  12.532   8.108   6.784 -0.1077  0.1348 -0.1232
 1150ERGO    C116617  12.379   8.036   7.126 -0.0696  0.1418 -0.1042
 1150ERGO    C216618  12.216   8.008   7.359  0.0140 -0.3328  0.3370
 1151ERGO   ROH16619  10.629  11.054   6.322 -0.2582 -0.1730 -0.0025
 1151ERGO    R116620  10.473  11.139   6.542 -0.1493 -0.0721  0.0357
 1151ERGO    R216621  10.473  11.008   6.784 -0.0462  0.0292  0.0849
 1151ERGO    R316622  10.534  11.254   6.882  0.0135  0.0647 -0.0362
 1151ERGO    R416623  10.420  11.107   7.111  0.0120  0.1783  0.0506
 1151ERGO    R516624  10.355  11.302   7.035  0.0359  0.1624 -0.0322
 1151ERGO    C116625  10.447  11.396   7.394  0.1020  0.2985 -0.0830
 1151ERGO    C216626  10.436  11.459   7.755 -0.2710 -0.1015  0.0033
 1152ERGO   ROH16627  17.501   0.657   9.806  0.0965 -0.1402  0.1235
 1152ERGO    R116628  17.588   0.749   9.553  0.1523 -0.1469  0.1409
 1152ERGO    R216629  17.744   0.595   9.385  0.0456 -0.2158  0.1084
 1152ERGO    R316630  17.546   0.648   9.206  0.0781 -0.0476  0.1197
 1152ERGO    R416631  17.783   0.596   9.041  0.1268  0.1607  0.1139
 1152ERGO    R516632  17.655   0.772   9.032  0.1047  0.1579  0.2759
 1152ERGO    C116633  17.620   0.646   8.673  0.2045  0.5377  0.1278
 1152ERGO    C216634  17.643   0.706   8.314 -0.1662 -0.2025 -0.3703
 1153ERGO   ROH16635   3.372  10.005   6.495 -0.1209 -0.0287  0.1026
 1153ERGO    R116636   3.601  10.006   6.662 -0.0579  0.0402  0.0177
 1153ERGO    R216637   3.585   9.971   6.935  0.0481  0.1095  0.0368
 1153ERGO    R316638   3.765   9.773   6.887  0.0495  0.1163  0.0172
 1153ERGO    R416639   3.738   9.780   7.180 -0.1027 -0.0567  0.0025
 1153ERGO    R516640   3.924   9.792   7.066 -0.0432 -0.0117  0.1114
 1153ERGO    C116641   3.995   9.482   7.277 -0.1892 -0.1471 -0.0358
 1153ERGO    C216642   4.019   9.341   7.699 -0.1535 -0.1906  0.1330
 1154ERGO   ROH16643   7.198   6.846  10.172  0.0220 -0.2377 -0.0672
 1154ERGO    R116644   7.100   6.738   9.929 -0.1647 -0.0070 -0.0972
 1154ERGO    R216645   6.974   6.893   9.738  0.1523  0.2784 -0.0834
 1154ERGO    R316646   7.163   6.787   9.574 -0.0299 -0.0632 -0.0823
 1154ERGO    R416647   6.968   6.913   9.393  0.1293  0.1881 -0.0885
 1154ERGO    R516648   7.038   6.706   9.385 -0.1874  0.0708 -0.0399
 1154ERGO    C116649   7.142   6.825   9.038 -0.0552 -0.1852 -0.0906
 1154ERGO    C216650   7.226   6.760   8.728 -0.2137  0.3439  0.0989
 1155ERGO   ROH16651   7.720  16.613   6.516  0.2516  0.2695 -0.0436
 1155ERGO    R116652   7.868  16.453   6.696  0.0220  0.1213  0.0167
 1155ERGO    R216653   8.065  16.555   6.860  0.0839 -0.0798  0.0663
 1155ERGO    R316654   7.920  16.436   7.056 -0.1053  0.0936  0.0351
 1155ERGO    R416655   8.187  16.469   7.171 -0.0823 -0.2247  0.0932
 1155ERGO    R516656   8.073  16.284   7.159 -0.3052 -0.0925  0.0688
 1155ERGO    C116657   8.121  16.307   7.537 -0.3568 -0.1463  0.0795
 1155ERGO    C216658   8.007  16.379   7.885  0.0528 -0.0208 -0.0346
 1156ERGO   ROH16659  14.632  17.493   9.990 -0.0343 -0.1076 -0.1001
 1156ERGO    R116660  14.521  17.573   9.742  0.1290  0.0414 -0.1279
 1156ERGO    R216661  14.675  17.625   9.519  0.2504 -0.2504 -0.1175
 1156ERGO    R316662  14.510  17.443   9.402 -0.0424 -0.0001 -0.1071
 1156ERGO    R416663  14.620  17.599   9.179  0.2813 -0.2456 -0.1229
 1156ERGO    R516664  14.409  17.562   9.221  0.2042  0.1305 -0.1615
 1156ERGO    C116665  14.433  17.413   8.871  0.0246 -0.0076 -0.1163
 1156ERGO    C216666  14.462  17.437   8.574  0.0829  0.0049 -0.1451
 1157ERGO   ROH16667  15.681  16.708  10.229 -0.3142  0.2997  0.0634
 1157ERGO    R116668  15.602  16.758   9.962 -0.2363  0.0735 -0.0024
 1157ERGO    R216669  15.784  16.775   9.754 -0.1593  0.1338  0.0842
 1157ERGO    R316670  15.626  16.584   9.643  0.0817 -0.0801  0.0958
 1157ERGO    R416671  15.711  16.753   9.417 -0.4681  0.3210  0.1338
 1157ERGO    R516672  15.506  16.700   9.471 -0.3338 -0.1287  0.3241
 1157ERGO    C116673  15.521  16.560   9.116 -0.4216  0.2292  0.1736
 1157ERGO    C216674  15.568  16.495   8.803  0.3226  0.0193  0.1096
 1158ERGO   ROH16675   3.960  17.142   6.465  0.1048 -0.0252 -0.0803
 1158ERGO    R116676   3.975  16.958   6.680  0.0971  0.0222 -0.0410
 1158ERGO    R216677   4.151  16.990   6.891 -0.0870  0.2008  0.0804
 1158ERGO    R316678   3.925  16.967   7.040 -0.1781  0.0353 -0.0759
 1158ERGO    R416679   4.143  16.913   7.228 -0.2511  0.3070  0.1031
 1158ERGO    R516680   3.970  16.786   7.190 -0.1079  0.1241  0.0178
 1158ERGO    C116681   3.925  16.848   7.564 -0.4323  0.2136 -0.0304
 1158ERGO    C216682   3.766  16.889   7.896 -0.5620  0.2706  0.2391
 1159ERGO   ROH16683   9.171   6.835   5.794  0.0256  0.2919  0.0792
 1159ERGO    R116684   9.020   6.808   6.032 -0.1429  0.2352 -0.0324
 1159ERGO    R216685   9.138   6.781   6.280 -0.3147 -0.1140  0.0144
 1159ERGO    R316686   8.981   6.994   6.342 -0.1264 -0.0015  0.1140
 1159ERGO    R416687   8.981   6.827   6.584  0.1316  0.1342  0.2158
 1159ERGO    R516688   8.806   6.900   6.477  0.0121  0.1560  0.4160
 1159ERGO    C116689   8.742   7.054   6.821  0.5682  0.3844  0.4266
 1159ERGO    C216690   8.846   7.096   7.230 -0.0769 -0.0161 -0.1236
 1160ERGO   ROH16691   6.402  17.737   6.775 -0.0649 -0.1474 -0.0039
 1160ERGO    R116692   6.523  17.767   7.030  0.1487 -0.2478 -0.0902
 1160ERGO    R216693   6.376  17.773   7.265  0.2915  0.1591 -0.0001
 1160ERGO    R316694   6.544  17.572   7.336 -0.0502 -0.1395 -0.0073
 1160ERGO    R416695   6.477  17.703   7.587  0.4137  0.1602 -0.0376
 1160ERGO    R516696   6.676  17.664   7.512  0.2796 -0.2908 -0.1727
 1160ERGO    C116697   6.694  17.473   7.842  0.1640 -0.1192 -0.0662
 1160ERGO    C216698   6.718  17.375   8.182 -0.2376  0.0659  0.2797
 1161ERGO   ROH16699   2.709  13.032   6.611  0.3135 -0.1003  0.1566
 1161ERGO    R116700   2.605  12.975   6.868  0.0720 -0.0227  0.0795
 1161ERGO    R216701   2.659  12.738   7.001 -0.0911 -0.0014  0.1815
 1161ERGO    R316702   2.742  12.905   7.198 -0.2366  0.0248  0.2218
 1161ERGO    R416703   2.681  12.653   7.335  0.1803 -0.1417  0.1311
 1161ERGO    R516704   2.603  12.850   7.385 -0.0804 -0.2687  0.2620
 1161ERGO    C116705   2.771  12.761   7.715  0.2017 -0.1988  0.1396
 1161ERGO    C216706   2.602  12.848   7.984  0.2603 -0.2937 -0.2403
 1162ERGO   ROH16707  11.118   3.555   9.747  0.3563  0.2146 -0.0985
 1162ERGO    R116708  11.043   3.445   9.496  0.3055  0.0177  0.0012
 1162ERGO    R216709  10.910   3.591   9.303 -0.0653 -0.2391  0.0541
 1162ERGO    R316710  11.117   3.511   9.147 -0.0757  0.0010 -0.0876
 1162ERGO    R416711  10.898   3.561   8.959 -0.2572 -0.2106  0.0569
 1162ERGO    R516712  11.015   3.379   8.976 -0.0468 -0.0907 -0.0366
 1162ERGO    C116713  11.086   3.469   8.612 -0.3785  0.0314 -0.0744
 1162ERGO    C216714  11.035   3.524   8.276 -0.0026 -0.3903 -0.0669
 1163ERGO   ROH16715   8.118   8.822   6.267 -0.1279  0.0203  0.0603
 1163ERGO    R116716   7.976   8.777   6.508 -0.1798  0.0522  0.0353
 1163ERGO    R216717   8.101   8.762   6.754 -0.2289  0.0417  0.0571
 1163ERGO    R316718   7.923   8.956   6.820 -0.2108  0.0718  0.0196
 1163ERGO    R416719   8.026   8.860   7.077 -0.1868  0.1360  0.0389
 1163ERGO    R516720   7.817   8.875   7.019 -0.1945  0.1318  0.0556
 1163ERGO    C116721   7.815   9.100   7.326 -0.1453  0.2191 -0.0068
 1163ERGO    C216722   7.707   9.037   7.649 -0.3569 -0.0416  0.2276
 1164ERGO   ROH16723   7.818   9.683   9.943 -0.1464  0.0458 -0.0045
 1164ERGO    R116724   7.825   9.863   9.725 -0.3077 -0.0571 -0.0935
 1164ERGO    R216725   8.015   9.848   9.525 -0.1754  0.1313  0.0305
 1164ERGO    R316726   7.797   9.840   9.363 -0.0745 -0.2863 -0.1043
 1164ERGO    R416727   8.026   9.832   9.180  0.1183  0.6665  0.0031
 1164ERGO    R516728   7.860   9.972   9.173 -0.3239  0.2037  0.1216
 1164ERGO    C116729   7.828   9.815   8.827  0.3840  0.5860 -0.1394
 1164ERGO    C216730   7.785   9.819   8.445 -0.0368  0.2781  0.2772
 1165ERGO   ROH16731   1.939   8.328   6.768 -0.0228  0.0676 -0.1111
 1165ERGO    R116732   1.780   8.393   6.992 -0.1219 -0.0444 -0.1491
 1165ERGO    R216733   1.609   8.211   7.111  0.2045 -0.2594 -0.0073
 1165ERGO    R316734   1.747   8.278   7.336  0.1062  0.1492 -0.0577
 1165ERGO    R416735   1.474   8.225   7.429  0.2264 -0.4890  0.0147
 1165ERGO    R516736   1.591   8.405   7.466 -0.1896 -0.1767 -0.0674
 1165ERGO    C116737   1.525   8.296   7.825  0.1470 -0.2391 -0.0198
 1165ERGO    C216738   1.442   8.356   8.076  0.1277 -0.3884  0.1247
 1166ERGO   ROH16739  11.873   6.076   5.731 -0.1509 -0.0242 -0.2403
 1166ERGO    R116740  11.612   6.161   5.799 -0.0917  0.1040 -0.1687
 1166ERGO    R216741  11.530   6.197   6.061 -0.0182  0.0905 -0.1446
 1166ERGO    R316742  11.462   6.445   5.971  0.0972  0.1490 -0.0748
 1166ERGO    R416743  11.331   6.422   6.232 -0.0599  0.0634 -0.1572
 1166ERGO    R516744  11.236   6.474   6.043  0.0612  0.1725 -0.1915
 1166ERGO    C116745  11.152   6.785   6.247  0.0240  0.1025 -0.0991
 1166ERGO    C216746  11.032   7.016   6.385 -0.0445  0.0558  0.0061
 1167ERGO   ROH16747   9.313   8.831   5.942  0.0617 -0.2996  0.0161
 1167ERGO    R116748   9.455   8.907   6.174  0.0313 -0.1573 -0.0106
 1167ERGO    R216749   9.465   9.168   6.263 -0.0072 -0.1039 -0.1492
 1167ERGO    R316750   9.376   9.058   6.495 -0.0185  0.0076 -0.1007
 1167ERGO    R416751   9.514   9.303   6.578  0.0627 -0.0126 -0.1992
 1167ERGO    R516752   9.551   9.102   6.653  0.0060  0.0065 -0.1322
 1167ERGO    C116753   9.459   9.278   6.978  0.0928  0.1453 -0.1828
 1167ERGO    C216754   9.395   9.196   7.363  0.0037 -0.4480  0.0243
 1168ERGO   ROH16755   8.960  18.119   6.616 -0.2844 -0.1727 -0.0008
 1168ERGO    R116756   9.073  18.007   6.851 -0.2320 -0.2141 -0.0442
 1168ERGO    R216757   9.161  18.162   7.063  0.0887 -0.2294 -0.1511
 1168ERGO    R316758   8.994  18.003   7.206  0.0142 -0.0059  0.0141
 1168ERGO    R416759   9.174  18.120   7.405  0.1826 -0.0448 -0.1316
 1168ERGO    R516760   9.134  17.908   7.376 -0.0053 -0.0231  0.0121
 1168ERGO    C116761   9.025  17.946   7.740  0.1672  0.2727  0.0349
 1168ERGO    C216762   9.144  18.041   8.028 -0.1348 -0.0164  0.1747
 1169ERGO   ROH16763  16.033  11.802  10.163 -0.3530 -0.0112 -0.0310
 1169ERGO    R116764  15.953  11.829   9.893 -0.2393 -0.0546 -0.0713
 1169ERGO    R216765  16.115  11.945   9.701 -0.2320  0.1003  0.0138
 1169ERGO    R316766  16.071  11.712   9.569  0.0291  0.0684 -0.0177
 1169ERGO    R416767  16.081  11.914   9.358 -0.2848  0.1058  0.0197
 1169ERGO    R516768  15.922  11.770   9.392 -0.0883 -0.0983  0.0338
 1169ERGO    C116769  16.021  11.677   9.035 -0.0701  0.0790 -0.0064
 1169ERGO    C216770  16.045  11.701   8.676  0.0391  0.0733 -0.2903
 1170ERGO   ROH16771  17.292   2.854   9.841 -0.1446  0.2023  0.2195
 1170ERGO    R116772  17.266   2.695   9.608  0.0749  0.0957  0.2651
 1170ERGO    R216773  17.082   2.751   9.409  0.0030 -0.2078  0.2404
 1170ERGO    R316774  17.301   2.745   9.249  0.0217  0.0384  0.2521
 1170ERGO    R416775  17.074   2.752   9.064  0.0084 -0.4607  0.2382
 1170ERGO    R516776  17.236   2.606   9.065  0.2497 -0.1995  0.3448
 1170ERGO    C116777  17.275   2.746   8.712  0.0289 -0.3768  0.2479
 1170ERGO    C216778  17.382   2.812   8.414  0.3472  0.2214 -0.1235
 1171ERGO   ROH16779   7.913   5.204   6.444 -0.0729 -0.0832  0.0309
 1171ERGO    R116780   7.921   5.166   6.724 -0.0241 -0.1985  0.0142
 1171ERGO    R216781   8.138   5.240   6.877 -0.0383 -0.1709  0.0182
 1171ERGO    R316782   7.951   5.378   7.018 -0.0805 -0.3100  0.1014
 1171ERGO    R416783   8.174   5.340   7.206  0.1302  0.0503 -0.0638
 1171ERGO    R516784   7.965   5.287   7.240  0.2157 -0.1765  0.1441
 1171ERGO    C116785   8.019   5.528   7.530  0.1886  0.0485 -0.0335
 1171ERGO    C216786   8.108   5.740   7.901  0.1419 -0.0334  0.2059
 1172ERGO   ROH16787  14.720   3.022   6.599  0.0697  0.1819 -0.0717
 1172ERGO    R116788  14.788   3.022   6.874 -0.0240  0.3939 -0.0462
 1172ERGO    R216789  14.629   3.143   7.067 -0.3307  0.1515 -0.1334
 1172ERGO    R316790  14.641   2.897   7.182  0.1029  0.1975 -0.0653
 1172ERGO    R416791  14.598   3.080   7.405 -0.3415  0.1721 -0.1311
 1172ERGO    R516792  14.756   2.932   7.388 -0.0451  0.4729 -0.0294
 1172ERGO    C116793  14.591   2.813   7.710  0.0594  0.2271 -0.0659
 1172ERGO    C216794  14.558   2.715   8.024  0.0680  0.0182  0.1119
 1173ERGO   ROH16795  15.644  17.812   9.698 -0.0224 -0.1548  0.0282
 1173ERGO    R116796  15.683  17.825   9.418  0.0090 -0.1055  0.0342
 1173ERGO    R216797  15.796  17.619   9.273  0.1067 -0.0465  0.0214
 1173ERGO    R316798  15.568  17.640   9.127  0.1161 -0.1139 -0.0023
 1173ERGO    R416799  15.760  17.509   8.948  0.2360  0.1356 -0.0555
 1173ERGO    R516800  15.644  17.689   8.905  0.1170  0.0811  0.0412
 1173ERGO    C116801  15.525  17.465   8.620  0.3199  0.1783 -0.1224
 1173ERGO    C216802  15.448  17.501   8.288  0.0414  0.0043 -0.0549
 1174ERGO   ROH16803   8.245   7.834   9.654  0.1240 -0.2250  0.0073
 1174ERGO    R116804   8.198   7.840   9.375 -0.0857 -0.4456  0.0326
 1174ERGO    R216805   8.338   8.007   9.204 -0.6389 -0.1039 -0.1273
 1174ERGO    R316806   8.391   7.774   9.073 -0.0911 -0.0273 -0.0649
 1174ERGO    R416807   8.349   7.971   8.861 -0.6386 -0.2053 -0.1160
 1174ERGO    R516808   8.247   7.780   8.882 -0.1569 -0.4564 -0.0288
 1174ERGO    C116809   8.404   7.732   8.538 -0.1243 -0.1925 -0.0509
 1174ERGO    C216810   8.562   7.825   8.306 -0.0122  0.1540  0.1714
 1175ERGO   ROH16811  17.092   7.166   6.494  0.0674 -0.2969 -0.0448
 1175ERGO    R116812  17.033   7.201   6.769  0.3252 -0.1031 -0.0095
 1175ERGO    R216813  16.802   7.104   6.885  0.1341  0.4862  0.1517
 1175ERGO    R316814  16.977   6.987   7.057 -0.0359  0.0671  0.0502
 1175ERGO    R416815  16.743   7.052   7.221  0.0180  0.1378  0.0816
 1175ERGO    R516816  16.950   7.109   7.261  0.0739 -0.1544  0.1958
 1175ERGO    C116817  16.872   6.912   7.579 -0.2093 -0.4586 -0.0545
 1175ERGO    C216818  16.649   6.778   7.852 -0.1223 -0.0563  0.0588
 1176ERGO   ROH16819  14.897  17.438   6.410 -0.2927  0.1376 -0.0042
 1176ERGO    R116820  14.767  17.226   6.545  0.0141 -0.0866 -0.0497
 1176ERGO    R216821  14.904  17.010   6.651  0.3523  0.1614  0.0426
 1176ERGO    R316822  14.775  17.081   6.879  0.1067 -0.0376 -0.0313
 1176ERGO    R416823  14.913  16.830   6.946  0.3259  0.0959  0.0030
 1176ERGO    R516824  14.700  16.872   6.971  0.2612 -0.1406 -0.1406
 1176ERGO    C116825  14.796  16.791   7.332  0.0800 -0.1293 -0.0895
 1176ERGO    C216826  14.903  16.672   7.538 -0.0120  0.0079  0.1572
 1177ERGO   ROH16827   3.580  14.838   6.547  0.0985 -0.4007  0.0994
 1177ERGO    R116828   3.397  14.977   6.713  0.1260 -0.2017 -0.0321
 1177ERGO    R216829   3.214  14.847   6.875 -0.0031 -0.0081 -0.0137
 1177ERGO    R316830   3.328  14.998   7.070  0.0277  0.0329 -0.0641
 1177ERGO    R416831   3.061  14.932   7.173  0.0206  0.1202 -0.0384
 1177ERGO    R516832   3.148  15.131   7.155  0.0579  0.0950 -0.1035
 1177ERGO    C116833   3.079  15.123   7.530  0.0632  0.2333 -0.1000
 1177ERGO    C216834   2.909  15.252   7.848  0.0825  0.0394  0.0154
 1178ERGO   ROH16835   1.370   4.170   9.845 -0.0869  0.1532  0.0268
 1178ERGO    R116836   1.181   4.231   9.643 -0.0975 -0.0280 -0.0182
 1178ERGO    R216837   1.172   4.477   9.517 -0.2396 -0.0735 -0.0877
 1178ERGO    R316838   1.192   4.327   9.292 -0.1129 -0.1218 -0.0462
 1178ERGO    R416839   1.089   4.585   9.199 -0.0006 -0.1070 -0.1638
 1178ERGO    R516840   1.002   4.390   9.161 -0.0163 -0.1023 -0.1880
 1178ERGO    C116841   1.060   4.507   8.803  0.2576 -0.1719 -0.1691
 1178ERGO    C216842   1.134   4.547   8.427 -0.0981 -0.2164 -0.1422
 1179ERGO   ROH16843  14.974  12.092   6.542  0.1699  0.0344  0.0318
 1179ERGO    R116844  14.963  12.166   6.815  0.2496 -0.0789  0.0652
 1179ERGO    R216845  14.744  12.115   6.975  0.2136  0.0458  0.0482
 1179ERGO    R316846  14.929  11.995   7.134  0.1125 -0.1905 -0.0070
 1179ERGO    R416847  14.713  12.072   7.316  0.1994 -0.0208  0.0395
 1179ERGO    R516848  14.924  12.122   7.337  0.2591 -0.2388  0.0325
 1179ERGO    C116849  14.869  11.935   7.665  0.0962 -0.2814 -0.0173
 1179ERGO    C216850  14.724  11.826   7.956  0.3717  0.3172  0.2267
 1180ERGO   ROH16851   4.029   1.328   6.926 -0.1261 -0.0829 -0.0258
 1180ERGO    R116852   4.104   1.192   7.162 -0.0314 -0.0003 -0.0073
 1180ERGO    R216853   4.173   1.325   7.395 -0.1169  0.0793 -0.0249
 1180ERGO    R316854   3.980   1.167   7.503 -0.0113 -0.0356 -0.0031
 1180ERGO    R416855   4.109   1.293   7.733  0.0097 -0.0464 -0.0123
 1180ERGO    R516856   4.079   1.080   7.703  0.0927 -0.0498 -0.0617
 1180ERGO    C116857   3.891   1.126   8.032  0.1825 -0.2274  0.0155
 1180ERGO    C216858   3.744   1.164   8.296 -0.2647 -0.0571 -0.1773
 1181ERGO   ROH16859  15.107  15.508   5.941  0.0076  0.0347 -0.1014
 1181ERGO    R116860  15.216  15.400   6.179 -0.0600 -0.0095 -0.0906
 1181ERGO    R216861  15.177  15.516   6.426  0.0202  0.0445 -0.1063
 1181ERGO    R316862  15.087  15.269   6.493 -0.1409  0.1109 -0.0716
 1181ERGO    R416863  15.140  15.401   6.750  0.3979 -0.0360 -0.0866
 1181ERGO    R516864  15.218  15.208   6.684  0.0985 -0.0997 -0.2905
 1181ERGO    C116865  15.033  15.101   7.001  0.4666 -0.0207 -0.0425
 1181ERGO    C216866  14.844  15.049   7.184  0.2808 -0.0322 -0.1599
 1182ERGO   ROH16867  10.971  18.091   6.686 -0.0338  0.0567 -0.1162
 1182ERGO    R116868  10.984  18.355   6.787  0.0685  0.0417 -0.0902
 1182ERGO    R216869  10.976  18.412   7.058 -0.0668  0.0275 -0.0914
 1182ERGO    R316870  11.207  18.544   7.004  0.0515 -0.1126  0.0638
 1182ERGO    R416871  11.145  18.615   7.281 -0.0341 -0.1598  0.0574
 1182ERGO    R516872  11.185  18.753   7.118  0.1400 -0.1330  0.1203
 1182ERGO    C116873  11.461  18.857   7.360  0.0959 -0.4003  0.2896
 1182ERGO    C216874  11.634  19.068   7.467 -0.0712  0.0179  0.3382
 1183ERGO   ROH16875  12.526   9.732   6.483 -0.2813 -0.0195 -0.0298
 1183ERGO    R116876  12.471   9.864   6.727 -0.2451  0.0096 -0.0382
 1183ERGO    R216877  12.423   9.727   6.963 -0.1946  0.0398 -0.0149
 1183ERGO    R316878  12.624   9.885   7.057 -0.1887  0.0647 -0.0664
 1183ERGO    R416879  12.535   9.732   7.290 -0.0019 -0.0764 -0.0765
 1183ERGO    R516880  12.552   9.949   7.276 -0.0827 -0.0590  0.0093
 1183ERGO    C116881  12.788   9.883   7.568  0.1157 -0.1206 -0.1607
 1183ERGO    C216882  13.099   9.762   7.699  0.0976  0.2875  0.0316
 1184ERGO   ROH16883   8.921   9.106   6.024  0.1085  0.3712 -0.0565
 1184ERGO    R116884   9.022   9.121   6.288  0.0390  0.3493 -0.0288
 1184ERGO    R216885   9.019   9.354   6.436 -0.1851  0.2896  0.0635
 1184ERGO    R316886   8.889   9.200   6.618 -0.0986  0.1104 -0.0239
 1184ERGO    R416887   9.013   9.413   6.777 -0.1125  0.0231  0.1129
 1184ERGO    R516888   9.033   9.198   6.809 -0.0470 -0.0009 -0.0609
 1184ERGO    C116889   8.887   9.302   7.146  0.0111 -0.3003  0.0595
 1184ERGO    C216890   8.953   9.311   7.533  0.0636  0.0071 -0.0413
 1185ERGO   ROH16891  16.173  16.806   6.319 -0.0451  0.2598  0.0391
 1185ERGO    R116892  16.257  16.856   6.585  0.0752  0.1025  0.0323
 1185ERGO    R216893  16.112  16.773   6.805  0.0191  0.2333  0.0440
 1185ERGO    R316894  16.348  16.657   6.876 -0.1037 -0.0716 -0.0282
 1185ERGO    R416895  16.169  16.606   7.102 -0.0285  0.4140  0.1566
 1185ERGO    R516896  16.366  16.698   7.111  0.1300  0.1195 -0.0747
 1185ERGO    C116897  16.424  16.400   7.342 -0.1718  0.2330  0.1544
 1185ERGO    C216898  16.550  16.319   7.635  0.0196 -0.3708  0.0799
 1186ERGO   ROH16899   5.759   8.726   6.043  0.0235 -0.1514  0.0466
 1186ERGO    R116900   5.801   8.624   6.304  0.0459 -0.0453  0.0860
 1186ERGO    R216901   5.923   8.771   6.503  0.0189  0.0578  0.0351
 1186ERGO    R316902   5.697   8.710   6.642  0.0282  0.0637  0.0511
 1186ERGO    R416903   5.906   8.728   6.846  0.0345  0.0231  0.0308
 1186ERGO    R516904   5.771   8.561   6.813  0.0218  0.0437  0.0288
 1186ERGO    C116905   5.684   8.645   7.175  0.0523  0.0085  0.0434
 1186ERGO    C216906   5.443   8.505   7.494 -0.1640  0.0777  0.4841
 1187ERGO   ROH16907   1.255   5.836  10.058  0.0967 -0.2797  0.1173
 1187ERGO    R116908   1.345   5.893   9.796  0.0402 -0.2168  0.1125
 1187ERGO    R216909   1.347   5.704   9.595 -0.0814 -0.1443  0.0473
 1187ERGO    R316910   1.202   5.891   9.461 -0.0556 -0.0483  0.1501
 1187ERGO    R416911   1.341   5.741   9.251 -0.3011 -0.1482  0.0486
 1187ERGO    R516912   1.343   5.957   9.279 -0.1374 -0.1449  0.0467
 1187ERGO    C116913   1.201   5.938   8.926 -0.4048 -0.0605  0.1459
 1187ERGO    C216914   1.353   5.871   8.507 -0.1780  0.0340 -0.2334
 1188ERGO   ROH16915   1.211  16.748   6.789 -0.3577  0.2242  0.0374
 1188ERGO    R116916   1.067  16.769   7.032 -0.2767 -0.1040  0.1194
 1188ERGO    R216917   1.022  16.552   7.197  0.1922 -0.2415  0.0856
 1188ERGO    R316918   1.134  16.713   7.385  0.0058 -0.0907  0.0694
 1188ERGO    R416919   0.965  16.528   7.537  0.2483 -0.2917  0.0911
 1188ERGO    R516920   0.960  16.746   7.547 -0.0221 -0.2973  0.0802
 1188ERGO    C116921   1.037  16.665   7.912  0.1060 -0.1794  0.0791
 1188ERGO    C216922   1.004  16.423   8.213 -0.2061 -0.1667  0.0917
 1189ERGO   ROH16923  10.355  14.370   6.063 -0.0029  0.0816 -0.0225
 1189ERGO    R116924  10.319  14.399   6.343  0.0933  0.1093 -0.0122
 1189ERGO    R216925  10.156  14.593   6.452  0.0231  0.0365  0.0201
 1189ERGO    R316926  10.041  14.381   6.577  0.1966 -0.0117  0.1014
 1189ERGO    R416927  10.060  14.588   6.784 -0.1126  0.1356 -0.0169
 1189ERGO    R516928  10.135  14.383   6.797  0.1006  0.2228  0.1407
 1189ERGO    C116929   9.896  14.385   7.095 -0.0287  0.1481  0.0378
 1189ERGO    C216930   9.809  14.491   7.505 -0.1037 -0.1499  0.0433
 1190ERGO   ROH16931   6.926   1.222   6.341  0.2015  0.0354 -0.0594
 1190ERGO    R116932   7.114   1.163   6.544  0.2322  0.0334 -0.0886
 1190ERGO    R216933   7.371   1.265   6.544  0.1791  0.1681 -0.0381
 1190ERGO    R316934   7.302   1.351   6.793  0.1338  0.0096  0.0039
 1190ERGO    R416935   7.596   1.349   6.792  0.1352  0.1472  0.0096
 1190ERGO    R516936   7.465   1.251   6.937  0.1777  0.0124 -0.0437
 1190ERGO    C116937   7.663   1.479   7.170  0.0671 -0.0138  0.0770
 1190ERGO    C216938   7.838   1.468   7.481  0.1820 -0.2076  0.2629
 1191ERGO   ROH16939  13.816  15.404   9.890 -0.0516  0.0397 -0.0614
 1191ERGO    R116940  13.923  15.470   9.636 -0.1652  0.1828 -0.0739
 1191ERGO    R216941  14.036  15.282   9.469  0.1111  0.3338 -0.0683
 1191ERGO    R316942  13.857  15.381   9.290 -0.0560  0.0528 -0.0612
 1191ERGO    R416943  14.061  15.249   9.126  0.0044  0.1540 -0.0594
 1191ERGO    R516944  13.991  15.454   9.106 -0.2023  0.0738 -0.1579
 1191ERGO    C116945  13.906  15.322   8.758 -0.2145 -0.2147 -0.0475
 1191ERGO    C216946  14.079  15.248   8.428 -0.0805 -0.0235  0.0412
 1192ERGO   ROH16947  14.198   1.449   6.176  0.2824 -0.1324  0.0419
 1192ERGO    R116948  14.284   1.543   6.428 -0.0043  0.1078  0.0566
 1192ERGO    R216949  14.128   1.708   6.587 -0.4011 -0.1427 -0.0470
 1192ERGO    R316950  14.172   1.515   6.773 -0.1017 -0.0203  0.0129
 1192ERGO    R416951  14.148   1.762   6.928 -0.1814  0.0181 -0.0839
 1192ERGO    R516952  14.312   1.620   6.936 -0.0639  0.1604 -0.1407
 1192ERGO    C116953  14.201   1.612   7.301  0.2274  0.2267 -0.0491
 1192ERGO    C216954  14.081   1.534   7.644  0.0252 -0.1640  0.0801
 1193ERGO   ROH16955  16.174   0.647  10.059 -0.0032  0.0550  0.0285
 1193ERGO    R116956  16.187   0.536   9.799  0.0597  0.0721  0.0253
 1193ERGO    R216957  15.989   0.574   9.611  0.0207 -0.0675  0.0447
 1193ERGO    R316958  16.196   0.661   9.457 -0.0557  0.0859  0.0252
 1193ERGO    R416959  15.993   0.571   9.265  0.0450 -0.2264  0.0449
 1193ERGO    R516960  16.202   0.508   9.273  0.1206 -0.0012  0.0954
 1193ERGO    C116961  16.190   0.651   8.920 -0.0126 -0.1750  0.0269
 1193ERGO    C216962  16.154   0.476   8.576 -0.0412 -0.0549  0.1554
 1194ERGO   ROH16963  14.767  11.525  10.358  0.2663 -0.0440 -0.0505
 1194ERGO    R116964  14.636  11.651  10.141  0.2218  0.0480  0.0292
 1194ERGO    R216965  14.765  11.825   9.971  0.2796 -0.1496 -0.1329
 1194ERGO    R316966  14.670  11.658   9.779 -0.0868 -0.0967 -0.0062
 1194ERGO    R416967  14.752  11.900   9.633  0.2928 -0.3128 -0.1700
 1194ERGO    R516968  14.556  11.802   9.625  0.1110  0.0229 -0.0442
 1194ERGO    C116969  14.655  11.786   9.256 -0.0437 -0.3580 -0.0727
 1194ERGO    C216970  14.629  11.692   8.916  0.1060  0.0641  0.2849
 1195ERGO   ROH16971  10.766  16.256   6.595 -0.1631  0.2281  0.1694
 1195ERGO    R116972  10.733  16.047   6.783 -0.2410  0.1736  0.0972
 1195ERGO    R216973  10.945  15.935   6.920 -0.2518 -0.0951 -0.0869
 1195ERGO    R316974  10.796  15.997   7.138 -0.0527 -0.0415  0.0348
 1195ERGO    R416975  10.939  15.752   7.213 -0.4118 -0.3361 -0.2378
 1195ERGO    R516976  10.724  15.785   7.223 -0.3547  0.0012 -0.1136
 1195ERGO    C116977  10.796  15.704   7.589 -0.3180 -0.4261 -0.2113
 1195ERGO    C216978  10.607  15.728   7.944 -0.1502 -0.1027  0.0511
 1196ERGO   ROH16979  10.119  10.975   6.352 -0.0313 -0.0363  0.0003
 1196ERGO    R116980   9.939  11.033   6.562  0.0633  0.1308  0.0351
 1196ERGO    R216981   9.940  10.894   6.801 -0.0076  0.1422  0.0328
 1196ERGO    R316982   9.963  11.143   6.908  0.2272  0.1265  0.0285
 1196ERGO    R416983   9.968  10.961   7.139 -0.2421  0.1182  0.0604
 1196ERGO    R516984   9.835  11.132   7.111  0.0069  0.3069 -0.0874
 1196ERGO    C116985  10.007  11.232   7.437 -0.1583  0.0895  0.0725
 1196ERGO    C216986   9.981  11.365   7.751 -0.0706 -0.0802 -0.0019
 1197ERGO   ROH16987   5.271   0.904   6.845  0.0649  0.1498  0.2110
 1197ERGO    R116988   5.232   0.888   7.125 -0.0185  0.0284  0.1956
 1197ERGO    R216989   4.999   0.973   7.248 -0.0918 -0.0852  0.1638
 1197ERGO    R316990   5.000   0.721   7.350 -0.0434 -0.1291  0.0489
 1197ERGO    R416991   4.944   0.893   7.580  0.1712 -0.2519  0.1685
 1197ERGO    R516992   5.102   0.744   7.566  0.1291 -0.2587 -0.0278
 1197ERGO    C116993   4.913   0.610   7.869  0.3699 -0.3901  0.0634
 1197ERGO    C216994   4.914   0.339   8.100 -0.3343 -0.0239 -0.2868
 1198ERGO   ROH16995  16.529   4.126   6.199  0.1330  0.2912  0.2167
 1198ERGO    R116996  16.383   4.146   6.440 -0.0319  0.1837  0.1271
 1198ERGO    R216997  16.166   3.986   6.496  0.0495  0.0271 -0.0125
 1198ERGO    R316998  16.306   3.927   6.721 -0.0499  0.1252  0.0775
 1198ERGO    R416999  16.053   3.781   6.751  0.0943 -0.1882 -0.1615
 1198ERGO    R517000  16.141   3.921   6.895 -0.1790 -0.1245 -0.0484
 1198ERGO    C117001  16.120   3.607   7.111  0.0271 -0.2214 -0.1637
 1198ERGO    C217002  15.847   3.503   7.288 -0.1856 -0.0944  0.0414
 1199ERGO   ROH17003   0.305  10.107   6.507  0.0760 -0.1706 -0.0702
 1199ERGO    R117004   0.128   9.899   6.580  0.0168 -0.1347 -0.1122
 1199ERGO    R217005   0.187   9.715   6.778 -0.0526 -0.1663 -0.1220
 1199ERGO    R317006  -0.050   9.797   6.881 -0.0472 -0.1203 -0.1446
 1199ERGO    R417007   0.069   9.630   7.091  0.1577  0.3123  0.0980
 1199ERGO    R517008  -0.130   9.608   7.004  0.1238  0.0423  0.2338
 1199ERGO    C117009  -0.223   9.658   7.371  0.2855  0.6341  0.2048
 1199ERGO    C217010  -0.220   9.631   7.704  0.0067  0.1498 -0.0942
 1200ERGO   ROH17011   9.647   8.238   6.110  0.0965  0.1846  0.0872
 1200ERGO    R117012   9.827   8.209   6.326 -0.0862  0.1314  0.2357
 1200ERGO    R217013   9.746   8.136   6.579 -0.2736 -0.1689  0.0959
 1200ERGO    R317014   9.932   7.941   6.549 -0.0889  0.0079  0.0888
 1200ERGO    R417015   9.864   7.936   6.835 -0.2335 -0.2081  0.0465
 1200ERGO    R517016  10.064   7.953   6.749 -0.2053  0.0110  0.1627
 1200ERGO    C117017  10.108   7.636   6.955 -0.0368 -0.0649  0.0111
 1200ERGO    C217018  10.334   7.562   7.156  0.3092 -0.2064  0.1139
 1201ERGO   ROH17019   3.744   5.961   6.083 -0.4323 -0.4229  0.1215
 1201ERGO    R117020   3.825   6.127   6.297  0.0341 -0.2768 -0.1520
 1201ERGO    R217021   3.670   6.167   6.523  0.1775  0.4471 -0.1406
 1201ERGO    R317022   3.895   6.086   6.652  0.0330  0.0859 -0.1089
 1201ERGO    R417023   3.747   6.237   6.853  0.2710  0.3282 -0.1385
 1201ERGO    R517024   3.953   6.270   6.793  0.3242 -0.0120 -0.1108
 1201ERGO    C117025   4.003   6.202   7.165  0.1897 -0.0803 -0.1076
 1201ERGO    C217026   3.926   6.136   7.555 -0.2800  0.0054  0.1276
 1202ERGO   ROH17027   3.528  12.526   6.626  0.1192  0.5689  0.3819
 1202ERGO    R117028   3.589  12.480   6.898  0.0634  0.1800  0.3346
 1202ERGO    R217029   3.428  12.328   7.064  0.0027 -0.0179  0.1007
 1202ERGO    R317030   3.658  12.191   7.109 -0.0331 -0.1301 -0.0481
 1202ERGO    R417031   3.496  12.144   7.348  0.1752  0.1023  0.1390
 1202ERGO    R517032   3.700  12.220   7.343  0.2164 -0.0226 -0.1044
 1202ERGO    C117033   3.752  11.909   7.557  0.2421  0.0671  0.0217
 1202ERGO    C217034   3.665  11.740   7.856 -0.1624  0.1363  0.0981
 1203ERGO   ROH17035   9.956   4.391   6.219 -0.2442  0.0088  0.1162
 1203ERGO    R117036   9.977   4.453   6.495 -0.2007  0.0103  0.1122
 1203ERGO    R217037   9.922   4.268   6.694 -0.0891 -0.0125  0.1205
 1203ERGO    R317038  10.172   4.334   6.778 -0.0920  0.0727  0.0647
 1203ERGO    R417039  10.027   4.268   7.023  0.0195 -0.1075  0.0870
 1203ERGO    R517040  10.137   4.451   6.983 -0.0826 -0.0340  0.1293
 1203ERGO    C117041  10.322   4.330   7.294  0.0802 -0.0827  0.0151
 1203ERGO    C217042  10.383   4.181   7.606  0.0665 -0.2626 -0.1930
 1204ERGO   ROH17043   0.008   4.269   6.064 -0.0507  0.0377  0.1230
 1204ERGO    R117044  -0.184   4.128   6.216 -0.1041  0.0749  0.0909
 1204ERGO    R217045  -0.121   3.999   6.453 -0.1421 -0.0426  0.0388
 1204ERGO    R317046  -0.325   4.150   6.551 -0.0585  0.0219  0.1135
 1204ERGO    R417047  -0.260   3.962   6.767 -0.1228 -0.0814  0.0425
 1204ERGO    R517048  -0.456   3.996   6.679 -0.1172  0.0422  0.0768
 1204ERGO    C117049  -0.532   4.083   7.043 -0.0334 -0.0435  0.1149
 1204ERGO    C217050  -0.771   4.186   7.279  0.1143  0.1065 -0.0914
 1205ERGO   ROH17051  12.268   4.183   6.172 -0.0484  0.3792  0.0056
 1205ERGO    R117052  12.379   4.115   6.423  0.0535  0.0986 -0.1130
 1205ERGO    R217053  12.593   4.251   6.533  0.1368 -0.0719 -0.0823
 1205ERGO    R317054  12.426   4.279   6.745  0.2539 -0.2361  0.0367
 1205ERGO    R417055  12.685   4.380   6.840  0.1713  0.3171 -0.2496
 1205ERGO    R517056  12.562   4.227   6.935  0.5254  0.1430 -0.0350
 1205ERGO    C117057  12.581   4.482   7.218  0.3015  0.3895 -0.2353
 1205ERGO    C217058  12.618   4.572   7.571  0.1570 -0.0250 -0.1978
 1206ERGO   ROH17059   6.666  16.399   6.540  0.1209  0.1449 -0.1549
 1206ERGO    R117060   6.686  16.497   6.805 -0.0167 -0.0237 -0.0812
 1206ERGO    R217061   6.693  16.330   7.025  0.0791 -0.1737 -0.1986
 1206ERGO    R317062   6.922  16.466   7.081 -0.0465 -0.0175 -0.0547
 1206ERGO    R417063   6.805  16.403   7.343 -0.0704 -0.2686 -0.1226
 1206ERGO    R517064   6.864  16.601   7.271 -0.2112 -0.1743  0.0104
 1206ERGO    C117065   7.084  16.575   7.582 -0.2752 -0.1770  0.0568
 1206ERGO    C217066   7.100  16.574   8.037 -0.2132 -0.2813  0.0264
 1207ERGO   ROH17067   6.530  10.925   6.622  0.0755  0.2716 -0.0079
 1207ERGO    R117068   6.454  10.801   6.865  0.1201 -0.0397 -0.1486
 1207ERGO    R217069   6.617  10.621   6.997  0.3647  0.1727 -0.1545
 1207ERGO    R317070   6.579  10.790   7.206 -0.1156 -0.0321 -0.0598
 1207ERGO    R417071   6.658  10.536   7.330  0.4368  0.0646 -0.1896
 1207ERGO    R517072   6.481  10.654   7.376  0.1331 -0.3745 -0.1789
 1207ERGO    C117073   6.647  10.646   7.720  0.0279 -0.1906 -0.1213
 1207ERGO    C217074   6.518  10.726   8.117  0.0406 -0.1526  0.2174
 1208ERGO   ROH17075   7.053   8.996   6.359 -0.2451 -0.0923 -0.1023
 1208ERGO    R117076   7.012   9.098   6.620 -0.1205  0.0228 -0.1264
 1208ERGO    R217077   6.761   9.123   6.733 -0.0718  0.1185 -0.0351
 1208ERGO    R317078   6.871   8.975   6.933 -0.0206  0.1778 -0.0197
 1208ERGO    R417079   6.657   9.128   7.062 -0.0682  0.1213 -0.0342
 1208ERGO    R517080   6.866   9.121   7.124 -0.0655  0.1971 -0.0364
 1208ERGO    C117081   6.699   8.993   7.442 -0.0180  0.1786 -0.0192
 1208ERGO    C217082   6.611   8.741   7.615 -0.5084 -0.2209  0.0913
 1209ERGO   ROH17083  14.292   0.356   9.971  0.1322 -0.0814  0.1051
 1209ERGO    R117084  14.342   0.455   9.710  0.2104 -0.0579  0.1290
 1209ERGO    R217085  14.518   0.331   9.536 -0.0020 -0.2453  0.0450
 1209ERGO    R317086  14.303   0.333   9.369 -0.0419  0.1175  0.0925
 1209ERGO    R417087  14.535   0.318   9.191 -0.0970 -0.2899  0.0417
 1209ERGO    R517088  14.374   0.464   9.182  0.1472 -0.0078  0.0723
 1209ERGO    C117089  14.343   0.312   8.834 -0.1897  0.0247  0.0844
 1209ERGO    C217090  14.494   0.234   8.510  0.1232  0.0490  0.0016
 1210ERGO   ROH17091  15.060   4.133   6.253 -0.3134  0.1889  0.0338
 1210ERGO    R117092  15.189   4.248   6.476 -0.1314  0.1205 -0.0342
 1210ERGO    R217093  15.052   4.378   6.678  0.0519  0.2763 -0.0035
 1210ERGO    R317094  15.184   4.202   6.837 -0.0382  0.1896 -0.0242
 1210ERGO    R417095  15.100   4.416   7.018 -0.1017  0.1081  0.0384
 1210ERGO    R517096  15.302   4.340   6.993 -0.0984  0.1031  0.0970
 1210ERGO    C117097  15.253   4.273   7.365 -0.2756 -0.0712  0.0435
 1210ERGO    C217098  15.075   4.106   7.658  0.0998  0.0831 -0.2111
 1211ERGO   ROH17099   8.758  12.618   6.409 -0.0533  0.0033  0.1325
 1211ERGO    R117100   8.934  12.513   6.605 -0.0525 -0.1686  0.0422
 1211ERGO    R217101   8.900  12.560   6.875  0.1895 -0.0470  0.0541
 1211ERGO    R317102   8.908  12.289   6.890 -0.1506 -0.0575  0.1214
 1211ERGO    R417103   8.914  12.380   7.169  0.3881  0.0265  0.0911
 1211ERGO    R517104   9.056  12.244   7.074  0.0687 -0.1956 -0.0840
 1211ERGO    C117105   8.930  12.020   7.355  0.1845  0.0595  0.1758
 1211ERGO    C217106   8.891  11.835   7.546 -0.1557 -0.2897  0.0194
 1212ERGO   ROH17107   7.464  11.754   6.525 -0.1421 -0.1360  0.0543
 1212ERGO    R117108   7.636  11.589   6.677 -0.1784 -0.2329 -0.0087
 1212ERGO    R217109   7.721  11.657   6.931  0.0762 -0.2042 -0.0991
 1212ERGO    R317110   7.621  11.413   6.996 -0.1037 -0.0876  0.0765
 1212ERGO    R417111   7.853  11.448   7.173  0.2469 -0.3466 -0.3110
 1212ERGO    R517112   7.816  11.279   7.040 -0.1767 -0.3131 -0.2484
 1212ERGO    C117113   7.836  11.097   7.374  0.1774 -0.3200 -0.2695
 1212ERGO    C217114   7.866  10.895   7.694  0.0505 -0.0102  0.1296
 1213ERGO   ROH17115   4.360  11.164   6.379  0.1360 -0.0142 -0.0180
 1213ERGO    R117116   4.507  11.166   6.621  0.2008 -0.0341 -0.0564
 1213ERGO    R217117   4.467  11.356   6.818  0.3903  0.0694 -0.1116
 1213ERGO    R317118   4.432  11.138   6.976  0.2691  0.1493 -0.0272
 1213ERGO    R417119   4.474  11.360   7.164  0.2477  0.2166 -0.1092
 1213ERGO    R517120   4.584  11.172   7.158  0.2004  0.1878  0.0208
 1213ERGO    C117121   4.446  11.157   7.513  0.0509  0.3773 -0.0286
 1213ERGO    C217122   4.218  11.134   7.846  0.0947  0.1132 -0.2198
 1214ERGO   ROH17123  14.725  11.170   6.599 -0.0364  0.2061  0.0302
 1214ERGO    R117124  14.602  11.228   6.847 -0.2189  0.1259 -0.0399
 1214ERGO    R217125  14.382  11.090   6.940 -0.0085 -0.2181 -0.0382
 1214ERGO    R317126  14.538  11.050   7.158 -0.0016  0.1769  0.0359
 1214ERGO    R417127  14.264  11.054   7.263 -0.0536 -0.2758 -0.0606
 1214ERGO    R517128  14.431  11.176   7.332 -0.2952  0.0705 -0.0612
 1214ERGO    C117129  14.343  10.996   7.656 -0.0736  0.0613 -0.0041
 1214ERGO    C217130  14.282  10.915   8.030  0.0302  0.3898  0.1878
 1215ERGO   ROH17131  16.643   1.247   6.196  0.2060 -0.1967 -0.1768
 1215ERGO    R117132  16.727   1.317   6.457  0.1586 -0.1840 -0.1653
 1215ERGO    R217133  16.581   1.254   6.683  0.1198 -0.1734 -0.1909
 1215ERGO    R317134  16.815   1.141   6.763  0.1056 -0.1675 -0.1394
 1215ERGO    R417135  16.681   1.217   7.012  0.0646 -0.1232 -0.1679
 1215ERGO    R517136  16.882   1.271   6.952  0.0782 -0.1364 -0.1474
 1215ERGO    C117137  16.959   1.089   7.278  0.0191 -0.0883 -0.1061
 1215ERGO    C217138  17.163   1.023   7.562  0.1385  0.2273 -0.0688
 1216ERGO   ROH17139   4.765   4.705   6.501 -0.0856 -0.0059 -0.0764
 1216ERGO    R117140   4.627   4.530   6.674 -0.1043  0.0622 -0.0219
 1216ERGO    R217141   4.668   4.527   6.947 -0.0837  0.1230 -0.0241
 1216ERGO    R317142   4.399   4.562   6.957 -0.0773  0.1741 -0.0121
 1216ERGO    R417143   4.491   4.619   7.229 -0.0848 -0.1157  0.0554
 1216ERGO    R517144   4.336   4.477   7.172 -0.1127 -0.0260 -0.0985
 1216ERGO    C117145   4.135   4.706   7.402 -0.0795 -0.2066  0.1130
 1216ERGO    C217146   3.904   4.854   7.608  0.3725  0.1719  0.1264
 1217ERGO   ROH17147  11.717  10.078   6.334 -0.2686  0.1775 -0.0298
 1217ERGO    R117148  11.613  10.142   6.590 -0.2925 -0.0691  0.0245
 1217ERGO    R217149  11.492   9.954   6.753  0.0393 -0.3152 -0.0024
 1217ERGO    R317150  11.676  10.041   6.934 -0.0340 -0.0972 -0.0293
 1217ERGO    R417151  11.494   9.870   7.088  0.1336 -0.2314  0.0185
 1217ERGO    R517152  11.550  10.075   7.134 -0.0587 -0.1670 -0.0333
 1217ERGO    C117153  11.668   9.903   7.453  0.1197  0.0220  0.0055
 1217ERGO    C217154  11.752   9.727   7.785  0.2015 -0.0951  0.5902
 1218ERGO   ROH17155  12.060  13.151   6.135 -0.1916 -0.1218  0.0229
 1218ERGO    R117156  12.242  13.118   6.349 -0.2456 -0.1221  0.0687
 1218ERGO    R217157  12.366  13.331   6.474 -0.0644 -0.1351 -0.0869
 1218ERGO    R317158  12.261  13.218   6.698 -0.1930  0.1352 -0.0054
 1218ERGO    R417159  12.517  13.328   6.785 -0.1060 -0.0077 -0.0644
 1218ERGO    R517160  12.449  13.124   6.811 -0.2846  0.0667  0.0953
 1218ERGO    C117161  12.507  13.220   7.176 -0.2510  0.3201  0.0252
 1218ERGO    C217162  12.706  13.423   7.398  0.0215 -0.1350 -0.4068
 1219ERGO   ROH17163   1.278   9.640   6.536  0.0949 -0.0846 -0.0796
 1219ERGO    R117164   1.187   9.478   6.750  0.0032  0.0215 -0.0363
 1219ERGO    R217165   1.339   9.271   6.855 -0.1010 -0.0225  0.0355
 1219ERGO    R317166   1.296   9.402   7.089 -0.0529  0.0708 -0.0080
 1219ERGO    R417167   1.185   9.135   7.133 -0.0974  0.1116  0.1037
 1219ERGO    R517168   1.082   9.324   7.163 -0.0578  0.1396  0.0448
 1219ERGO    C117169   1.055   9.179   7.514 -0.0502  0.2774  0.1025
 1219ERGO    C217170   0.799   9.109   7.711 -0.0178  0.1747  0.1317
 1220ERGO   ROH17171  17.543  14.507   6.738 -0.0078 -0.0429 -0.0659
 1220ERGO    R117172  17.547  14.442   7.013  0.0359  0.0725 -0.0395
 1220ERGO    R217173  17.379  14.561   7.197 -0.1314 -0.0560 -0.1134
 1220ERGO    R317174  17.314  14.304   7.256  0.1699 -0.1143 -0.0125
 1220ERGO    R417175  17.307  14.443   7.514 -0.3549  0.0826 -0.1103
 1220ERGO    R517176  17.420  14.263   7.467 -0.0242  0.2008  0.1589
 1220ERGO    C117177  17.203  14.133   7.754 -0.2020  0.1086 -0.0137
 1220ERGO    C217178  17.226  14.024   8.133  0.0632  0.1839 -0.3995
 1221ERGO   ROH17179  12.866   7.648   6.283  0.0036  0.0049  0.1906
 1221ERGO    R117180  12.722   7.689   6.523 -0.2140 -0.1099  0.0826
 1221ERGO    R217181  12.516   7.524   6.602  0.0983 -0.5029  0.1040
 1221ERGO    R317182  12.662   7.504   6.831  0.0336  0.0033  0.2018
 1221ERGO    R417183  12.385   7.545   6.922 -0.1124 -0.4947  0.0189
 1221ERGO    R517184  12.560   7.662   6.980 -0.3794 -0.0700  0.0126
 1221ERGO    C117185  12.446   7.538   7.322 -0.2957 -0.0147  0.0613
 1221ERGO    C217186  12.168   7.564   7.627 -0.1500  0.1471 -0.0821
 1222ERGO   ROH17187   3.268  16.136   6.736 -0.2354 -0.1746  0.0750
 1222ERGO    R117188   3.264  16.047   7.005 -0.1677 -0.1040  0.0998
 1222ERGO    R217189   3.431  16.151   7.198 -0.0488 -0.1233  0.0090
 1222ERGO    R317190   3.198  16.195   7.331  0.0202  0.0072  0.0883
 1222ERGO    R417191   3.376  16.071   7.530 -0.0664 -0.3366 -0.0437
 1222ERGO    R517192   3.175  16.004   7.475 -0.1463 -0.0881 -0.0619
 1222ERGO    C117193   3.124  16.067   7.848 -0.0118 -0.3382  0.0002
 1222ERGO    C217194   3.251  16.025   8.107  0.0775 -0.2019  0.0028
 1223ERGO   ROH17195   9.244  15.950  10.197  0.2983  0.0203 -0.0483
 1223ERGO    R117196   9.144  16.006   9.938  0.1596  0.0649  0.0157
 1223ERGO    R217197   9.274  16.176   9.762  0.1361 -0.0212 -0.0695
 1223ERGO    R317198   9.259  15.962   9.596 -0.0960 -0.0130 -0.0649
 1223ERGO    R417199   9.284  16.192   9.417  0.4663 -0.0378 -0.0649
 1223ERGO    R517200   9.129  16.039   9.410  0.1898  0.2206 -0.1855
 1223ERGO    C117201   9.276  16.001   9.060  0.4406 -0.0394 -0.0579
 1223ERGO    C217202   9.421  15.885   8.748 -0.1643  0.0594  0.0670
 1224ERGO   ROH17203  12.795   6.060  10.111  0.0933  0.2717 -0.0242
 1224ERGO    R117204  12.760   6.178   9.856  0.0820  0.1598 -0.0750
 1224ERGO    R217205  12.960   6.181   9.665  0.0542  0.0295 -0.1036
 1224ERGO    R317206  12.768   6.067   9.510  0.0098 -0.0026 -0.0263
 1224ERGO    R417207  12.943   6.207   9.321 -0.0473 -0.0220 -0.1029
 1224ERGO    R517208  12.727   6.228   9.338 -0.0466 -0.0271 -0.0393
 1224ERGO    C117209  12.753   6.115   8.975 -0.1481 -0.0822 -0.0300
 1224ERGO    C217210  12.826   6.151   8.594 -0.2216  0.0070  0.2160
 1225ERGO   ROH17211   1.515  14.145   6.502 -0.0148 -0.1970 -0.0811
 1225ERGO    R117212   1.485  14.256   6.761 -0.0713 -0.0964 -0.1322
 1225ERGO    R217213   1.242  14.268   6.891 -0.0599 -0.2380 -0.1117
 1225ERGO    R317214   1.377  14.139   7.088  0.0725 -0.0279 -0.0572
 1225ERGO    R417215   1.135  14.241   7.219 -0.1486 -0.3996 -0.1509
 1225ERGO    R517216   1.340  14.273   7.283 -0.2144 -0.0743 -0.0702
 1225ERGO    C117217   1.199  14.103   7.594 -0.0759 -0.2964 -0.1224
 1225ERGO    C217218   1.088  13.940   7.811 -0.1929  0.0739  0.3099
 1226ERGO   ROH17219  17.909   4.074   9.859 -0.3537  0.0737 -0.0907
 1226ERGO    R117220  18.018   3.961   9.623 -0.3710 -0.1969  0.0254
 1226ERGO    R217221  17.864   3.825   9.437 -0.4627 -0.0606 -0.0118
 1226ERGO    R317222  17.973   4.004   9.264 -0.0921 -0.2898 -0.0209
 1226ERGO    R417223  17.846   3.804   9.093 -0.3916 -0.0981 -0.0115
 1226ERGO    R517224  18.053   3.870   9.083 -0.2719 -0.4666  0.0342
 1226ERGO    C117225  17.938   3.959   8.730 -0.0022 -0.3351 -0.0200
 1226ERGO    C217226  17.991   3.932   8.432 -0.4411  0.0625  0.1010
 1227ERGO   ROH17227   1.837  12.002   6.792  0.3688 -0.0707 -0.0122
 1227ERGO    R117228   1.899  12.220   6.962  0.1034  0.1106 -0.1395
 1227ERGO    R217229   1.736  12.442   6.986 -0.3295 -0.2005 -0.0479
 1227ERGO    R317230   1.747  12.381   7.251  0.0557 -0.1119 -0.0391
 1227ERGO    R417231   1.637  12.652   7.241 -0.3560 -0.2764  0.0043
 1227ERGO    R517232   1.810  12.587   7.356 -0.1279  0.0105 -0.1677
 1227ERGO    C117233   1.591  12.718   7.639 -0.0099 -0.2373  0.0431
 1227ERGO    C217234   1.531  12.758   7.950  0.3431 -0.1659  0.0312
 1228ERGO   ROH17235  15.775   7.775   6.687 -0.1764 -0.0329 -0.0877
 1228ERGO    R117236  15.961   7.847   6.887 -0.0969 -0.1513 -0.1180
 1228ERGO    R217237  15.885   7.958   7.129  0.0226  0.0323 -0.1619
 1228ERGO    R317238  16.028   7.751   7.232 -0.2004 -0.0832 -0.0794
 1228ERGO    R417239  16.068   7.972   7.421  0.1264 -0.0162 -0.2238
 1228ERGO    R517240  16.224   7.855   7.324 -0.0445 -0.2683 -0.1991
 1228ERGO    C117241  16.309   7.786   7.689 -0.0227 -0.1530 -0.1823
 1228ERGO    C217242  16.676   7.749   7.952 -0.0608  0.0051 -0.0962
 1229ERGO   ROH17243  10.848   4.498   9.519  0.0573 -0.0689  0.1302
 1229ERGO    R117244  10.761   4.516   9.250 -0.0041 -0.1114  0.1469
 1229ERGO    R217245  10.882   4.682   9.065 -0.2648  0.1284  0.1801
 1229ERGO    R317246  10.903   4.452   8.921  0.0532  0.1967  0.1100
 1229ERGO    R417247  10.896   4.664   8.720 -0.2982  0.2390  0.1726
 1229ERGO    R517248  10.767   4.489   8.728 -0.0360  0.0442  0.1458
 1229ERGO    C117249  10.924   4.439   8.384 -0.0192  0.3676  0.1024
 1229ERGO    C217250  11.078   4.402   8.059  0.0238 -0.1238  0.0657
 1230ERGO   ROH17251  15.831   8.873   6.251 -0.0390  0.1429 -0.0774
 1230ERGO    R117252  15.655   8.911   6.470  0.0279  0.0878 -0.0152
 1230ERGO    R217253  15.570   8.702   6.629  0.1951  0.0721  0.0460
 1230ERGO    R317254  15.666   8.858   6.830  0.1908  0.1479 -0.0088
 1230ERGO    R417255  15.444   8.710   6.951  0.1223  0.2522  0.0156
 1230ERGO    R517256  15.470   8.926   6.951  0.1741  0.2521 -0.0842
 1230ERGO    C117257  15.461   8.861   7.327  0.0759  0.4281 -0.0536
 1230ERGO    C217258  15.659   8.730   7.642  0.0244  0.1551 -0.0925
 1231ERGO   ROH17259  12.197   2.039   6.148 -0.2314 -0.0693  0.0375
 1231ERGO    R117260  12.105   2.029   6.416 -0.2802  0.0794  0.0264
 1231ERGO    R217261  12.268   1.959   6.627 -0.3848 -0.0621  0.0591
 1231ERGO    R317262  12.183   2.197   6.729 -0.1410  0.0512  0.0074
 1231ERGO    R417263  12.291   2.051   6.960 -0.4511 -0.0860  0.0713
 1231ERGO    R517264  12.093   2.140   6.944 -0.3330  0.1674 -0.0399
 1231ERGO    C117265  12.225   2.327   7.249 -0.2608  0.0065  0.0298
 1231ERGO    C217266  12.441   2.346   7.462  0.1195 -0.0896 -0.0999
 1232ERGO   ROH17267   3.211   9.105   6.531 -0.0450  0.0073  0.0141
 1232ERGO    R117268   3.138   9.062   6.801  0.0355  0.2813  0.0815
 1232ERGO    R217269   3.147   8.813   6.920 -0.5014  0.2880  0.1510
 1232ERGO    R317270   3.301   8.942   7.103 -0.0409 -0.0268  0.0056
 1232ERGO    R417271   3.180   8.720   7.251 -0.3028  0.1608  0.0979
 1232ERGO    R517272   3.174   8.931   7.306  0.1563  0.1759  0.1500
 1232ERGO    C117273   3.344   8.787   7.616  0.2452 -0.2087 -0.0695
 1232ERGO    C217274   3.582   8.624   7.938  0.2595  0.1214  0.2074
 1233ERGO   ROH17275   8.920  15.391   7.696  0.1665  0.1490  0.1422
 1233ERGO    R117276   9.073  15.160   7.753  0.0337  0.0450  0.0842
 1233ERGO    R217277   9.278  15.074   7.590  0.1196  0.0860  0.1688
 1233ERGO    R317278   9.423  15.084   7.819 -0.0424 -0.1416  0.2849
 1233ERGO    R417279   9.576  14.907   7.642  0.1948  0.2065  0.1268
 1233ERGO    R517280   9.509  14.862   7.845  0.0855 -0.1267  0.0246
 1233ERGO    C117281   9.886  14.820   7.889  0.0865  0.0631  0.2114
 1233ERGO    C217282  10.240  14.775   7.845 -0.3155  0.1336 -0.0082
 1234ERGO   ROH17283   2.330   0.656   6.395 -0.1686  0.1878 -0.1193
 1234ERGO    R117284   2.304   0.752   6.659 -0.1598  0.1784 -0.1154
 1234ERGO    R217285   2.059   0.785   6.783 -0.1463 -0.0194 -0.0353
 1234ERGO    R317286   2.171   0.628   6.975  0.0483  0.0813 -0.0633
 1234ERGO    R417287   2.048   0.850   7.122 -0.2689 -0.1143 -0.0202
 1234ERGO    R517288   2.255   0.784   7.136 -0.1754  0.1599 -0.0173
 1234ERGO    C117289   2.146   0.741   7.500 -0.1575 -0.0750 -0.0376
 1234ERGO    C217290   1.933   0.792   7.736 -0.2405  0.2011  0.3241
 1235ERGO   ROH17291  13.184   3.161   6.284  0.2516 -0.1370 -0.0936
 1235ERGO    R117292  13.034   2.985   6.448  0.0377  0.0844 -0.0472
 1235ERGO    R217293  13.146   2.764   6.570 -0.2791 -0.1557 -0.1862
 1235ERGO    R317294  13.043   2.876   6.795  0.0678 -0.0304 -0.0823
 1235ERGO    R417295  13.065   2.591   6.858 -0.1683 -0.0614 -0.0969
 1235ERGO    R517296  12.886   2.714   6.876 -0.0263  0.1338  0.0815
 1235ERGO    C117297  12.921   2.596   7.237  0.2220  0.1111  0.0526
 1235ERGO    C217298  12.834   2.658   7.474 -0.0836 -0.0577 -0.1311
 1236ERGO   ROH17299   3.581   4.850   6.052  0.1040 -0.3179  0.4179
 1236ERGO    R117300   3.416   5.020   6.206  0.0369 -0.1642  0.1813
 1236ERGO    R217301   3.272   4.930   6.424 -0.1768  0.0195  0.1121
 1236ERGO    R317302   3.402   5.131   6.553 -0.2155  0.0481  0.1087
 1236ERGO    R417303   3.196   5.044   6.741 -0.3812  0.1721  0.0105
 1236ERGO    R517304   3.230   5.248   6.671 -0.2829  0.1409 -0.0637
 1236ERGO    C117305   3.274   5.300   7.047 -0.5364  0.2878 -0.0518
 1236ERGO    C217306   3.337   5.631   7.339 -0.2726  0.0259 -0.1453
 1237ERGO   ROH17307  11.318   7.502   5.708 -0.0157 -0.0238  0.0313
 1237ERGO    R117308  11.451   7.391   5.932 -0.0337 -0.0120  0.0477
 1237ERGO    R217309  11.525   7.541   6.151 -0.0832 -0.0079  0.0601
 1237ERGO    R317310  11.384   7.353   6.288 -0.0786 -0.0277  0.0381
 1237ERGO    R417311  11.542   7.491   6.493  0.0154 -0.1279  0.0385
 1237ERGO    R517312  11.535   7.276   6.456 -0.0386 -0.1163 -0.0353
 1237ERGO    C117313  11.419   7.286   6.820  0.0773 -0.2164  0.0053
 1237ERGO    C217314  11.243   7.537   7.220  0.0067 -0.0264 -0.0164
 1238ERGO   ROH17315   3.569   1.723   6.507 -0.1531 -0.1649  0.0171
 1238ERGO    R117316   3.759   1.673   6.711 -0.1128 -0.0895 -0.0020
 1238ERGO    R217317   3.850   1.870   6.882 -0.1272 -0.0408 -0.0533
 1238ERGO    R317318   3.769   1.696   7.074 -0.0623 -0.0212 -0.0072
 1238ERGO    R417319   3.917   1.903   7.220 -0.1250  0.0665 -0.0632
 1238ERGO    R517320   3.952   1.688   7.228 -0.0524  0.0786 -0.0114
 1238ERGO    C117321   3.880   1.758   7.596 -0.0627  0.1473 -0.0257
 1238ERGO    C217322   3.911   1.682   7.960 -0.0484 -0.2961  0.0268
 1239ERGO   ROH17323   8.672   9.421  10.075  0.0472 -0.0975 -0.0368
 1239ERGO    R117324   8.761   9.553   9.840  0.1311 -0.0974 -0.0051
 1239ERGO    R217325   8.992   9.481   9.707  0.0566 -0.2492 -0.0522
 1239ERGO    R317326   8.824   9.462   9.494  0.0164 -0.0427 -0.0415
 1239ERGO    R417327   9.081   9.544   9.379  0.0436 -0.1017 -0.0284
 1239ERGO    R517328   8.889   9.642   9.351  0.0865  0.0110  0.0550
 1239ERGO    C117329   8.976   9.562   8.988 -0.0016  0.1782 -0.0046
 1239ERGO    C217330   9.100   9.454   8.653  0.1139 -0.0810  0.1599
 1240ERGO   ROH17331  16.270  10.335   6.270  0.1200 -0.0691  0.0272
 1240ERGO    R117332  16.371  10.223   6.510  0.0852 -0.1963 -0.0177
 1240ERGO    R217333  16.394  10.368   6.744  0.0608 -0.3191  0.0569
 1240ERGO    R317334  16.247  10.164   6.847  0.0427 -0.3675 -0.0609
 1240ERGO    R417335  16.344  10.311   7.081 -0.2531 -0.2832  0.0201
 1240ERGO    R517336  16.367  10.098   7.043 -0.1214 -0.2837  0.0736
 1240ERGO    C117337  16.177  10.086   7.374 -0.4528 -0.3077 -0.1119
 1240ERGO    C217338  16.168   9.978   7.801  0.1342 -0.0663 -0.0680
 1241ERGO   ROH17339  10.139   5.702   6.186  0.0402  0.2092  0.1014
 1241ERGO    R117340  10.107   5.664   6.465  0.0360  0.1379  0.0911
 1241ERGO    R217341  10.225   5.829   6.653  0.0704  0.0627  0.1357
 1241ERGO    R317342   9.970   5.853   6.744  0.0762  0.0870  0.1457
 1241ERGO    R417343  10.131   6.014   6.929  0.1053  0.0281  0.1711
 1241ERGO    R517344   9.992   5.855   6.982  0.0812  0.0407  0.1455
 1241ERGO    C117345   9.837   6.144   7.176  0.1311  0.0309  0.2010
 1241ERGO    C217346   9.782   6.320   7.446 -0.2321  0.2687  0.0528
 1242ERGO   ROH17347   5.206   3.745   6.394 -0.0385  0.3287  0.0928
 1242ERGO    R117348   5.347   3.729   6.639  0.0306  0.3615  0.0561
 1242ERGO    R217349   5.329   3.924   6.835 -0.1332  0.2545  0.1520
 1242ERGO    R317350   5.262   3.713   6.993  0.1184  0.1077  0.0679
 1242ERGO    R417351   5.368   3.914   7.178 -0.2355  0.2159  0.1621
 1242ERGO    R517352   5.433   3.707   7.160  0.0741  0.3118  0.1237
 1242ERGO    C117353   5.327   3.710   7.526 -0.0589  0.0557  0.0889
 1242ERGO    C217354   5.220   3.683   7.922 -0.1917 -0.0606 -0.1797
 1243ERGO   ROH17355   4.974  14.863   6.613 -0.1792  0.0207 -0.0450
 1243ERGO    R117356   5.043  14.901   6.885 -0.0339  0.0069 -0.0790
 1243ERGO    R217357   4.983  15.133   7.023 -0.0814 -0.0526  0.0022
 1243ERGO    R317358   4.866  14.961   7.197  0.1221 -0.1537  0.0424
 1243ERGO    R417359   4.959  15.185   7.363 -0.3385  0.1111 -0.0389
 1243ERGO    R517360   5.003  14.973   7.394  0.0091  0.1976  0.1066
 1243ERGO    C117361   4.834  15.054   7.726 -0.2972  0.1116 -0.0252
 1243ERGO    C217362   4.645  15.096   8.021 -0.1506 -0.1152 -0.0723
 1244ERGO   ROH17363  17.529  12.836   6.502 -0.2754  0.1461  0.2088
 1244ERGO    R117364  17.606  12.858   6.774 -0.1064 -0.0361  0.1753
 1244ERGO    R217365  17.424  12.905   6.977  0.0518  0.0472  0.2875
 1244ERGO    R317366  17.534  12.680   7.083 -0.0957 -0.0963  0.1464
 1244ERGO    R417367  17.412  12.818   7.311  0.1183 -0.0658  0.2625
 1244ERGO    R517368  17.618  12.750   7.296  0.0624 -0.2448  0.1418
 1244ERGO    C117369  17.507  12.555   7.605  0.0187 -0.2661  0.1155
 1244ERGO    C217370  17.357  12.675   7.843 -0.3820 -0.2614  0.1599
 1245ERGO   ROH17371   5.131  16.211   6.549 -0.0822  0.0876  0.0527
 1245ERGO    R117372   5.305  16.125   6.755 -0.0228  0.0846  0.0024
 1245ERGO    R217373   5.368  16.284   6.973 -0.0520  0.0394  0.0494
 1245ERGO    R317374   5.282  16.068   7.114  0.0422 -0.0396 -0.0142
 1245ERGO    R417375   5.294  16.285   7.310 -0.3335 -0.0295 -0.0101
 1245ERGO    R517376   5.389  16.090   7.327 -0.1576  0.0679  0.0727
 1245ERGO    C117377   5.170  16.084   7.639 -0.4091 -0.1436 -0.1045
 1245ERGO    C217378   5.105  16.213   8.045  0.0454 -0.2891  0.2021
 1246ERGO   ROH17379   2.293  13.839   6.691  0.2578  0.3513  0.0946
 1246ERGO    R117380   2.267  13.713   6.943 -0.0022  0.2033 -0.0021
 1246ERGO    R217381   2.388  13.810   7.171  0.1901 -0.2078  0.0821
 1246ERGO    R317382   2.135  13.800   7.270  0.1574  0.2192  0.0584
 1246ERGO    R417383   2.307  13.810   7.507  0.1561 -0.1102  0.0741
 1246ERGO    R517384   2.153  13.662   7.465 -0.1007  0.1605  0.0418
 1246ERGO    C117385   2.022  13.800   7.796  0.1055  0.3473  0.0471
 1246ERGO    C217386   2.019  13.940   8.176 -0.0614  0.0069 -0.1580
 1247ERGO   ROH17387   1.203   1.261   6.704  0.0149 -0.0463  0.1127
 1247ERGO    R117388   1.050   1.175   6.927 -0.0180 -0.0125  0.1030
 1247ERGO    R217389   1.066   0.919   7.028 -0.1453 -0.0399  0.0497
 1247ERGO    R317390   1.119   1.048   7.261 -0.0675 -0.1159  0.0751
 1247ERGO    R417391   0.915   0.849   7.331 -0.1285 -0.0692  0.0515
 1247ERGO    R517392   0.906   1.063   7.370 -0.0504 -0.0726  0.1076
 1247ERGO    C117393   0.876   0.930   7.726 -0.0456 -0.1576  0.0765
 1247ERGO    C217394   0.719   0.740   7.951 -0.1754  0.2208  0.0657
 1248ERGO   ROH17395  18.161   7.907   6.682  0.0211  0.0188 -0.0969
 1248ERGO    R117396  18.127   8.007   6.945 -0.0082 -0.2245 -0.0057
 1248ERGO    R217397  18.271   7.910   7.161  0.2642 -0.1533 -0.1497
 1248ERGO    R317398  18.336   8.172   7.194 -0.1430 -0.0636  0.0023
 1248ERGO    R417399  18.346   8.058   7.464  0.3432 -0.2890 -0.1019
 1248ERGO    R517400  18.233   8.233   7.401 -0.0268 -0.4186  0.1730
 1248ERGO    C117401  18.451   8.390   7.671  0.0069 -0.2838  0.0685
 1248ERGO    C217402  18.643   8.462   7.978  0.1583  0.0820  0.1171
 1249ERGO   ROH17403  16.742   0.362   6.232 -0.0533 -0.0213  0.0057
 1249ERGO    R117404  16.719   0.396   6.512 -0.1070  0.0110 -0.0036
 1249ERGO    R217405  16.578   0.220   6.672 -0.0469 -0.0254  0.0003
 1249ERGO    R317406  16.812   0.209   6.810 -0.0634  0.1011  0.0420
 1249ERGO    R417407  16.609   0.115   7.000 -0.0108 -0.3907 -0.1156
 1249ERGO    R517408  16.753   0.275   7.033 -0.2137 -0.2396  0.1152
 1249ERGO    C117409  16.847   0.043   7.320 -0.0054 -0.4848 -0.1440
 1249ERGO    C217410  16.838   0.133   7.649 -0.2418  0.2787  0.2025
 1250ERGO   ROH17411  12.634   5.059   9.921  0.1303 -0.1478 -0.0213
 1250ERGO    R117412  12.689   4.932   9.674  0.0310 -0.1495 -0.0423
 1250ERGO    R217413  12.489   4.828   9.514 -0.0515  0.0446 -0.0650
 1250ERGO    R317414  12.604   4.986   9.325  0.0849 -0.0173 -0.0360
 1250ERGO    R417415  12.520   4.747   9.179 -0.0805  0.0569 -0.0710
 1250ERGO    R517416  12.719   4.834   9.181 -0.0131 -0.0897 -0.0415
 1250ERGO    C117417  12.645   4.849   8.807  0.0307  0.0060 -0.0472
 1250ERGO    C217418  12.635   4.799   8.422 -0.0409 -0.2628 -0.0227
 1251ERGO   ROH17419   7.836  16.087   6.463  0.0125 -0.1557  0.0319
 1251ERGO    R117420   7.688  16.036   6.700  0.0232 -0.3493 -0.0013
 1251ERGO    R217421   7.738  15.817   6.861  0.4022 -0.1926  0.1112
 1251ERGO    R317422   7.761  16.007   7.055 -0.0421 -0.0538  0.0380
 1251ERGO    R417423   7.765  15.752   7.200  0.4241  0.0150  0.1503
 1251ERGO    R517424   7.632  15.920   7.238  0.0687 -0.2302  0.0314
 1251ERGO    C117425   7.802  15.891   7.578  0.0197  0.2661  0.1044
 1251ERGO    C217426   8.066  15.884   7.829 -0.2698 -0.0689  0.3406
 1252ERGO   ROH17427   3.775   8.154   6.425  0.1265  0.0246 -0.0483
 1252ERGO    R117428   3.682   8.144   6.693  0.0303 -0.0274 -0.0833
 1252ERGO    R217429   3.550   7.924   6.796  0.1726 -0.1295 -0.1141
 1252ERGO    R317430   3.744   7.938   6.987  0.0887  0.0513 -0.0406
 1252ERGO    R417431   3.537   7.766   7.103  0.2075 -0.1450 -0.1206
 1252ERGO    R517432   3.623   7.945   7.193  0.0050 -0.0643 -0.0856
 1252ERGO    C117433   3.711   7.687   7.461  0.1491  0.0157 -0.0553
 1252ERGO    C217434   3.698   7.603   7.792  0.2408  0.2063  0.1733
 1253ERGO   ROH17435   8.033  13.171  10.222 -0.1299 -0.1535 -0.0242
 1253ERGO    R117436   8.076  13.093   9.954 -0.1456 -0.2301 -0.0056
 1253ERGO    R217437   7.869  13.046   9.777 -0.1557  0.0700 -0.0820
 1253ERGO    R317438   8.002  13.227   9.624  0.1737 -0.1279 -0.0397
 1253ERGO    R417439   7.850  13.065   9.432  0.0088  0.0765 -0.0903
 1253ERGO    R517440   8.065  13.105   9.427  0.0752 -0.2350 -0.0065
 1253ERGO    C117441   7.964  13.247   9.088  0.4139 -0.1056 -0.0556
 1253ERGO    C217442   7.936  13.102   8.857  0.2568  0.0406  0.2970
 1254ERGO   ROH17443   2.853   3.472   5.971  0.1171  0.0346  0.0406
 1254ERGO    R117444   2.842   3.468   6.254  0.0670  0.0134  0.0381
 1254ERGO    R217445   2.943   3.259   6.404  0.0646  0.0160  0.0401
 1254ERGO    R317446   3.082   3.457   6.528  0.0190  0.0230  0.0814
 1254ERGO    R417447   3.089   3.233   6.716  0.0190  0.0028  0.0609
 1254ERGO    R517448   3.023   3.436   6.759 -0.0155 -0.0088  0.0709
 1254ERGO    C117449   3.305   3.403   7.014 -0.0504  0.0018  0.1117
 1254ERGO    C217450   3.420   3.427   7.301  0.1694 -0.3154  0.1859
 1255ERGO   ROH17451  16.386  17.480  10.177 -0.1328  0.0073  0.0608
 1255ERGO    R117452  16.504  17.463   9.920 -0.2944  0.1073 -0.0214
 1255ERGO    R217453  16.626  17.232   9.828  0.0206  0.2714 -0.0187
 1255ERGO    R317454  16.454  17.264   9.619 -0.1927 -0.0937  0.0911
 1255ERGO    R417455  16.705  17.176   9.496 -0.1019  0.3311 -0.0593
 1255ERGO    R517456  16.590  17.353   9.443 -0.4704  0.1163 -0.0287
 1255ERGO    C117457  16.590  17.173   9.107 -0.3734  0.0232  0.0198
 1255ERGO    C217458  16.688  17.092   8.740 -0.1829  0.1300  0.1064
 1256ERGO   ROH17459  12.041  15.407   6.367 -0.2542 -0.1599  0.1442
 1256ERGO    R117460  12.076  15.242   6.594 -0.3604 -0.0494  0.2404
 1256ERGO    R217461  12.286  15.273   6.770 -0.2523 -0.1828  0.1230
 1256ERGO    R317462  12.087  15.287   6.955 -0.1559  0.1772  0.2107
 1256ERGO    R417463  12.332  15.246   7.112 -0.1327 -0.2601  0.1029
 1256ERGO    R517464  12.150  15.127   7.122 -0.3567  0.0557  0.1831
 1256ERGO    C117465  12.172  15.244   7.484  0.0273  0.0329  0.1735
 1256ERGO    C217466  12.276  15.318   7.803  0.0666  0.0042  0.0604
 1257ERGO   ROH17467   9.651   3.748  10.004  0.0981  0.0865  0.1137
 1257ERGO    R117468   9.601   3.589   9.775  0.0069  0.0291  0.1724
 1257ERGO    R217469   9.479   3.689   9.549 -0.1412 -0.0423  0.2163
 1257ERGO    R317470   9.700   3.592   9.425 -0.1846 -0.0172  0.1180
 1257ERGO    R417471   9.499   3.611   9.213 -0.2098  0.1492  0.1664
 1257ERGO    R517472   9.615   3.435   9.266 -0.2403  0.0957  0.0397
 1257ERGO    C117473   9.719   3.475   8.901 -0.2905  0.2842  0.0450
 1257ERGO    C217474   9.765   3.507   8.517  0.0386  0.0569 -0.2509
 1258ERGO   ROH17475   5.290  13.643   6.611 -0.0270  0.0129 -0.1657
 1258ERGO    R117476   5.428  13.738   6.839 -0.0455  0.0219 -0.1582
 1258ERGO    R217477   5.300  13.799   7.076 -0.0638  0.0247 -0.1690
 1258ERGO    R317478   5.481  13.626   7.181 -0.0670  0.0318 -0.1516
 1258ERGO    R417479   5.291  13.677   7.399 -0.0781  0.0404 -0.1633
 1258ERGO    R517480   5.508  13.699   7.408 -0.0787  0.0431 -0.1539
 1258ERGO    C117481   5.456  13.443   7.686 -0.0894  0.0561 -0.1438
 1258ERGO    C217482   5.268  13.371   7.942  0.3209 -0.0271 -0.0776
 1259ERGO   ROH17483   8.023  17.077   6.742 -0.1351 -0.0048  0.0084
 1259ERGO    R117484   7.936  17.316   6.867 -0.1713  0.0148 -0.0551
 1259ERGO    R217485   7.674  17.355   6.946 -0.1580 -0.0379  0.0086
 1259ERGO    R317486   7.789  17.409   7.186 -0.1030  0.0905 -0.0448
 1259ERGO    R417487   7.508  17.484   7.220 -0.1707 -0.1922  0.0747
 1259ERGO    R517488   7.681  17.610   7.260 -0.2761 -0.0118 -0.0094
 1259ERGO    C117489   7.518  17.609   7.605 -0.1264 -0.1616  0.0631
 1259ERGO    C217490   7.654  17.615   7.946  0.2922 -0.0122 -0.0029
 1260ERGO   ROH17491   0.390   5.806   6.867 -0.2488  0.0508  0.0324
 1260ERGO    R117492   0.517   5.563   6.936 -0.1490  0.0577 -0.1183
 1260ERGO    R217493   0.548   5.480   7.198  0.0900  0.0136 -0.1513
 1260ERGO    R317494   0.424   5.255   7.107  0.0428  0.0163 -0.0906
 1260ERGO    R417495   0.448   5.215   7.396 -0.2364  0.2059 -0.0507
 1260ERGO    R517496   0.516   5.079   7.240 -0.1790  0.0573  0.1126
 1260ERGO    C117497   0.274   4.849   7.426 -0.4708  0.3204  0.0647
 1260ERGO    C217498   0.287   4.732   7.789  0.2889  0.0866 -0.1452
 1261ERGO   ROH17499  11.498  12.298   6.204 -0.0776 -0.0305 -0.0428
 1261ERGO    R117500  11.378  12.144   6.408 -0.0342  0.0230  0.0237
 1261ERGO    R217501  11.526  11.997   6.590  0.0036  0.0574  0.0204
 1261ERGO    R317502  11.381  12.138   6.772  0.0573  0.1068  0.0249
 1261ERGO    R417503  11.533  11.943   6.931 -0.1081 -0.0404  0.0079
 1261ERGO    R517504  11.317  11.975   6.936 -0.0895  0.1045 -0.0330
 1261ERGO    C117505  11.402  12.044   7.301 -0.1228 -0.0510  0.0047
 1261ERGO    C217506  11.699  12.150   7.604  0.2495 -0.0380  0.0410
 1262ERGO   ROH17507   5.705   0.897   6.927  0.0887  0.0411  0.0287
 1262ERGO    R117508   5.648   1.074   7.140  0.0217 -0.0271  0.0677
 1262ERGO    R217509   5.625   0.990   7.403  0.0742 -0.0903  0.0510
 1262ERGO    R317510   5.812   1.181   7.447 -0.0086 -0.0148  0.0801
 1262ERGO    R417511   5.655   1.173   7.694 -0.0215 -0.1065  0.0717
 1262ERGO    R517512   5.698   1.349   7.573 -0.0887 -0.0753  0.0905
 1262ERGO    C117513   5.849   1.459   7.905 -0.1551 -0.0449  0.1111
 1262ERGO    C217514   6.004   1.360   8.145 -0.1027  0.2102 -0.0219
 1263ERGO   ROH17515   6.171   4.685   6.743 -0.0614  0.0803 -0.0105
 1263ERGO    R117516   6.134   4.704   7.023 -0.3149 -0.0860 -0.0291
 1263ERGO    R217517   5.971   4.531   7.165 -0.0577 -0.4878 -0.2080
 1263ERGO    R317518   6.196   4.493   7.313 -0.0770 -0.0545 -0.0550
 1263ERGO    R417519   5.975   4.428   7.494 -0.0823 -0.3518 -0.1646
 1263ERGO    R517520   6.136   4.570   7.532 -0.3378 -0.0646 -0.1195
 1263ERGO    C117521   6.189   4.333   7.826 -0.1148  0.1340  0.0043
 1263ERGO    C217522   6.237   4.292   8.177  0.2722 -0.1089 -0.0310
 1264ERGO   ROH17523  15.847  14.442   6.475  0.2195 -0.1350  0.0659
 1264ERGO    R117524  15.828  14.350   6.741  0.0341 -0.0945  0.0665
 1264ERGO    R217525  15.866  14.515   6.960  0.2153 -0.1345  0.0598
 1264ERGO    R317526  15.621  14.423   7.032  0.0685  0.2049  0.0204
 1264ERGO    R417527  15.750  14.493   7.285  0.2166 -0.1623  0.0597
 1264ERGO    R517528  15.660  14.302   7.235 -0.0968  0.0052 -0.0598
 1264ERGO    C117529  15.453  14.394   7.541  0.0796  0.1402  0.0228
 1264ERGO    C217530  15.365  14.358   7.831 -0.1718 -0.0197  0.1639
 1265ERGO   ROH17531   5.485  17.916   6.928  0.0957 -0.0583 -0.0133
 1265ERGO    R117532   5.302  17.915   7.144  0.1256  0.1485  0.0142
 1265ERGO    R217533   5.242  17.686   7.288 -0.2110  0.1835 -0.0666
 1265ERGO    R317534   5.313  17.841   7.500  0.0663 -0.0060 -0.0145
 1265ERGO    R417535   5.103  17.664   7.603 -0.1409  0.2161 -0.0327
 1265ERGO    R517536   5.107  17.881   7.615  0.1513  0.2131  0.0700
 1265ERGO    C117537   5.089  17.796   7.986  0.1601  0.0572  0.0360
 1265ERGO    C217538   5.162  17.638   8.283  0.1952 -0.0081 -0.1259
 1266ERGO   ROH17539   4.553   2.075   6.640  0.3595  0.0420 -0.1374
 1266ERGO    R117540   4.474   2.262   6.838  0.2022  0.0265 -0.1837
 1266ERGO    R217541   4.609   2.291   7.078 -0.0579 -0.0760 -0.0176
 1266ERGO    R317542   4.621   2.551   7.001  0.1262 -0.0650  0.0487
 1266ERGO    R417543   4.549   2.563   7.283  0.0491 -0.0813  0.0211
 1266ERGO    R517544   4.444   2.658   7.119  0.1603  0.0208  0.0154
 1266ERGO    C117545   4.526   2.965   7.330  0.2842 -0.0741  0.1059
 1266ERGO    C217546   4.726   3.227   7.431  0.2782  0.1908  0.1795
 1267ERGO   ROH17547   4.954  12.500   6.678  0.0393  0.0697  0.1800
 1267ERGO    R117548   4.918  12.358   6.920 -0.0035  0.1474  0.2181
 1267ERGO    R217549   5.062  12.131   6.984 -0.2852 -0.0534  0.1417
 1267ERGO    R317550   5.121  12.271   7.209  0.0664 -0.1147  0.0947
 1267ERGO    R417551   5.230  12.003   7.257 -0.3195 -0.2942  0.0535
 1267ERGO    R517552   5.093  12.113   7.386 -0.0803 -0.0602  0.1265
 1267ERGO    C117553   5.384  12.060   7.628 -0.0094 -0.4920 -0.0419
 1267ERGO    C217554   5.625  12.112   7.795 -0.2568  0.1961  0.1719
 1268ERGO   ROH17555  11.087   9.062   5.819  0.1208  0.1593  0.0326
 1268ERGO    R117556  11.181   8.946   6.060  0.1454  0.2059  0.0493
 1268ERGO    R217557  11.260   9.098   6.277  0.0594  0.2542  0.0672
 1268ERGO    R317558  11.079   8.945   6.409  0.1006  0.1802  0.0318
 1268ERGO    R417559  11.275   9.020   6.613  0.1704 -0.0050  0.0020
 1268ERGO    R517560  11.209   8.818   6.564  0.1318  0.0514 -0.1146
 1268ERGO    C117561  11.113   8.831   6.933  0.2737 -0.2254 -0.0691
 1268ERGO    C217562  11.041   8.653   7.278  0.0475 -0.0434 -0.3033
 1269ERGO   ROH17563  17.450  18.148   9.898  0.0068  0.1806  0.0233
 1269ERGO    R117564  17.455  17.968   9.679 -0.0298  0.1724  0.0286
 1269ERGO    R217565  17.267  17.975   9.477  0.0276  0.2710 -0.0263
 1269ERGO    R317566  17.486  17.994   9.317  0.0850  0.1502  0.0372
 1269ERGO    R417567  17.265  17.933   9.134  0.1325  0.1552 -0.0131
 1269ERGO    R517568  17.453  17.824   9.151  0.0917  0.1059  0.0847
 1269ERGO    C117569  17.470  17.927   8.784  0.2474 -0.0256  0.0543
 1269ERGO    C217570  17.435  17.914   8.441 -0.0459 -0.1047 -0.3108
 1270ERGO   ROH17571   5.636  10.632   6.410 -0.1740 -0.1092  0.1655
 1270ERGO    R117572   5.814  10.568   6.621 -0.0731 -0.0072  0.1128
 1270ERGO    R217573   5.940  10.761   6.773 -0.1558  0.0664  0.0875
 1270ERGO    R317574   5.828  10.626   6.980 -0.0102 -0.0184  0.1124
 1270ERGO    R417575   6.039  10.788   7.103 -0.0100  0.0339  0.0474
 1270ERGO    R517576   6.013  10.572   7.123  0.0778  0.0185  0.0152
 1270ERGO    C117577   5.992  10.676   7.490  0.2116 -0.0648  0.0473
 1270ERGO    C217578   6.145  10.582   7.786 -0.2777 -0.1561 -0.0720
 1271ERGO   ROH17579   1.815   2.368  10.107  0.0958  0.0478 -0.0390
 1271ERGO    R117580   1.942   2.415   9.858  0.1553  0.0642 -0.0062
 1271ERGO    R217581   2.048   2.211   9.704  0.2486  0.0797  0.0336
 1271ERGO    R317582   1.888   2.317   9.512  0.2761  0.0310 -0.0155
 1271ERGO    R417583   2.092   2.166   9.365  0.3246  0.0379  0.0493
 1271ERGO    R517584   2.039   2.375   9.335  0.3040  0.0252  0.0081
 1271ERGO    C117585   1.968   2.238   8.986  0.3947 -0.0322  0.0123
 1271ERGO    C217586   2.004   2.150   8.616 -0.0819 -0.0826  0.1625
 1272ERGO   ROH17587   6.239  14.059   6.716 -0.1342 -0.1061  0.1394
 1272ERGO    R117588   6.400  13.930   6.910 -0.0368 -0.1934  0.0034
 1272ERGO    R217589   6.387  13.991   7.179  0.2588 -0.1530  0.0166
 1272ERGO    R317590   6.344  13.724   7.205  0.0977 -0.1208  0.0786
 1272ERGO    R417591   6.419  13.813   7.473  0.2863 -0.1332  0.0244
 1272ERGO    R517592   6.511  13.651   7.360  0.1237 -0.2079  0.0054
 1272ERGO    C117593   6.397  13.458   7.669  0.1511 -0.0915  0.0871
 1272ERGO    C217594   6.487  13.378   7.984 -0.0219 -0.2338  0.1362
 1273ERGO   ROH17595  13.321   6.419   6.055 -0.0900  0.1731  0.0649
 1273ERGO    R117596  13.390   6.431   6.330 -0.0423 -0.0259  0.0631
 1273ERGO    R217597  13.303   6.634   6.496  0.2375  0.0229  0.1524
 1273ERGO    R317598  13.213   6.426   6.647 -0.0150  0.0764  0.0813
 1273ERGO    R417599  13.221   6.655   6.831  0.3347  0.0010  0.1781
 1273ERGO    R517600  13.315   6.461   6.862  0.0805 -0.1475  0.0777
 1273ERGO    C117601  13.088   6.473   7.168  0.1544  0.0385  0.1263
 1273ERGO    C217602  12.937   6.644   7.553  0.0446 -0.1685 -0.0818
 1274ERGO   ROH17603  14.296   1.347   9.982  0.2331  0.1105 -0.2018
 1274ERGO    R117604  14.166   1.437   9.747  0.1350  0.0396 -0.1761
 1274ERGO    R217605  14.301   1.561   9.540  0.0402  0.0363 -0.2459
 1274ERGO    R317606  14.185   1.366   9.391  0.0369 -0.0199 -0.1686
 1274ERGO    R417607  14.293   1.554   9.195  0.1573 -0.1784 -0.2450
 1274ERGO    R517608  14.088   1.482   9.205  0.1367 -0.1100 -0.2739
 1274ERGO    C117609  14.180   1.366   8.854  0.2222 -0.3560 -0.1720
 1274ERGO    C217610  14.100   1.385   8.537 -0.2942 -0.5142  0.2169
 1275ERGO   ROH17611   1.098   3.890   6.244  0.0369  0.1130 -0.0255
 1275ERGO    R117612   0.935   3.937   6.471  0.1150  0.1696  0.0185
 1275ERGO    R217613   0.771   3.742   6.579  0.0419  0.2442  0.0297
 1275ERGO    R317614   0.905   3.803   6.807  0.1221  0.1443  0.0110
 1275ERGO    R417615   0.656   3.678   6.899  0.1120  0.1619  0.0394
 1275ERGO    R517616   0.735   3.872   6.960  0.1723  0.1321  0.0801
 1275ERGO    C117617   0.715   3.698   7.299  0.2280  0.0204  0.0275
 1275ERGO    C217618   0.901   3.486   7.606  0.3271 -0.0784  0.0824
 1276ERGO   ROH17619  16.496   0.894   9.821  0.0252 -0.0043  0.0948
 1276ERGO    R117620  16.484   1.015   9.565  0.0155 -0.0154  0.0891
 1276ERGO    R217621  16.691   0.999   9.383  0.0470  0.0497  0.1120
 1276ERGO    R317622  16.496   0.904   9.219  0.0972 -0.0242  0.0959
 1276ERGO    R417623  16.686   1.037   9.040 -0.0638  0.2501  0.1352
 1276ERGO    R517624  16.472   1.074   9.052 -0.0909  0.0518  0.2026
 1276ERGO    C117625  16.501   0.971   8.686 -0.0809  0.2974  0.1337
 1276ERGO    C217626  16.692   0.939   8.393  0.0554 -0.1368 -0.2079
 1277ERGO   ROH17627  12.077   3.200   5.980  0.0637  0.1392  0.1466
 1277ERGO    R117628  11.910   3.348   6.155 -0.0053  0.0815  0.1332
 1277ERGO    R217629  11.688   3.238   6.276 -0.0395  0.0258  0.0468
 1277ERGO    R317630  11.808   3.326   6.503 -0.1026 -0.0190  0.0953
 1277ERGO    R417631  11.534   3.258   6.585 -0.0844 -0.0838  0.0305
 1277ERGO    R517632  11.636   3.448   6.617 -0.1314 -0.0860  0.1041
 1277ERGO    C117633  11.557   3.353   6.978 -0.1699 -0.1897  0.0665
 1277ERGO    C217634  11.514   3.500   7.326 -0.1282  0.0619 -0.0895
 1278ERGO   ROH17635  16.120  13.766  10.528 -0.4885 -0.0011 -0.0418
 1278ERGO    R117636  16.215  13.711  10.267 -0.3153  0.1727 -0.0169
 1278ERGO    R217637  16.094  13.528  10.100 -0.0551  0.1007 -0.1260
 1278ERGO    R317638  16.086  13.738   9.928 -0.1889  0.1433 -0.0691
 1278ERGO    R417639  16.104  13.500   9.756  0.1136  0.1958 -0.1300
 1278ERGO    R517640  16.235  13.675   9.751 -0.0499  0.3311 -0.0268
 1278ERGO    C117641  16.101  13.682   9.393  0.0860  0.2914 -0.0790
 1278ERGO    C217642  16.128  13.669   9.001 -0.0336  0.0741  0.0645
 1279ERGO   ROH17643   4.650   6.841   6.371  0.2994  0.2667 -0.1568
 1279ERGO    R117644   4.648   6.936   6.638  0.3365  0.2881 -0.1643
 1279ERGO    R217645   4.611   7.202   6.702 -0.0294  0.2406 -0.1659
 1279ERGO    R317646   4.412   7.103   6.858  0.2231 -0.0535 -0.0186
 1279ERGO    R417647   4.546   7.303   7.026 -0.0912  0.3317 -0.2063
 1279ERGO    R517648   4.507   7.095   7.078  0.3386  0.2795 -0.0497
 1279ERGO    C117649   4.321   7.270   7.361  0.1099  0.1087 -0.0914
 1279ERGO    C217650   4.258   7.375   7.729 -0.1418 -0.0401  0.1100
 1280ERGO   ROH17651  10.765   3.335   5.812 -0.0433 -0.0452 -0.0194
 1280ERGO    R117652  10.605   3.235   6.024  0.0022  0.0220  0.0480
 1280ERGO    R217653  10.651   2.988   6.140 -0.0686 -0.0102  0.0111
 1280ERGO    R317654  10.658   3.134   6.369  0.1118 -0.0267  0.0175
 1280ERGO    R417655  10.597   2.860   6.456 -0.2504  0.0438  0.0029
 1280ERGO    R517656  10.483   3.040   6.504 -0.0194  0.1934  0.0056
 1280ERGO    C117657  10.572   2.923   6.856 -0.1867  0.0597  0.0041
 1280ERGO    C217658  10.685   2.829   7.170 -0.1455  0.1106  0.2426
 1281ERGO   ROH17659   8.656   3.247   6.072 -0.1775 -0.2872 -0.1965
 1281ERGO    R117660   8.647   3.132   6.330 -0.1712 -0.2734 -0.1905
 1281ERGO    R217661   8.766   3.250   6.550 -0.0926 -0.3063 -0.2183
 1281ERGO    R317662   8.517   3.226   6.657 -0.0809 -0.2171 -0.1696
 1281ERGO    R417663   8.687   3.303   6.883  0.0204 -0.3983 -0.1759
 1281ERGO    R517664   8.553   3.131   6.873 -0.0755 -0.3266 -0.2153
 1281ERGO    C117665   8.407   3.312   7.176  0.0972 -0.3682 -0.1054
 1281ERGO    C217666   8.558   3.446   7.357  0.0316 -0.0679 -0.2027
 1282ERGO   ROH17667   5.523   9.625   6.573  0.3254 -0.2256 -0.0254
 1282ERGO    R117668   5.535   9.728   6.836  0.1241 -0.1936 -0.0252
 1282ERGO    R217669   5.443   9.588   7.056  0.0708 -0.2180 -0.0601
 1282ERGO    R317670   5.694   9.633   7.150 -0.0072 -0.0839  0.0751
 1282ERGO    R417671   5.534   9.573   7.388 -0.0906 -0.2588 -0.0202
 1282ERGO    R517672   5.659   9.748   7.357 -0.1875 -0.1690  0.0932
 1282ERGO    C117673   5.823   9.607   7.671 -0.2579 -0.1566  0.1301
 1282ERGO    C217674   5.716   9.318   7.834  0.1276  0.3509 -0.0743
 1283ERGO   ROH17675  17.369  17.620   6.205  0.4070 -0.1376 -0.0057
 1283ERGO    R117676  17.408  17.823   6.399  0.2107 -0.0508 -0.0548
 1283ERGO    R217677  17.203  17.920   6.555  0.1108 -0.1971 -0.0945
 1283ERGO    R317678  17.370  17.855   6.759  0.1579  0.0081 -0.0653
 1283ERGO    R417679  17.179  18.045   6.877  0.1019  0.0264 -0.1801
 1283ERGO    R517680  17.397  18.060   6.881  0.0989  0.1076 -0.2147
 1283ERGO    C117681  17.322  18.057   7.255  0.1410  0.3489 -0.2025
 1283ERGO    C217682  17.193  17.978   7.590  0.0734  0.0463 -0.0744
 1284ERGO   ROH17683  12.906  14.588   6.209 -0.0133  0.0559 -0.0804
 1284ERGO    R117684  12.856  14.429   6.437  0.1631  0.0147 -0.0683
 1284ERGO    R217685  13.023  14.427   6.657  0.1194  0.2898 -0.0262
 1284ERGO    R317686  12.794  14.486   6.791 -0.0027 -0.0174 -0.0923
 1284ERGO    R417687  12.989  14.426   7.001  0.0426  0.3421 -0.0338
 1284ERGO    R517688  12.792  14.335   6.977  0.1850  0.0360 -0.0489
 1284ERGO    C117689  12.754  14.481   7.327 -0.1168  0.0843 -0.1002
 1284ERGO    C217690  12.494  14.407   7.627 -0.4154 -0.0497 -0.0275
 1285ERGO   ROH17691   7.475  12.713   6.530  0.0932  0.1859  0.1047
 1285ERGO    R117692   7.335  12.778   6.767 -0.1100  0.3960 -0.0700
 1285ERGO    R217693   7.450  12.762   7.017 -0.4871  0.0795  0.0871
 1285ERGO    R317694   7.369  13.021   7.036  0.0087  0.2473  0.0526
 1285ERGO    R417695   7.429  12.941   7.312 -0.7859 -0.0813  0.1690
 1285ERGO    R517696   7.243  13.029   7.240 -0.4569  0.3624 -0.2199
 1285ERGO    C117697   7.342  13.289   7.501 -0.4944 -0.0177  0.1844
 1285ERGO    C217698   7.441  13.414   7.864  0.1476 -0.0395  0.3654
 1286ERGO   ROH17699  14.851   8.161   6.258  0.0300  0.0074 -0.0610
 1286ERGO    R117700  14.785   8.284   6.505 -0.0969 -0.0290 -0.0770
 1286ERGO    R217701  14.567   8.206   6.656 -0.0265 -0.2240 -0.0775
 1286ERGO    R317702  14.753   8.179   6.852 -0.0066 -0.0211 -0.0657
 1286ERGO    R417703  14.496   8.154   6.990  0.0070 -0.2174 -0.0688
 1286ERGO    R517704  14.658   8.291   7.040 -0.1120 -0.0637 -0.0915
 1286ERGO    C117705  14.630   8.099   7.369  0.0451 -0.0231 -0.0527
 1286ERGO    C217706  14.540   7.997   7.647 -0.2005 -0.0002 -0.0600
 1287ERGO   ROH17707  17.202  11.992   6.377 -0.0126 -0.0800 -0.0932
 1287ERGO    R117708  17.099  11.977   6.640 -0.0332 -0.0525 -0.1006
 1287ERGO    R217709  17.005  11.741   6.749  0.0424 -0.0563 -0.0547
 1287ERGO    R317710  17.183  11.799   6.946 -0.0018  0.0539 -0.0452
 1287ERGO    R417711  16.962  11.664   7.083  0.1275 -0.2191 -0.0795
 1287ERGO    R517712  17.047  11.859   7.134 -0.0598 -0.1449 -0.0168
 1287ERGO    C117713  17.104  11.674   7.463  0.1357 -0.2104 -0.0850
 1287ERGO    C217714  17.136  11.388   7.693  0.0513  0.0101 -0.0883
 1288ERGO   ROH17715   0.168  14.111   7.249 -0.1287  0.0202  0.0501
 1288ERGO    R117716   0.221  13.912   7.443 -0.1060  0.0249  0.0491
 1288ERGO    R217717   0.216  13.963   7.714 -0.1364  0.0170  0.0518
 1288ERGO    R317718   0.041  13.756   7.718 -0.0982 -0.0152  0.0308
 1288ERGO    R417719   0.133  13.780   7.995 -0.0263 -0.0952  0.0119
 1288ERGO    R517720   0.136  13.600   7.872 -0.0287 -0.0516 -0.0497
 1288ERGO    C117721  -0.081  13.478   8.161  0.0736 -0.1908 -0.0310
 1288ERGO    C217722  -0.457  13.249   8.196  0.0849 -0.2076  0.2201
 1289ERGO   ROH17723   0.383  11.067   6.687  0.1540  0.1140  0.0366
 1289ERGO    R117724   0.572  10.985   6.881  0.1299  0.0440  0.0310
 1289ERGO    R217725   0.710  11.164   7.040  0.1147 -0.0122  0.1104
 1289ERGO    R317726   0.609  11.012   7.242  0.0868 -0.0805  0.0450
 1289ERGO    R417727   0.850  11.135   7.355 -0.1412  0.1883  0.2456
 1289ERGO    R517728   0.802  10.923   7.351  0.0814  0.1379  0.2376
 1289ERGO    C117729   0.836  10.976   7.727 -0.3164  0.2406  0.2629
 1289ERGO    C217730   0.801  10.929   8.056 -0.1309 -0.2182 -0.2466
 1290ERGO   ROH17731  10.180   1.454   6.477  0.1507  0.3295 -0.0162
 1290ERGO    R117732  10.160   1.479   6.758 -0.1350  0.2269 -0.0238
 1290ERGO    R217733  10.373   1.556   6.916 -0.1262 -0.3580  0.2820
 1290ERGO    R317734  10.198   1.745   7.003  0.2033  0.0220  0.1539
 1290ERGO    R417735  10.371   1.693   7.234 -0.1431 -0.4497  0.3214
 1290ERGO    R517736  10.154   1.684   7.231 -0.1714  0.0459  0.0925
 1290ERGO    C117737  10.205   1.949   7.500  0.1563 -0.1464  0.2241
 1290ERGO    C217738  10.093   2.263   7.663 -0.0030 -0.1788 -0.1511
 1291ERGO   ROH17739  12.093  11.380   6.290  0.0281 -0.1254  0.0601
 1291ERGO    R117740  12.078  11.267   6.549 -0.0596 -0.0880  0.0720
 1291ERGO    R217741  12.301  11.232   6.709 -0.0886 -0.2209  0.0851
 1291ERGO    R317742  12.154  11.373   6.889 -0.0018 -0.1013  0.0634
 1291ERGO    R417743  12.342  11.217   7.052 -0.0430 -0.1293  0.0839
 1291ERGO    R517744  12.125  11.222   7.073 -0.0380 -0.0309  0.1158
 1291ERGO    C117745  12.227  11.341   7.420  0.0651  0.0366  0.0628
 1291ERGO    C217746  12.234  11.181   7.683 -0.1711 -0.2076  0.0528
 1292ERGO   ROH17747   8.400   4.793   9.934  0.1380  0.0257 -0.0563
 1292ERGO    R117748   8.305   4.808   9.668  0.1763  0.1653 -0.0631
 1292ERGO    R217749   8.379   5.010   9.495  0.4137  0.1114 -0.0287
 1292ERGO    R317750   8.453   4.803   9.335  0.2026  0.0508 -0.0502
 1292ERGO    R417751   8.396   5.022   9.150  0.3904  0.1170 -0.0298
 1292ERGO    R517752   8.311   4.822   9.143  0.2004  0.1965 -0.0347
 1292ERGO    C117753   8.475   4.834   8.799  0.1786  0.0633 -0.0506
 1292ERGO    C217754   8.605   4.923   8.538 -0.0928  0.1656 -0.2829
 1293ERGO   ROH17755   7.327  15.044   6.590 -0.0688 -0.1479  0.0901
 1293ERGO    R117756   7.302  14.971   6.862  0.0091 -0.0521  0.1232
 1293ERGO    R217757   7.499  14.834   6.998  0.0424 -0.0099  0.1110
 1293ERGO    R317758   7.478  15.042   7.172  0.1021  0.0489  0.0494
 1293ERGO    R417759   7.624  14.835   7.321 -0.1795 -0.0580  0.1995
 1293ERGO    R517760   7.443  14.938   7.385 -0.1408  0.1193  0.0502
 1293ERGO    C117761   7.677  15.031   7.672 -0.2526 -0.0309  0.1931
 1293ERGO    C217762   7.823  14.967   8.009 -0.0642  0.0351  0.0271
 1294ERGO   ROH17763   9.322   2.523   6.153 -0.1207  0.2323  0.0455
 1294ERGO    R117764   9.391   2.495   6.426 -0.2475  0.1070  0.0641
 1294ERGO    R217765   9.602   2.630   6.541 -0.1051 -0.1900  0.1462
 1294ERGO    R317766   9.412   2.712   6.718 -0.0520  0.0444  0.1005
 1294ERGO    R417767   9.668   2.782   6.845  0.0242 -0.2997  0.1753
 1294ERGO    R517768   9.507   2.663   6.933 -0.1633 -0.1036  0.1241
 1294ERGO    C117769   9.527   2.947   7.187  0.1494 -0.1435  0.1493
 1294ERGO    C217770   9.604   3.254   7.277 -0.3553  0.2048 -0.0431
 1295ERGO   ROH17771  13.565  17.402   6.448 -0.2051 -0.1426  0.0720
 1295ERGO    R117772  13.675  17.281   6.679 -0.0412  0.0098  0.0757
 1295ERGO    R217773  13.904  17.377   6.801 -0.0450  0.1911 -0.0517
 1295ERGO    R317774  13.745  17.381   7.022  0.0397  0.1828  0.0100
 1295ERGO    R417775  14.017  17.390   7.128  0.0788  0.2460 -0.0963
 1295ERGO    R517776  13.861  17.248   7.183  0.1273  0.2220 -0.0211
 1295ERGO    C117777  13.933  17.402   7.524  0.2302  0.2705 -0.0644
 1295ERGO    C217778  13.932  17.370   7.929  0.0433 -0.0753 -0.1812
 1296ERGO   ROH17779   5.620   7.102   6.151 -0.0678  0.1802 -0.0776
 1296ERGO    R117780   5.528   7.281   6.351 -0.0606  0.0562  0.0401
 1296ERGO    R217781   5.515   7.212   6.619  0.1850 -0.0305  0.0386
 1296ERGO    R317782   5.665   7.436   6.650  0.0423  0.0725 -0.0176
 1296ERGO    R417783   5.585   7.363   6.921  0.1436  0.0662 -0.0006
 1296ERGO    R517784   5.558   7.556   6.826  0.0009  0.0291 -0.0201
 1296ERGO    C117785   5.767   7.661   7.127 -0.0146  0.2191 -0.0762
 1296ERGO    C217786   5.953   7.495   7.482  0.1236  0.0779  0.0607
 1297ERGO   ROH17787  15.190   1.026  10.100 -0.0781  0.1087  0.0244
 1297ERGO    R117788  15.241   1.014   9.821 -0.0096  0.1899  0.0328
 1297ERGO    R217789  15.181   0.791   9.668  0.1609  0.1795 -0.0212
 1297ERGO    R317790  15.043   0.971   9.518  0.0821  0.1221 -0.0181
 1297ERGO    R417791  15.232   0.848   9.331  0.0152  0.0803 -0.0606
 1297ERGO    R517792  15.207   1.061   9.368  0.0125  0.0902 -0.1145
 1297ERGO    C117793  15.132   1.050   8.994 -0.1437 -0.0315 -0.0807
 1297ERGO    C217794  15.186   1.020   8.660  0.0377 -0.1322  0.0263
 1298ERGO   ROH17795   6.044   5.559   6.537 -0.2071  0.1662  0.0187
 1298ERGO    R117796   6.157   5.666   6.774 -0.0519  0.0535 -0.0026
 1298ERGO    R217797   6.014   5.691   7.009  0.0316  0.1559  0.0388
 1298ERGO    R317798   6.222   5.549   7.112 -0.0584 -0.0283 -0.0294
 1298ERGO    R417799   6.080   5.655   7.346  0.0520  0.0110  0.0198
 1298ERGO    R517800   6.293   5.677   7.302  0.0631 -0.1341 -0.0023
 1298ERGO    C117801   6.313   5.501   7.640 -0.0206 -0.2462 -0.0552
 1298ERGO    C217802   6.060   5.448   7.867  0.0617 -0.0160  0.2251
 1299ERGO   ROH17803   8.019   7.398   6.043 -0.1580  0.1829 -0.0362
 1299ERGO    R117804   8.044   7.366   6.323 -0.1103  0.1013 -0.0490
 1299ERGO    R217805   7.882   7.498   6.503 -0.0057  0.1379  0.0224
 1299ERGO    R317806   7.834   7.246   6.595 -0.1086  0.1379 -0.0320
 1299ERGO    R417807   7.738   7.423   6.808  0.0294  0.1302  0.0363
 1299ERGO    R517808   7.880   7.259   6.829 -0.0471  0.0543 -0.0399
 1299ERGO    C117809   7.610   7.143   7.072 -0.0467  0.1258 -0.0066
 1299ERGO    C217810   7.467   7.271   7.330  0.2097  0.0627 -0.1647
 1300ERGO   ROH17811  12.839   5.719   6.103 -0.1969  0.0785  0.0250
 1300ERGO    R117812  12.820   5.561   6.337 -0.0814  0.1043  0.0521
 1300ERGO    R217813  13.037   5.425   6.442 -0.0160  0.1607 -0.0080
 1300ERGO    R317814  12.971   5.560   6.668  0.0381  0.1764 -0.0015
 1300ERGO    R417815  13.089   5.310   6.764 -0.1827  0.0669 -0.0133
 1300ERGO    R517816  12.894   5.391   6.819 -0.1320  0.2119 -0.0462
 1300ERGO    C117817  13.058   5.370   7.163 -0.2288  0.0270 -0.0102
 1300ERGO    C217818  13.297   5.352   7.489  0.2012 -0.1691  0.1034
 1301ERGO   ROH17819  14.594  17.866   6.429 -0.0279 -0.0854  0.1282
 1301ERGO    R117820  14.828  17.858   6.589 -0.0942 -0.0488  0.2273
 1301ERGO    R217821  15.001  18.074   6.610  0.0104 -0.1190  0.0720
 1301ERGO    R317822  14.957  18.040   6.876 -0.1094  0.1770  0.0952
 1301ERGO    R417823  15.235  18.130   6.858 -0.0134 -0.0954  0.0899
 1301ERGO    R517824  15.163  17.952   6.960 -0.2133  0.0632  0.2430
 1301ERGO    C117825  15.330  18.130   7.252 -0.1396  0.1961  0.1220
 1301ERGO    C217826  15.496  18.248   7.531 -0.0824  0.1341  0.1318
 1302ERGO   ROH17827  16.375   7.180  10.137 -0.0351 -0.0762 -0.1707
 1302ERGO    R117828  16.323   7.357   9.923 -0.2642 -0.1303 -0.1639
 1302ERGO    R217829  16.517   7.429   9.740 -0.2937  0.2836 -0.0462
 1302ERGO    R317830  16.333   7.343   9.559 -0.0341 -0.0482 -0.1620
 1302ERGO    R417831  16.551   7.450   9.396 -0.1453  0.3932 -0.0256
 1302ERGO    R517832  16.341   7.505   9.384 -0.2483 -0.0070 -0.1333
 1302ERGO    C117833  16.398   7.381   9.027  0.1845  0.1458 -0.1222
 1302ERGO    C217834  16.368   7.402   8.655 -0.4194 -0.2185 -0.1378
 1303ERGO   ROH17835   7.837   7.993   9.673  0.0375  0.1419 -0.1856
 1303ERGO    R117836   7.754   8.015   9.404 -0.0159 -0.0590 -0.1868
 1303ERGO    R217837   7.884   8.176   9.221 -0.2472  0.0594 -0.2493
 1303ERGO    R317838   7.897   7.946   9.076  0.0528  0.0266 -0.1756
 1303ERGO    R417839   7.914   8.160   8.877 -0.2227 -0.0080 -0.2442
 1303ERGO    R517840   7.773   7.993   8.877 -0.0102 -0.1947 -0.1934
 1303ERGO    C117841   7.945   7.934   8.541  0.0732 -0.0781 -0.1720
 1303ERGO    C217842   8.087   7.818   8.170  0.2903 -0.3048  0.0853
 1304ERGO   ROH17843   2.898  16.527   6.670 -0.0110 -0.1782 -0.0671
 1304ERGO    R117844   2.722  16.441   6.875  0.0111 -0.0380  0.0114
 1304ERGO    R217845   2.757  16.203   7.010 -0.0328  0.0076  0.0988
 1304ERGO    R317846   2.748  16.364   7.230  0.0711  0.0991  0.0382
 1304ERGO    R417847   2.741  16.091   7.337  0.0978  0.1398  0.1524
 1304ERGO    R517848   2.599  16.251   7.380  0.1252  0.1682  0.1477
 1304ERGO    C117849   2.722  16.177   7.733  0.2715  0.3026  0.1268
 1304ERGO    C217850   2.704  16.001   8.093  0.0604 -0.3024 -0.1879
 1305ERGO   ROH17851  11.010  13.705   6.361  0.1991 -0.4214 -0.0480
 1305ERGO    R117852  10.912  13.632   6.616  0.1397 -0.2822 -0.0303
 1305ERGO    R217853  11.004  13.411   6.754  0.0598 -0.2470  0.0830
 1305ERGO    R317854  11.048  13.593   6.951  0.0774 -0.1700  0.0084
 1305ERGO    R417855  11.084  13.332   7.080 -0.1009 -0.1217  0.1544
 1305ERGO    R517856  10.953  13.493   7.146 -0.0448 -0.0226  0.0247
 1305ERGO    C117857  11.173  13.457   7.456 -0.1780  0.0234  0.1258
 1305ERGO    C217858  11.277  13.420   7.734 -0.0910 -0.0155  0.1107
 1306ERGO   ROH17859   1.686   4.836   6.361  0.0608 -0.0868 -0.0997
 1306ERGO    R117860   1.683   4.810   6.642 -0.1915  0.0324 -0.0883
 1306ERGO    R217861   1.462   4.720   6.782 -0.1781 -0.3344 -0.2932
 1306ERGO    R317862   1.638   4.540   6.882  0.0701  0.0420 -0.0242
 1306ERGO    R417863   1.424   4.552   7.081 -0.3300 -0.4730 -0.3886
 1306ERGO    R517864   1.637   4.579   7.118 -0.4367  0.0069 -0.0087
 1306ERGO    C117865   1.567   4.284   7.349 -0.1854 -0.2001 -0.1915
 1306ERGO    C217866   1.592   4.127   7.677 -0.0109 -0.2743 -0.2102
 1307ERGO   ROH17867  15.716  15.924   6.279 -0.0164 -0.1467  0.0723
 1307ERGO    R117868  15.607  16.043   6.512  0.2017 -0.0149  0.1093
 1307ERGO    R217869  15.409  15.921   6.662  0.0213  0.2737  0.1066
 1307ERGO    R317870  15.585  15.959   6.865  0.1087 -0.0514  0.0963
 1307ERGO    R417871  15.333  15.893   6.998  0.0191  0.2688  0.1060
 1307ERGO    R517872  15.458  16.067   7.036  0.2831  0.0808  0.1493
 1307ERGO    C117873  15.455  15.912   7.384  0.0998 -0.0390  0.0959
 1307ERGO    C217874  15.280  15.800   7.638 -0.0172 -0.0234 -0.0287
 1308ERGO   ROH17875  15.357   0.812   6.342  0.0944 -0.2614 -0.0527
 1308ERGO    R117876  15.333   0.942   6.592  0.2919 -0.2678 -0.0286
 1308ERGO    R217877  15.089   1.003   6.705  0.3761  0.1286 -0.0401
 1308ERGO    R317878  15.189   0.865   6.917  0.1254 -0.0915 -0.0598
 1308ERGO    R417879  15.021   1.075   7.037  0.3915  0.1048 -0.0320
 1308ERGO    R517880  15.231   1.033   7.083  0.3223 -0.2094  0.0112
 1308ERGO    C117881  15.076   0.987   7.429  0.1651 -0.1155 -0.0458
 1308ERGO    C217882  14.866   1.131   7.724 -0.2520  0.0558  0.0856
 1309ERGO   ROH17883  14.191  15.640  10.032  0.0309 -0.0233 -0.0446
 1309ERGO    R117884  14.311  15.734   9.794  0.0693 -0.1231 -0.0663
 1309ERGO    R217885  14.424  15.565   9.607 -0.1841 -0.2296 -0.1334
 1309ERGO    R317886  14.256  15.693   9.436 -0.0924 -0.0026 -0.0555
 1309ERGO    R417887  14.441  15.547   9.262 -0.3037 -0.1603 -0.1426
 1309ERGO    R517888  14.395  15.760   9.254 -0.0730 -0.1097 -0.0771
 1309ERGO    C117889  14.292  15.658   8.901 -0.2876  0.0932 -0.0746
 1309ERGO    C217890  14.350  15.669   8.591 -0.1564  0.3092  0.0155
 1310ERGO   ROH17891   3.026   6.080   6.539  0.0216  0.1778 -0.1695
 1310ERGO    R117892   2.789   6.089   6.692  0.0531 -0.0274 -0.1053
 1310ERGO    R217893   2.786   6.166   6.958  0.0575 -0.0262 -0.1025
 1310ERGO    R317894   2.599   6.342   6.871 -0.1186 -0.1887 -0.0580
 1310ERGO    R417895   2.561   6.330   7.162  0.2862  0.1488  0.0123
 1310ERGO    R517896   2.408   6.299   7.010  0.0832 -0.0830  0.2588
 1310ERGO    C117897   2.254   6.592   7.200  0.2542  0.0982  0.1209
 1310ERGO    C217898   2.043   6.765   7.359  0.2396 -0.2474 -0.2392
 1311ERGO   ROH17899  15.654  12.854   6.646  0.0741  0.0523  0.0054
 1311ERGO    R117900  15.725  12.750   6.899  0.1418  0.1262  0.0178
 1311ERGO    R217901  15.693  12.484   6.966 -0.1242  0.1983  0.2072
 1311ERGO    R317902  15.957  12.501   7.028 -0.0540 -0.0701 -0.0062
 1311ERGO    R417903  15.855  12.279   7.192 -0.1823  0.1365  0.1919
 1311ERGO    R517904  15.966  12.454   7.263  0.0740  0.0497  0.0122
 1311ERGO    C117905  16.198  12.176   7.382 -0.1501 -0.1516 -0.0172
 1311ERGO    C217906  16.231  11.978   7.632 -0.2230  0.1484  0.0699
 1312ERGO   ROH17907   9.651  16.645   6.353 -0.0636  0.2707  0.0800
 1312ERGO    R117908   9.642  16.637   6.636  0.1440  0.3185  0.0903
 1312ERGO    R217909   9.536  16.423   6.776 -0.1267  0.5109  0.1967
 1312ERGO    R317910   9.779  16.425   6.898 -0.0162  0.1020  0.0005
 1312ERGO    R417911   9.599  16.303   7.094  0.0581 -0.0752 -0.0487
 1312ERGO    R517912   9.730  16.473   7.127  0.2256 -0.2387  0.1282
 1312ERGO    C117913   9.864  16.235   7.393  0.2692 -0.8004 -0.3758
 1312ERGO    C217914  10.021  16.180   7.562  0.1604 -0.2031  0.0940
 1313ERGO   ROH17915   8.792  16.152  10.297 -0.1970  0.1518  0.1467
 1313ERGO    R117916   8.720  16.256  10.044 -0.2174  0.0794  0.1235
 1313ERGO    R217917   8.907  16.352   9.864 -0.2422  0.1149  0.1223
 1313ERGO    R317918   8.789  16.174   9.695 -0.1642  0.0434  0.1410
 1313ERGO    R417919   8.885  16.390   9.521 -0.0706 -0.0288  0.0934
 1313ERGO    R517920   8.682  16.311   9.530 -0.0808 -0.0208  0.0285
 1313ERGO    C117921   8.761  16.244   9.163  0.1025 -0.1795  0.0941
 1313ERGO    C217922   8.895  16.295   8.910  0.0318 -0.0762 -0.2809
 1314ERGO   ROH17923  13.152  11.075   6.504  0.4121 -0.0957  0.1580
 1314ERGO    R117924  13.193  11.120   6.780  0.1646 -0.0317  0.1870
 1314ERGO    R217925  13.013  11.260   6.936 -0.0682 -0.1554  0.0359
 1314ERGO    R317926  13.023  11.037   7.090 -0.0092 -0.1321  0.0662
 1314ERGO    R417927  12.908  11.242   7.265  0.1726 -0.0737  0.1193
 1314ERGO    R517928  13.081  11.117   7.308  0.1744 -0.1099  0.0105
 1314ERGO    C117929  12.856  11.022   7.601  0.3682 -0.0043  0.1963
 1314ERGO    C217930  12.759  10.959   7.927  0.0347  0.1274 -0.0043
 1315ERGO   ROH17931   2.263   3.762   9.938 -0.1635  0.0409  0.1056
 1315ERGO    R117932   2.252   3.688   9.665 -0.0080  0.0256  0.1024
 1315ERGO    R217933   2.018   3.604   9.544  0.0948 -0.1367  0.0145
 1315ERGO    R317934   2.077   3.802   9.367  0.0279 -0.1007  0.0321
 1315ERGO    R417935   2.078   3.556   9.207  0.0206 -0.0751 -0.0077
 1315ERGO    R517936   2.238   3.704   9.219  0.0055 -0.0570 -0.0221
 1315ERGO    C117937   2.168   3.715   8.844 -0.0853 -0.0054 -0.0042
 1315ERGO    C217938   2.203   3.685   8.427  0.3207  0.1264 -0.1055
 1316ERGO   ROH17939  16.998  15.709   6.419  0.0619 -0.1740  0.0135
 1316ERGO    R117940  17.034  15.820   6.677 -0.0046 -0.0512 -0.0296
 1316ERGO    R217941  16.829  15.942   6.816 -0.1098 -0.2280 -0.0290
 1316ERGO    R317942  16.898  15.765   7.010  0.1233 -0.0924  0.0168
 1316ERGO    R417943  16.820  16.007   7.155 -0.0401 -0.1005 -0.0506
 1316ERGO    R517944  17.008  15.898   7.176  0.0687  0.0741 -0.0766
 1316ERGO    C117945  16.880  15.878   7.535  0.2195  0.1011 -0.0202
 1316ERGO    C217946  16.833  15.896   7.762  0.0221  0.1231  0.1784
 1317ERGO   ROH17947   2.076  10.423   6.774  0.0944 -0.1000 -0.0122
 1317ERGO    R117948   2.098  10.424   7.057  0.1406 -0.0672 -0.0152
 1317ERGO    R217949   1.996  10.221   7.215  0.0356  0.0218  0.0365
 1317ERGO    R317950   2.250  10.212   7.310  0.0469 -0.1239 -0.0066
 1317ERGO    R417951   2.089  10.088   7.520 -0.0106  0.1189  0.0926
 1317ERGO    R517952   2.228  10.254   7.545  0.1233  0.0239 -0.0255
 1317ERGO    C117953   2.381  10.003   7.788 -0.0268  0.0386  0.0848
 1317ERGO    C217954   2.385   9.816   8.033 -0.1402  0.1254  0.0611
 1318ERGO   ROH17955   9.055   8.521   9.689 -0.2540  0.2180 -0.1235
 1318ERGO    R117956   9.175   8.542   9.434 -0.0678  0.0872 -0.0492
 1318ERGO    R217957   9.279   8.323   9.300 -0.2013 -0.0267  0.0274
 1318ERGO    R317958   9.114   8.406   9.102  0.0068  0.1344 -0.0821
 1318ERGO    R417959   9.375   8.375   8.972  0.0887 -0.0012  0.1131
 1318ERGO    R517960   9.248   8.553   8.969  0.2070  0.0820  0.0597
 1318ERGO    C117961   9.274   8.484   8.595  0.4529  0.1649  0.0603
 1318ERGO    C217962   9.296   8.440   8.348 -0.0008  0.3596  0.1340
 1319ERGO   ROH17963  13.549   4.737   9.995 -0.3111  0.2302  0.1575
 1319ERGO    R117964  13.520   4.900   9.765  0.2052  0.2439  0.0902
 1319ERGO    R217965  13.719   4.924   9.574  0.2839 -0.5282  0.0341
 1319ERGO    R317966  13.520   4.849   9.405 -0.0329  0.0674  0.1139
 1319ERGO    R417967  13.726   4.962   9.231  0.2131 -0.4935  0.0365
 1319ERGO    R517968  13.517   5.019   9.237  0.3696  0.1132  0.1479
 1319ERGO    C117969  13.544   4.912   8.872 -0.1256  0.0858  0.1128
 1319ERGO    C217970  13.525   4.987   8.471 -0.2607 -0.1960 -0.3778
 1320ERGO   ROH17971   8.016  13.667  10.183 -0.2159  0.2038 -0.0019
 1320ERGO    R117972   7.956  13.570   9.924 -0.0317  0.0458  0.0120
 1320ERGO    R217973   7.801  13.711   9.744 -0.2428 -0.2404 -0.0399
 1320ERGO    R317974   8.015  13.676   9.581 -0.1625  0.0668 -0.0042
 1320ERGO    R417975   7.788  13.716   9.399 -0.2040 -0.3105 -0.0419
 1320ERGO    R517976   7.929  13.550   9.396  0.0571 -0.0957  0.0020
 1320ERGO    C117977   7.982  13.687   9.044 -0.1061 -0.0630 -0.0096
 1320ERGO    C217978   7.840  13.682   8.652 -0.0222 -0.3366 -0.0574
 1321ERGO   ROH17979  14.074   7.271   6.275  0.4501 -0.1340  0.0048
 1321ERGO    R117980  13.993   7.185   6.532  0.2606 -0.1665 -0.0649
 1321ERGO    R217981  14.163   7.053   6.705  0.1764 -0.0556  0.0976
 1321ERGO    R317982  14.092   7.252   6.876 -0.0991 -0.0910  0.0291
 1321ERGO    R417983  14.195   7.038   7.049  0.1585  0.0780  0.1060
 1321ERGO    R517984  14.001   7.137   7.066  0.0222 -0.1595  0.0522
 1321ERGO    C117985  14.145   7.216   7.410 -0.1104  0.1224  0.0467
 1321ERGO    C217986  14.308   7.058   7.669 -0.0717  0.1058 -0.0702
 1322ERGO   ROH17987   8.022   0.628   6.532  0.0725 -0.1657 -0.1217
 1322ERGO    R117988   8.118   0.623   6.798  0.0316 -0.0558 -0.1052
 1322ERGO    R217989   7.968   0.525   7.008 -0.0025  0.0413 -0.0893
 1322ERGO    R317990   8.187   0.369   7.049 -0.0146  0.0497  0.0168
 1322ERGO    R417991   8.051   0.375   7.308 -0.2465 -0.1032 -0.0910
 1322ERGO    R517992   8.260   0.425   7.271 -0.2147 -0.0524  0.1140
 1322ERGO    C117993   8.304   0.141   7.522 -0.4000 -0.1794  0.0076
 1322ERGO    C217994   8.577  -0.060   7.779 -0.2370 -0.0437  0.0024
 1323ERGO   ROH17995  10.197  12.475   6.045 -0.2038  0.3428 -0.0224
 1323ERGO    R117996  10.211  12.451   6.327 -0.0834  0.1623 -0.0418
 1323ERGO    R217997  10.427  12.337   6.456  0.0035  0.1390 -0.2026
 1323ERGO    R317998  10.430  12.572   6.592 -0.0115  0.0525 -0.0508
 1323ERGO    R417999  10.464  12.366   6.798  0.0094 -0.0753 -0.1833
 1323ERGO    R518000  10.313  12.524   6.796 -0.0018 -0.0856 -0.0781
 1323ERGO    C118001  10.487  12.605   7.126 -0.0011 -0.2812 -0.0297
 1323ERGO    C218002  10.611  12.645   7.574  0.0198 -0.0798 -0.2185
 1324ERGO   ROH18003  14.121  14.929   6.359 -0.4402 -0.0760  0.1857
 1324ERGO    R118004  14.195  15.084   6.584 -0.0650 -0.1344  0.1078
 1324ERGO    R218005  14.061  15.070   6.825  0.0590  0.1254  0.1871
 1324ERGO    R318006  14.309  15.019   6.923  0.0470 -0.2270  0.0558
 1324ERGO    R418007  14.148  15.089   7.159  0.2556  0.0410  0.1426
 1324ERGO    R518008  14.337  15.180   7.099  0.3688 -0.2352  0.0269
 1324ERGO    C118009  14.433  15.052   7.445  0.3588 -0.3390 -0.0065
 1324ERGO    C218010  14.588  14.975   7.647  0.4584 -0.2096 -0.1248
 1325ERGO   ROH18011   3.448  11.289   6.686  0.1715 -0.1072  0.0760
 1325ERGO    R118012   3.403  11.249   6.962  0.1619 -0.2925  0.0494
 1325ERGO    R218013   3.180  11.347   7.092  0.3627 -0.0016  0.1929
 1325ERGO    R318014   3.150  11.088   7.168 -0.0951 -0.0319 -0.0569
 1325ERGO    R418015   2.989  11.241   7.360  0.2010  0.0704  0.1076
 1325ERGO    R518016   3.146  11.096   7.407 -0.0504 -0.2609 -0.0485
 1325ERGO    C118017   2.851  10.935   7.587 -0.3230  0.0839 -0.1765
 1325ERGO    C218018   2.632  10.905   7.761 -0.0768 -0.0518  0.2613
 1326ERGO   ROH18019  16.410   2.909   6.062 -0.2118  0.2335 -0.0883
 1326ERGO    R118020  16.367   2.890   6.342 -0.1507 -0.0320 -0.0946
 1326ERGO    R218021  16.515   2.720   6.503  0.0746  0.0115 -0.2443
 1326ERGO    R318022  16.562   2.948   6.643 -0.1737 -0.0343 -0.0805
 1326ERGO    R418023  16.690   2.737   6.801  0.2688  0.0228 -0.3577
 1326ERGO    R518024  16.544   2.882   6.873  0.0956 -0.2618 -0.1231
 1326ERGO    C118025  16.836   2.960   7.106  0.1489 -0.0136 -0.2699
 1326ERGO    C218026  17.169   3.027   7.183  0.1062 -0.2439 -0.1660
 1327ERGO   ROH18027   2.886   2.840   6.761  0.0505 -0.1969 -0.0167
 1327ERGO    R118028   2.792   3.007   6.969  0.1611  0.0209 -0.1383
 1327ERGO    R218029   2.799   2.932   7.235 -0.0034  0.1595 -0.0941
 1327ERGO    R318030   2.934   3.166   7.265  0.2378  0.0362 -0.1825
 1327ERGO    R418031   2.923   3.052   7.535 -0.0387  0.2277 -0.1065
 1327ERGO    R518032   2.858   3.252   7.475  0.2108  0.2627 -0.2802
 1327ERGO    C118033   3.120   3.342   7.737  0.1671  0.1517 -0.1966
 1327ERGO    C218034   3.356   3.439   7.863 -0.0623  0.1840  0.1836
 1328ERGO   ROH18035   5.921  15.011   6.519 -0.0683  0.0586  0.1175
 1328ERGO    R118036   6.078  15.057   6.750 -0.1201  0.0638  0.1517
 1328ERGO    R218037   6.002  14.971   7.002 -0.0878 -0.0950  0.1073
 1328ERGO    R318038   6.246  14.853   7.000 -0.0081  0.0671  0.0796
 1328ERGO    R418039   6.225  14.973   7.266 -0.2167 -0.2674  0.2205
 1328ERGO    R518040   6.386  15.002   7.123 -0.1646  0.0133  0.3311
 1328ERGO    C118041   6.585  14.863   7.417 -0.2170 -0.2154  0.2603
 1328ERGO    C218042   6.653  14.930   7.754 -0.2965 -0.0559  0.1280
 1329ERGO   ROH18043  10.167  10.020   6.127  0.0593  0.0003  0.0672
 1329ERGO    R118044  10.229   9.954   6.395  0.0741  0.0001  0.0662
 1329ERGO    R218045  10.147  10.107   6.610  0.1222  0.0298  0.0770
 1329ERGO    R318046  10.044   9.871   6.697  0.0842  0.0518  0.0832
 1329ERGO    R418047  10.076  10.033   6.940  0.2392 -0.0132  0.0905
 1329ERGO    R518048  10.154   9.832   6.906  0.1548 -0.0250  0.0240
 1329ERGO    C118049   9.939   9.768   7.214  0.2716 -0.0175  0.1042
 1329ERGO    C218050   9.819   9.563   7.409  0.2784 -0.0505 -0.0495
 1330ERGO   ROH18051   6.877  10.922   6.358 -0.1625  0.0403  0.0168
 1330ERGO    R118052   7.045  10.858   6.577 -0.0085 -0.0326 -0.1196
 1330ERGO    R218053   6.945  10.795   6.828  0.1708  0.1554  0.0035
 1330ERGO    R318054   7.096  10.572   6.796 -0.0675 -0.0001 -0.0632
 1330ERGO    R418055   7.061  10.596   7.085  0.2808  0.1742 -0.0312
 1330ERGO    R518056   7.250  10.577   6.979  0.1468 -0.0500 -0.2379
 1330ERGO    C118057   7.270  10.270   7.205  0.1211  0.0392 -0.1140
 1330ERGO    C218058   7.268  10.001   7.348 -0.3628 -0.0025  0.1916
 1331ERGO   ROH18059   5.283   4.013  10.243 -0.0377 -0.0625 -0.0978
 1331ERGO    R118060   5.372   3.974   9.977  0.0175 -0.0997 -0.0750
 1331ERGO    R218061   5.214   3.857   9.784  0.0484 -0.1121 -0.0995
 1331ERGO    R318062   5.270   4.085   9.646  0.0951 -0.1291 -0.1070
 1331ERGO    R418063   5.265   3.873   9.442  0.1646 -0.1404 -0.0834
 1331ERGO    R518064   5.427   4.015   9.478  0.1485 -0.1408 -0.0465
 1331ERGO    C118065   5.347   4.096   9.114  0.2761 -0.1728 -0.0811
 1331ERGO    C218066   5.342   4.088   8.774 -0.1399 -0.0350  0.2856
 1332ERGO   ROH18067   0.196  16.786   6.507 -0.1495  0.2282 -0.1739
 1332ERGO    R118068   0.245  16.796   6.785 -0.0817  0.0759 -0.1800
 1332ERGO    R218069   0.340  17.023   6.912 -0.0093 -0.0065 -0.0865
 1332ERGO    R318070   0.121  16.988   7.069  0.0203 -0.0461 -0.0519
 1332ERGO    R418071   0.316  17.120   7.243  0.0843 -0.1893 -0.0239
 1332ERGO    R518072   0.209  16.934   7.284  0.0554 -0.1873 -0.1027
 1332ERGO    C118073   0.096  17.143   7.582  0.1665 -0.3326  0.0450
 1332ERGO    C218074   0.071  17.246   7.911  0.1501  0.1531  0.2234
 1333ERGO   ROH18075   0.995   7.416   6.223  0.1221 -0.2309 -0.1710
 1333ERGO    R118076   1.147   7.285   6.424  0.0578 -0.2587 -0.1408
 1333ERGO    R218077   1.252   7.419   6.642  0.1768 -0.2476 -0.2073
 1333ERGO    R318078   1.118   7.229   6.782  0.0651 -0.1029 -0.1143
 1333ERGO    R418079   1.312   7.338   6.972  0.0497 -0.0363 -0.1305
 1333ERGO    R518080   1.285   7.128   6.921 -0.0098 -0.0660  0.0070
 1333ERGO    C118081   1.220   7.113   7.297 -0.1291  0.2227  0.0016
 1333ERGO    C218082   1.249   6.901   7.506  0.0583  0.0184  0.0538
 1334ERGO   ROH18083   7.619   2.111   6.143 -0.2250  0.1461  0.2972
 1334ERGO    R118084   7.692   2.145   6.414 -0.1656  0.2828  0.2637
 1334ERGO    R218085   7.947   2.091   6.508 -0.2112  0.1101  0.2737
 1334ERGO    R318086   7.931   2.346   6.600  0.0472  0.1975  0.0906
 1334ERGO    R418087   8.116   2.214   6.783 -0.2776  0.0526  0.3419
 1334ERGO    R518088   7.938   2.325   6.838 -0.1880  0.3331  0.1176
 1334ERGO    C118089   8.200   2.525   7.030 -0.0735  0.1012  0.2097
 1334ERGO    C218090   8.503   2.736   7.117 -0.0065 -0.0681  0.0522
 1335ERGO   ROH18091   0.222   1.840   9.934  0.1838 -0.2316  0.0153
 1335ERGO    R118092   0.113   1.822   9.673  0.0666 -0.2245  0.0649
 1335ERGO    R218093   0.145   2.022   9.486 -0.0039 -0.2349  0.0577
 1335ERGO    R318094   0.242   1.819   9.333 -0.0924 -0.2365  0.0004
 1335ERGO    R418095   0.132   2.013   9.140 -0.0766 -0.1368  0.0566
 1335ERGO    R518096   0.083   1.801   9.153 -0.1449 -0.1381  0.0223
 1335ERGO    C118097   0.216   1.818   8.796 -0.2021 -0.0811  0.0024
 1335ERGO    C218098   0.221   1.941   8.458  0.1198  0.2299  0.2088
 1336ERGO   ROH18099  10.789   3.729   6.032 -0.3257  0.0290  0.1008
 1336ERGO    R118100  10.680   3.741   6.293 -0.4421 -0.2612  0.0684
 1336ERGO    R218101  10.529   3.535   6.402 -0.0327 -0.6232 -0.0244
 1336ERGO    R318102  10.712   3.550   6.602 -0.1231 -0.2597  0.0393
 1336ERGO    R418103  10.487   3.406   6.719  0.0756 -0.6180 -0.0069
 1336ERGO    R518104  10.583   3.584   6.799 -0.2540 -0.4295 -0.0146
 1336ERGO    C118105  10.635   3.346   7.092  0.0535 -0.2736  0.0631
 1336ERGO    C218106  10.556   3.275   7.387 -0.0734  0.0056 -0.0545
 1337ERGO   ROH18107   2.394  15.705   7.395  0.1366 -0.0460 -0.0097
 1337ERGO    R118108   2.318  15.885   7.601 -0.0464 -0.0892 -0.0388
 1337ERGO    R218109   2.072  15.873   7.725 -0.0229 -0.3397 -0.0191
 1337ERGO    R318110   2.222  15.860   7.951  0.0087 -0.1265 -0.0251
 1337ERGO    R418111   1.967  15.976   8.038 -0.0353 -0.1760 -0.0755
 1337ERGO    R518112   2.166  16.059   8.071 -0.0646 -0.0676 -0.1512
 1337ERGO    C118113   2.048  16.023   8.432 -0.0128  0.1196 -0.1141
 1337ERGO    C218114   1.781  15.991   8.532 -0.1992 -0.1873  0.1385
 1338ERGO   ROH18115   5.524   2.307   6.613  0.0899 -0.1467 -0.0809
 1338ERGO    R118116   5.705   2.261   6.826  0.0242 -0.2361 -0.0441
 1338ERGO    R218117   5.772   2.457   7.009  0.2371 -0.2072 -0.1535
 1338ERGO    R318118   5.694   2.269   7.189  0.0091 -0.0167 -0.0469
 1338ERGO    R418119   5.809   2.483   7.352  0.3520 -0.0928 -0.1731
 1338ERGO    R518120   5.864   2.272   7.358  0.0578 -0.1750 -0.0881
 1338ERGO    C118121   5.757   2.321   7.720  0.2047  0.1526 -0.0845
 1338ERGO    C218122   5.804   2.367   7.984  0.2262  0.1287  0.1357
 1339ERGO   ROH18123   7.348  14.308   8.372 -0.0225 -0.5358 -0.1045
 1339ERGO    R118124   7.285  14.399   8.633 -0.0936 -0.3433 -0.1880
 1339ERGO    R218125   7.161  14.238   8.821 -0.0447 -0.2380 -0.0691
 1339ERGO    R318126   7.375  14.309   8.973 -0.0957 -0.0157 -0.0965
 1339ERGO    R418127   7.155  14.276   9.164 -0.0446 -0.2568 -0.0667
 1339ERGO    R518128   7.283  14.451   9.143 -0.2294 -0.1157 -0.0795
 1339ERGO    C118129   7.352  14.364   9.508 -0.0924 -0.0591 -0.0912
 1339ERGO    C218130   7.255  14.278   9.838 -0.1715  0.0739  0.0844
 1340ERGO   ROH18131   1.610   5.304   6.227  0.2210  0.0827 -0.1291
 1340ERGO    R118132   1.813   5.281   6.423  0.1759  0.2266 -0.0625
 1340ERGO    R218133   1.879   5.488   6.594 -0.1112  0.2392  0.0507
 1340ERGO    R318134   1.833   5.302   6.786  0.0124  0.1075 -0.0477
 1340ERGO    R418135   2.007   5.499   6.915  0.0827  0.0074 -0.0171
 1340ERGO    R518136   2.041   5.284   6.903  0.0775  0.0228 -0.1857
 1340ERGO    C118137   2.039   5.330   7.282  0.3116 -0.2513 -0.1491
 1340ERGO    C218138   2.275   5.402   7.457 -0.0823  0.2040  0.0367
 1341ERGO   ROH18139   0.134  17.713  10.220 -0.1990 -0.0998  0.0671
 1341ERGO    R118140   0.230  17.757   9.957 -0.1402  0.1392  0.1245
 1341ERGO    R218141   0.337  17.554   9.801  0.2415  0.3452  0.0922
 1341ERGO    R318142   0.149  17.638   9.623  0.1887  0.1302  0.0466
 1341ERGO    R418143   0.380  17.569   9.458  0.1697  0.0569  0.0691
 1341ERGO    R518144   0.272  17.758   9.457  0.1167  0.0186 -0.0821
 1341ERGO    C118145   0.230  17.656   9.092  0.0784 -0.3126  0.0129
 1341ERGO    C218146   0.209  17.720   8.763  0.1121 -0.2159 -0.0200
 1342ERGO   ROH18147  10.686  17.736   6.451 -0.0898  0.1274  0.2519
 1342ERGO    R118148  10.785  17.683   6.711  0.1056 -0.0220  0.1492
 1342ERGO    R218149  10.627  17.575   6.911  0.1793  0.1212  0.2818
 1342ERGO    R318150  10.826  17.390   6.923 -0.0085 -0.1034  0.0627
 1342ERGO    R418151  10.678  17.355   7.173  0.1718  0.0179  0.1977
 1342ERGO    R518152  10.892  17.388   7.153  0.1986 -0.2139  0.0082
 1342ERGO    C118153  10.894  17.054   7.337 -0.0089 -0.2529 -0.0570
 1342ERGO    C218154  11.051  16.794   7.454  0.0532 -0.0321 -0.1884
 1343ERGO   ROH18155   1.599   7.991  10.380  0.0525 -0.3273 -0.0109
 1343ERGO    R118156   1.655   8.094  10.122 -0.2352 -0.1557 -0.0097
 1343ERGO    R218157   1.858   7.995   9.963 -0.0524  0.3040 -0.0851
 1343ERGO    R318158   1.657   7.967   9.781 -0.0519 -0.0960 -0.0303
 1343ERGO    R418159   1.889   8.054   9.623 -0.2730  0.4011 -0.0893
 1343ERGO    R518160   1.691   8.146   9.626 -0.4698 -0.0068 -0.0259
 1343ERGO    C118161   1.719   8.061   9.255 -0.4010  0.0820 -0.0403
 1343ERGO    C218162   1.701   8.111   8.858 -0.0519  0.0344  0.0578
 1344ERGO   ROH18163   1.920   3.307   6.396  0.1341  0.0241  0.0453
 1344ERGO    R118164   1.663   3.280   6.511  0.1658  0.0456  0.1247
 1344ERGO    R218165   1.504   3.058   6.469  0.0623  0.1290  0.0348
 1344ERGO    R318166   1.498   3.051   6.740  0.1701 -0.0476  0.0327
 1344ERGO    R418167   1.271   2.884   6.656  0.1788 -0.0379  0.0251
 1344ERGO    R518168   1.264   3.052   6.795  0.1967 -0.1329  0.1326
 1344ERGO    C118169   1.130   2.775   7.020  0.3477 -0.3008  0.0173
 1344ERGO    C218170   1.035   2.501   7.324  0.3810 -0.3740 -0.3430
 1345ERGO   ROH18171  18.148   1.621   6.401 -0.0256  0.0096  0.1743
 1345ERGO    R118172  18.317   1.830   6.491  0.1882 -0.0903  0.0128
 1345ERGO    R218173  18.291   1.945   6.741  0.2245  0.2103 -0.1202
 1345ERGO    R318174  18.554   1.880   6.763  0.1436 -0.0789  0.0506
 1345ERGO    R418175  18.502   2.057   6.991  0.2652  0.2689 -0.1800
 1345ERGO    R518176  18.659   2.081   6.841  0.3530 -0.1002 -0.1589
 1345ERGO    C118177  18.871   2.061   7.157  0.2130  0.0315 -0.0543
 1345ERGO    C218178  19.032   1.994   7.392  0.4786 -0.0213  0.0764
 1346ERGO   ROH18179  15.548   8.665  10.321  0.0056  0.0331 -0.0526
 1346ERGO    R118180  15.700   8.634  10.085  0.0792  0.2215 -0.0315
 1346ERGO    R218181  15.663   8.422   9.911  0.4336  0.1167  0.0177
 1346ERGO    R318182  15.634   8.620   9.727  0.1299  0.0280 -0.0360
 1346ERGO    R418183  15.679   8.377   9.568  0.6665  0.0599  0.0337
 1346ERGO    R518184  15.790   8.564   9.554  0.3207  0.2818  0.0431
 1346ERGO    C118185  15.660   8.537   9.196  0.5170 -0.0564 -0.0074
 1346ERGO    C218186  15.718   8.518   8.796  0.1442 -0.0366 -0.1828
 1347ERGO   ROH18187  17.331  16.674   6.295 -0.0464  0.0450  0.0215
 1347ERGO    R118188  17.429  16.773   6.542 -0.0237  0.0937 -0.0075
 1347ERGO    R218189  17.270  16.913   6.719 -0.0653 -0.0633  0.0761
 1347ERGO    R318190  17.354  16.723   6.894  0.1688 -0.0149  0.0204
 1347ERGO    R418191  17.285  16.952   7.062 -0.0604 -0.1180  0.0826
 1347ERGO    R518192  17.474  16.845   7.062  0.0629  0.0845  0.0294
 1347ERGO    C118193  17.373  16.797   7.426  0.1618 -0.1041  0.0341
 1347ERGO    C218194  17.321  16.882   7.783  0.0732 -0.0111 -0.0657
 1348W        W18195  13.381   3.530   5.055 -0.2800 -0.0115  0.1677
 1349W        W18196  13.557   6.731  13.685  0.3108  0.0412  0.1831
 1350W        W18197   5.375   1.355   4.948  0.2910  0.0992 -0.0635
 1351W        W18198   5.127  13.581   5.197  0.1575  0.2159 -0.0422
 1352W        W18199   2.826   2.901   2.494  0.0189  0.5160 -0.0688
 1353W        W18200  16.182  17.388   3.856  0.0666 -0.2095  0.0503
 1354W        W18201  14.431  16.853   3.638 -0.1815 -0.1551  0.0087
 1355W        W18202  11.019  16.042  15.399  0.2567  0.0543  0.3801
 1356W        W18203  11.131  17.379  11.630 -0.1170 -0.0389  0.0547
 1357W        W18204  16.906   9.306   3.384 -0.0162  0.1302  0.0524
 1358W        W18205  13.533   2.501   5.292 -0.1537 -0.1854  0.1113
 1359W        W18206   4.701  14.724  13.202 -0.2312  0.1889 -0.0757
 1360W        W18207  11.603   4.438  12.748 -0.4006  0.0040 -0.1715
 1361W        W18208  16.607  10.112  12.857  0.3947  0.0805  0.1096
 1362W        W18209   0.084   6.104   3.737 -0.1268  0.0306 -0.0637
 1363W        W18210   7.414   3.081  12.907  0.3233  0.0630 -0.0473
 1364W        W18211  18.085  15.736   1.921  0.1588  0.1647 -0.2223
 1365W        W18212   2.912   9.912   0.140 -0.1567 -0.0584  0.3448
 1366W        W18213  17.895   5.297   3.374 -0.2010 -0.0246 -0.1721
 1367W        W18214   7.298  16.232   3.647 -0.1218  0.0290 -0.1430
 1368W        W18215  10.149   7.208   0.416  0.0480 -0.0135 -0.0145
 1369W        W18216   2.584  16.129   1.709  0.3027 -0.2552 -0.3292
 1370W        W18217   8.382  13.532  12.065  0.2157  0.2853 -0.0862
 1371W        W18218   6.128   5.766   2.352 -0.1697  0.1990  0.1837
 1372W        W18219  12.935  15.739  15.486  0.1180 -0.1905  0.1724
 1373W        W18220  10.862   1.991  14.121 -0.1676 -0.3269  0.0869
 1374W        W18221   4.126   0.924  15.223  0.2174 -0.6813  0.0327
 1375W        W18222  16.102  17.935   3.721 -0.1554  0.0720 -0.0147
 1376W        W18223  14.108  16.338  11.864 -0.0819 -0.1711 -0.3416
 1377W        W18224   1.761   3.239  14.102  0.0014  0.0657  0.0515
 1378W        W18225  12.335  17.425  11.098  0.0274 -0.2420 -0.1807
 1379W        W18226   5.767  14.481  11.999  0.2803  0.0893 -0.0184
 1380W        W18227  18.155  17.226  15.357  0.1828 -0.0221  0.1398
 1381W        W18228  13.458   8.517   2.576 -0.0848 -0.2430  0.0470
 1382W        W18229  11.531   4.851  15.087 -0.0103 -0.3338  0.1633
 1383W        W18230  11.264   3.415   0.730  0.1102 -0.5114  0.0399
 1384W        W18231  18.015   1.114  15.323  0.2013 -0.0996  0.0060
 1385W        W18232  15.999  16.229  14.063 -0.1760  0.0385 -0.2691
 1386W        W18233   0.729   7.095  12.118 -0.0032  0.3099  0.1350
 1387W        W18234   0.527   3.483   5.408  0.1642 -0.1583  0.1304
 1388W        W18235  14.291   3.030  14.030  0.2795 -0.4303 -0.1474
 1389W        W18236  13.427   5.922  16.221  0.5697  0.1467  0.2265
 1390W        W18237   3.053  10.316   0.980 -0.1451  0.3752  0.0700
 1391W        W18238   4.963  16.571  14.727  0.0394 -0.0081 -0.1496
 1392W        W18239  16.446   5.664   4.861  0.3953 -0.0008 -0.0043
 1393W        W18240   3.307   9.474   3.203  0.0527  0.0497 -0.1633
 1394W        W18241  15.923   7.322   5.508 -0.0228  0.1399  0.0043
 1395W        W18242  11.309  11.026   4.581  0.0303  0.0966  0.1082
 1396W        W18243  16.189   5.303   0.994 -0.0155 -0.3949  0.3052
 1397W        W18244  15.135   7.286   5.484  0.3553 -0.1376  0.0177
 1398W        W18245  16.779   2.274  11.828  0.3302  0.3858  0.0093
 1399W        W18246   4.701  18.007  16.470 -0.1307 -0.3681  0.2141
 1400W        W18247   0.003  14.415   1.532 -0.0139  0.1104 -0.1584
 1401W        W18248   3.252   5.865   2.554 -0.0604  0.3191 -0.0159
 1402W        W18249   1.230   6.449   4.951 -0.0702 -0.1337  0.2386
 1403W        W18250   5.737  14.237  12.920 -0.1533  0.1342  0.1325
 1404W        W18251   1.217  18.004  15.789 -0.2770  0.2411  0.1089
 1405W        W18252  17.125   6.324   4.870 -0.1791  0.1946  0.0889
 1406W        W18253  18.062   8.282  15.509  0.3568  0.1073  0.0707
 1407W        W18254   7.644  13.118   3.519  0.1063  0.2804 -0.3156
 1408W        W18255   2.513  17.930   0.319  0.1245 -0.2228 -0.3256
 1409W        W18256  15.282   3.188   3.463  0.0101 -0.0349 -0.0156
 1410W        W18257  12.766  13.657   3.826 -0.2087 -0.2193 -0.1553
 1411W        W18258   6.284   2.324  15.241  0.1499 -0.3686 -0.1028
 1412W        W18259  12.863  16.499  11.964 -0.1041 -0.3432  0.0997
 1413W        W18260  17.276   5.406  16.589  0.1462  0.0944  0.0422
 1414W        W18261   1.231   4.157   3.327 -0.0742  0.0245 -0.1176
 1415W        W18262  10.560  14.340   0.417 -0.0273 -0.2232  0.2635
 1416W        W18263   4.502   4.376   1.727  0.1688 -0.2278  0.1959
 1417W        W18264   2.721  12.623   5.692  0.1736  0.4217  0.0904
 1418W        W18265   6.625  11.528  12.973  0.1659  0.1466 -0.0786
 1419W        W18266   1.420   1.310  11.309  0.3441  0.1635  0.0756
 1420W        W18267  13.859   7.891  13.656  0.2326 -0.0538  0.1415
 1421W        W18268   3.732  11.261  15.393 -0.0646  0.2196 -0.5518
 1422W        W18269  13.238  13.743  14.491 -0.2391  0.2314 -0.0265
 1423W        W18270   6.841   2.184   1.530  0.0167 -0.1534  0.3273
 1424W        W18271  11.355  15.661   2.973 -0.2405 -0.2842 -0.1697
 1425W        W18272   9.156  12.385   5.152  0.1605  0.0709 -0.0019
 1426W        W18273  17.445   8.103  16.316 -0.4852  0.0022  0.2401
 1427W        W18274  16.240  10.236  15.429  0.0723  0.1563  0.0456
 1428W        W18275  13.942   4.256  13.830  0.0084  0.0640 -0.1025
 1429W        W18276   5.834  12.640  11.858 -0.0820 -0.1985 -0.3552
 1430W        W18277   2.430  16.477  16.212 -0.0429 -0.0223  0.0004
 1431W        W18278  12.342   1.967  15.535 -0.1189  0.0541 -0.1717
 1432W        W18279   9.778  17.619   3.025  0.1193  0.1318 -0.3563
 1433W        W18280  11.653  13.382   2.014  0.0954  0.0238 -0.0261
 1434W        W18281   1.722  13.104   6.397  0.1526  0.1944  0.0966
 1435W        W18282  13.113   5.365   5.178  0.1560  0.0854  0.3244
 1436W        W18283   4.355  17.388   0.463  0.2234 -0.1614 -0.2329
 1437W        W18284   3.416   4.919   3.656  0.2335  0.1695 -0.2045
 1438W        W18285   5.399  15.766   2.592  0.1234  0.1975 -0.0505
 1439W        W18286  12.235   0.927  13.267 -0.0581 -0.2353 -0.0276
 1440W        W18287   8.314   7.901  15.421  0.3845  0.0472 -0.0915
 1441W        W18288   0.733   9.812   6.171  0.0255  0.1316 -0.2480
 1442W        W18289  12.177   2.464   2.459 -0.2090 -0.0748  0.1010
 1443W        W18290   6.544   0.082  13.300 -0.0902 -0.0227 -0.1080
 1444W        W18291  13.170   1.733   6.292 -0.0181  0.1643  0.2546
 1445W        W18292  16.335   6.883  13.058  0.0094 -0.1585  0.2650
 1446W        W18293  11.335   5.216  11.655 -0.0856 -0.1013 -0.0900
 1447W        W18294  17.071  14.258  14.819 -0.1404  0.0129 -0.0645
 1448W        W18295  14.157   0.595   5.375 -0.0566 -0.2950 -0.1707
 1449W        W18296   8.036   3.888  16.056 -0.1965  0.1304  0.1157
 1450W        W18297  13.871  14.986  12.319  0.2323 -0.1053  0.2245
 1451W        W18298   5.483  10.599  11.791 -0.0571 -0.5427 -0.0242
 1452W        W18299   3.640  11.316   0.639 -0.3019 -0.0545  0.1061
 1453W        W18300   2.230  10.911   0.281 -0.0216  0.0886 -0.2043
 1454W        W18301  16.481   8.064  13.820  0.0274 -0.2703 -0.3541
 1455W        W18302   7.392   5.211   1.624  0.2399 -0.0798  0.0617
 1456W        W18303   9.352  17.188   3.253 -0.1731 -0.2906 -0.0728
 1457W        W18304  18.104   8.541   0.470 -0.0271  0.0012  0.0052
 1458W        W18305   0.405  12.040  14.808  0.1193 -0.0989  0.3497
 1459W        W18306   8.973   4.365   3.213 -0.0813 -0.1941 -0.1354
 1460W        W18307   4.304   8.967   0.060 -0.0017  0.0461 -0.2131
 1461W        W18308   1.343   2.122   1.004  0.3636 -0.0125 -0.0971
 1462W        W18309   1.005   1.644   3.354 -0.2283  0.2174 -0.1208
 1463W        W18310   5.927  17.552  13.078 -0.1322  0.1041 -0.1438
 1464W        W18311   4.586  13.813   0.741  0.0182  0.0467 -0.0986
 1465W        W18312  11.103  10.872   5.559 -0.0523  0.0636  0.0445
 1466W        W18313   0.212   2.551   4.015  0.0897 -0.2133 -0.0694
 1467W        W18314  13.520   0.990  14.172 -0.3395  0.0721 -0.2044
 1468W        W18315  12.861   7.801  12.401 -0.2411  0.3471 -0.2125
 1469W        W18316  14.333  17.497   4.681 -0.0257  0.1790 -0.0391
 1470W        W18317   9.644   3.534  15.672  0.0894 -0.4305 -0.3404
 1471W        W18318   7.857   4.087   6.035 -0.0031 -0.1061 -0.1816
 1472W        W18319   0.345  14.594   5.374 -0.3779  0.1959 -0.2121
 1473W        W18320  18.163  10.727  16.332 -0.0634  0.0966  0.0150
 1474W        W18321  16.727  10.245  12.029  0.1648 -0.2473 -0.2970
 1475W        W18322   6.302  18.157   1.992 -0.1046 -0.1272 -0.1666
 1476W        W18323   5.803   9.596  14.773  0.1568  0.2302 -0.1333
 1477W        W18324   6.869   2.865  14.269  0.1412 -0.0360 -0.3477
 1478W        W18325  11.311   9.672   2.958 -0.0639 -0.2808  0.2063
 1479W        W18326   1.774   9.362  15.368 -0.0475  0.0955  0.0091
 1480W        W18327  16.504   8.054  13.280 -0.0965  0.0245  0.1436
 1481W        W18328   8.346  14.782   1.062 -0.0225 -0.1141  0.1855
 1482W        W18329   0.088   7.012  15.140  0.0125  0.0162 -0.4161
 1483W        W18330  16.108  12.085  14.592  0.0500  0.1639  0.2905
 1484W        W18331   2.596  13.680  16.462  0.3773 -0.1666 -0.0591
 1485W        W18332   2.794   5.169   4.867  0.2701 -0.1715 -0.0208
 1486W        W18333  17.684  11.912  12.324 -0.0291  0.1358  0.1568
 1487W        W18334   9.749   3.576   0.314 -0.0764  0.1978 -0.0953
 1488W        W18335  12.231  16.710  13.055  0.2915  0.0332  0.0824
 1489W        W18336   1.553  12.217   5.636 -0.0334  0.0397  0.2505
 1490W        W18337  11.410   0.074   0.259  0.0443 -0.0150 -0.1086
 1491W        W18338  17.865   7.008   2.491 -0.0335  0.0891  0.1906
 1492W        W18339   6.740  15.710   0.595  0.0633  0.1962 -0.3432
 1493W        W18340  12.489   4.538   4.989  0.1131  0.1781  0.0866
 1494W        W18341  15.529   6.181  15.716 -0.3705  0.0924 -0.3480
 1495W        W18342  16.671  12.982  13.237  0.1484 -0.0243  0.1652
 1496W        W18343   4.265  13.534  12.577 -0.0336 -0.2386 -0.3660
 1497W        W18344   9.575   1.627   2.312  0.2069 -0.2809  0.1642
 1498W        W18345   6.389  17.887  15.236  0.4919  0.7690 -0.2084
 1499W        W18346   2.762  17.684   1.817  0.2520  0.1551  0.0446
 1500W        W18347   6.758  15.093   3.340 -0.3637  0.5540  0.2878
 1501W        W18348  11.420  10.785  11.898  0.0314 -0.2962  0.0429
 1502W        W18349   5.866   0.499   3.318 -0.3254 -0.0630 -0.1359
 1503W        W18350  13.929  11.593  14.947 -0.2123 -0.1473  0.1032
 1504W        W18351  17.267   0.792   0.263  0.0229 -0.1484 -0.0614
 1505W        W18352   6.335  17.795   0.980 -0.0193  0.0521  0.0547
 1506W        W18353  14.886   9.974   0.948 -0.2153 -0.2100  0.2631
 1507W        W18354  10.820  16.328   5.169 -0.1182  0.1263 -0.0831
 1508W        W18355   0.862   7.683   1.577  0.0553  0.4914  0.2534
 1509W        W18356   9.915   6.411  14.332 -0.0945 -0.0284  0.4600
 1510W        W18357  13.465   4.937   5.138 -0.0188 -0.2222 -0.0702
 1511W        W18358  13.330  14.465   0.188 -0.2209 -0.0348  0.3453
 1512W        W18359   5.905   5.259  13.889  0.1802  0.2762  0.1908
 1513W        W18360   2.351   6.382   4.287  0.2242 -0.1450  0.2433
 1514W        W18361  11.481   3.671  15.435  0.0396 -0.2651 -0.4031
 1515W        W18362  15.141   3.150   2.355 -0.2452  0.1255  0.1245
 1516W        W18363   7.232   4.524  16.276  0.0087  0.1926 -0.0156
 1517W        W18364   2.985  13.283  13.398  0.1968  0.1874 -0.0370
 1518W        W18365   1.279   8.995  14.147  0.0097  0.3266 -0.0453
 1519W        W18366   1.913   3.643  10.876 -0.0211 -0.0791 -0.1684
 1520W        W18367   6.950  18.097   5.001  0.0158 -0.0621 -0.1297
 1521W        W18368   4.086   3.691  15.279  0.2626 -0.0465  0.0202
 1522W        W18369  13.547  15.531  16.127 -0.0607  0.0812  0.1174
 1523W        W18370   5.307  15.795   4.788  0.0518 -0.1127  0.0157
 1524W        W18371   9.940   1.111   1.593  0.0150 -0.0822  0.1192
 1525W        W18372   7.700  14.282   2.633  0.0536 -0.0256 -0.0370
 1526W        W18373  16.237   4.962   5.569 -0.1434 -0.0786  0.1382
 1527W        W18374   1.366  17.453  12.649 -0.1012 -0.1407 -0.3044
 1528W        W18375  15.590   5.848  11.913 -0.4242 -0.1350  0.0446
 1529W        W18376  14.223  10.271  16.301  0.3126 -0.0676 -0.1970
 1530W        W18377   6.358  16.557   1.340  0.0552 -0.1014  0.1875
 1531W        W18378   7.613  17.563  12.265 -0.0741 -0.4906 -0.0221
 1532W        W18379   7.964  14.018   0.691  0.4968 -0.0099 -0.2050
 1533W        W18380   1.441   7.678   1.365  0.0068  0.2215 -0.0841
 1534W        W18381   4.071   8.441   4.746  0.2781 -0.0496 -0.0789
 1535W        W18382  12.347   4.607  11.149  0.0069 -0.1291  0.1520
 1536W        W18383  10.039   0.478  11.259 -0.0578 -0.1215  0.2097
 1537W        W18384  16.157   3.436  11.904  0.0463  0.0340  0.1284
 1538W        W18385  17.368  17.998   0.992  0.0726 -0.0932  0.0957
 1539W        W18386   3.256   6.479  11.637 -0.1706  0.5183 -0.2307
 1540W        W18387   4.822  15.056   1.135  0.1207 -0.1417  0.1301
 1541W        W18388  17.411  16.980   3.897 -0.0132  0.3265  0.4194
 1542W        W18389   4.731   0.093   0.808  0.0226  0.0665 -0.0276
 1543W        W18390  13.875  12.811   2.775 -0.0436  0.0237 -0.1418
 1544W        W18391   0.285   3.374  15.537  0.2383 -0.1105  0.1223
 1545W        W18392  17.701   6.804   1.216 -0.0612 -0.2776 -0.3423
 1546W        W18393   1.208   0.152   0.201 -0.2359 -0.2536 -0.1279
 1547W        W18394  12.740  14.252  16.518  0.1290 -0.0417  0.2652
 1548W        W18395  11.609   2.040   2.941 -0.3584  0.1285 -0.1616
 1549W        W18396   4.066  15.955   1.678 -0.1748  0.0787  0.0318
 1550W        W18397   2.300   9.848   4.033  0.0645  0.2198 -0.0881
 1551W        W18398  13.689   9.283   5.940 -0.0151 -0.1100  0.2717
 1552W        W18399  14.405  12.286  16.005  0.2805 -0.1336 -0.0526
 1553W        W18400  18.094  13.836   2.021  0.0999 -0.0759 -0.1569
 1554W        W18401   3.122   2.704   4.231 -0.1823  0.0383 -0.0072
 1555W        W18402   5.073  13.669   0.475 -0.2107 -0.0599 -0.4952
 1556W        W18403   1.039   4.138  11.964 -0.2203 -0.0603 -0.0923
 1557W        W18404  14.995  14.066  15.546  0.1516  0.0230 -0.1325
 1558W        W18405   9.208  12.892   1.591  0.3698 -0.3000  0.3293
 1559W        W18406   3.134   6.420  11.154 -0.1229  0.1927 -0.1395
 1560W        W18407  18.072   3.448   1.402  0.0833 -0.0005  0.1412
 1561W        W18408   2.121  17.213   4.332 -0.0814  0.0123  0.1387
 1562W        W18409   8.492   3.082  12.907 -0.0421  0.0640 -0.1700
 1563W        W18410   7.477  14.529   4.489 -0.2152 -0.2751  0.0481
 1564W        W18411   9.188   3.302   2.923 -0.1705 -0.2271  0.1818
 1565W        W18412   0.493   1.059   4.848 -0.1913 -0.0358 -0.4847
 1566W        W18413   5.943   2.425   2.677 -0.0561 -0.1937  0.1194
 1567W        W18414  13.381   8.754   3.204 -0.0284  0.1515  0.0997
 1568W        W18415  13.299  11.481  16.174  0.0523 -0.0135 -0.1465
 1569W        W18416   2.819   2.753   1.146  0.0421  0.1027 -0.3791
 1570W        W18417  11.167   6.951  12.654 -0.1205  0.1974 -0.3950
 1571W        W18418   7.014  13.229  16.379  0.1054  0.0925 -0.2226
 1572W        W18419  11.562   3.229   1.034 -0.2384 -0.1432 -0.2490
 1573W        W18420  17.630   9.687  14.737 -0.1985 -0.0089 -0.1352
 1574W        W18421   1.526   3.492  12.822  0.3356 -0.3421  0.1219
 1575W        W18422  18.128   4.268  15.902  0.1734  0.0373 -0.1229
 1576W        W18423   6.138   6.479  16.472 -0.3440  0.1178 -0.0337
 1577W        W18424  15.649   1.016  11.753  0.2746 -0.0341  0.1991
 1578W        W18425   1.819   3.422   3.913  0.0141 -0.0633  0.2428
 1579W        W18426   1.144  15.668   1.463 -0.0864 -0.0578  0.1488
 1580W        W18427  12.255  16.772   2.279  0.0108  0.3028 -0.0027
 1581W        W18428  16.272   9.847   3.214  0.1405 -0.2051  0.0629
 1582W        W18429  17.211   2.272  15.989  0.0571 -0.2066  0.2195
 1583W        W18430  13.185  17.776   1.497 -0.3033  0.1578  0.1404
 1584W        W18431   8.866  13.846  12.029 -0.1241 -0.1842  0.2004
 1585W        W18432   0.618   1.042   3.717  0.1069 -0.0091  0.2718
 1586W        W18433   2.472  17.280   3.974  0.0530 -0.2933  0.0180
 1587W        W18434  13.724   0.674  16.005 -0.0230  0.1591  0.1771
 1588W        W18435  14.149  12.739  12.549  0.0587 -0.0051 -0.2817
 1589W        W18436   7.454   6.500   6.022  0.0760  0.1370 -0.1470
 1590W        W18437  10.301   8.760  11.899 -0.2404 -0.2692 -0.3220
 1591W        W18438   5.286  10.078  11.762 -0.1663  0.1586 -0.0773
 1592W        W18439   8.443   1.542  14.530  0.1618 -0.0806 -0.3886
 1593W        W18440  16.281   9.668  14.263 -0.0421 -0.1251 -0.0999
 1594W        W18441   5.467  10.159  12.279 -0.0396  0.0000 -0.2737
 1595W        W18442  11.912   7.305   4.957 -0.3289 -0.3353  0.0341
 1596W        W18443  18.133  11.200   3.458 -0.0264 -0.2023  0.3119
 1597W        W18444   6.434   1.857  14.590 -0.0322  0.0651 -0.0430
 1598W        W18445  10.133   9.530  13.777 -0.2653  0.0934 -0.2049
 1599W        W18446  17.101   1.304  15.667  0.1519  0.4333 -0.1848
 1600W        W18447  16.472   6.929   2.954  0.1734  0.1058  0.2808
 1601W        W18448   2.656  15.493   3.450 -0.0519 -0.3111 -0.1613
 1602W        W18449   3.143  17.464   1.588 -0.1326 -0.1272  0.3685
 1603W        W18450   1.551   0.379  11.616 -0.1133  0.0674 -0.3247
 1604W        W18451  12.641   5.863   1.305 -0.1856 -0.0227  0.0028
 1605W        W18452  12.648   5.121   0.467 -0.0598  0.1860 -0.2268
 1606W        W18453  10.574   5.655  15.536  0.0195 -0.2247 -0.2304
 1607W        W18454  14.680  17.307   3.663  0.1175 -0.0238 -0.0220
 1608W        W18455  13.780   6.145   2.654  0.0536 -0.1991  0.2183
 1609W        W18456  17.230   1.755   2.083 -0.0399  0.0663  0.0930
 1610W        W18457   9.233   6.495  16.353 -0.2476 -0.0574  0.0187
 1611W        W18458  14.888   5.285   1.421 -0.2844  0.0126 -0.1334
 1612W        W18459  15.783  13.290   4.454  0.1933 -0.1253 -0.1195
 1613W        W18460  13.074  16.059   0.301  0.0422  0.1754 -0.0037
 1614W        W18461   2.451   2.314  14.028 -0.1302 -0.3639  0.1588
 1615W        W18462  16.966   3.932  10.991 -0.1276 -0.2683  0.0937
 1616W        W18463   9.048   4.555  14.967  0.2925 -0.1072  0.6201
 1617W        W18464  12.640   2.399  11.615 -0.1350  0.3264 -0.0142
 1618W        W18465   8.593  15.614  13.349 -0.1344 -0.0758  0.0075
 1619W        W18466   0.394  18.049   0.479 -0.0161  0.1031 -0.1418
 1620W        W18467  11.328   4.890  12.493  0.1691  0.1600  0.3187
 1621W        W18468   0.585   4.283   5.293 -0.1532 -0.1422  0.1334
 1622W        W18469   5.326   6.260  11.642  0.0128  0.1405  0.1053
 1623W        W18470  12.678  16.488  16.057 -0.0291 -0.2150 -0.0896
 1624W        W18471   2.653   5.468  13.956 -0.1023  0.0762 -0.1347
 1625W        W18472   2.212  10.192   3.223 -0.2154 -0.1169  0.1541
 1626W        W18473   3.509   7.425   4.013  0.3635 -0.2039 -0.0049
 1627W        W18474  12.386   9.633  13.909 -0.0014  0.0880 -0.1201
 1628W        W18475   8.605   0.176  13.978 -0.6044  0.0721 -0.3111
 1629W        W18476   0.480  14.403   4.637 -0.0918  0.2649  0.1643
 1630W        W18477   0.712   3.016  16.369  0.0574  0.1006  0.0582
 1631W        W18478   5.888  13.430  12.613 -0.0350  0.0737  0.2018
 1632W        W18479   9.372  14.532   0.105  0.2414  0.1402 -0.1180
 1633W        W18480   5.638   9.346   4.121  0.2466 -0.0480  0.1330
 1634W        W18481   6.745   4.642  16.345  0.1503  0.0163 -0.2044
 1635W        W18482   0.992  16.051   4.052 -0.1169  0.0974 -0.1186
 1636W        W18483  11.255   6.972  16.477 -0.0653 -0.0874  0.1006
 1637W        W18484  15.071   3.858   3.922  0.0490  0.1197  0.0298
 1638W        W18485  10.100   7.584   3.385 -0.0317  0.3800  0.1806
 1639W        W18486   1.934  11.456   0.083  0.3812 -0.2200  0.1442
 1640W        W18487   1.113  14.578  13.701 -0.1783 -0.2013  0.1031
 1641W        W18488   1.656   8.797  14.467  0.3491  0.0050 -0.2949
 1642W        W18489  15.906   2.951   1.451 -0.3148  0.0915  0.3912
 1643W        W18490  12.622   2.808   1.776  0.0367  0.1883  0.0571
 1644W        W18491  12.465   9.309  12.618 -0.0812 -0.1367  0.0457
 1645W        W18492   3.024  10.466  13.656 -0.1912  0.0888  0.1284
 1646W        W18493   7.454  14.538   0.140 -0.1014 -0.0707 -0.1289
 1647W        W18494  12.143   5.390  14.349 -0.1863  0.0436  0.0667
 1648W        W18495  17.758  14.472   2.754  0.1870  0.0222  0.0695
 1649W        W18496  10.554  15.990   4.196  0.0318  0.0398  0.0694
 1650W        W18497   7.873  16.462   3.009 -0.5209  0.1314 -0.0944
 1651W        W18498  13.101  18.004  10.967  0.2578  0.0661 -0.2244
 1652W        W18499   7.482   1.651   5.437 -0.1041 -0.1394 -0.0189
 1653W        W18500   4.113   0.747  15.825 -0.0689 -0.2730 -0.2285
 1654W        W18501   3.158  12.793  16.212  0.0840  0.1476 -0.2150
 1655W        W18502  10.436  17.769  11.327  0.0947  0.3472 -0.0694
 1656W        W18503  13.996  13.999  13.932  0.1963 -0.1771 -0.3793
 1657W        W18504  15.704   7.426   3.407 -0.1175  0.0216 -0.0069
 1658W        W18505   4.538   4.482   4.297 -0.1129 -0.0966  0.1411
 1659W        W18506  17.342   7.140   1.218 -0.4520 -0.1053 -0.0925
 1660W        W18507  15.578  14.431   5.477  0.1432  0.0567  0.0302
 1661W        W18508   5.970   8.452   1.775  0.0009  0.5079  0.0741
 1662W        W18509  10.335  12.324   0.145 -0.1606 -0.0526  0.0453
 1663W        W18510  13.873   3.156   0.428  0.1677  0.0640 -0.1804
 1664W        W18511   3.342  10.211  14.843 -0.1308  0.0864  0.0447
 1665W        W18512   6.482  17.702   5.436 -0.0614 -0.3607  0.2278
 1666W        W18513  16.015   9.415  12.542 -0.0838  0.0657  0.0558
 1667W        W18514   2.315  12.391   5.166 -0.0632  0.1078  0.3866
 1668W        W18515   8.780   7.735   2.379  0.0846  0.2700  0.0884
 1669W        W18516  12.215   7.584  14.191 -0.0906  0.0108 -0.2009
 1670W        W18517  11.582  13.093   4.274 -0.1148  0.1326  0.0384
 1671W        W18518   8.938  12.436   2.888 -0.2881  0.0934 -0.2083
 1672W        W18519  13.864  16.172   3.175  0.1312 -0.0942 -0.0831
 1673W        W18520  15.113   0.457  12.776  0.0176 -0.1331 -0.2387
 1674W        W18521   8.262   5.681   0.132 -0.1932  0.2674  0.0083
 1675W        W18522  11.645   7.335   4.409  0.3589 -0.1788  0.1976
 1676W        W18523   3.387  10.567  15.180 -0.1136  0.0052  0.3116
 1677W        W18524   5.215  15.238  16.264  0.1143  0.1913  0.0511
 1678W        W18525   9.112  13.221  15.566 -0.0926 -0.1426 -0.1374
 1679W        W18526   2.079  12.420   3.122 -0.1344  0.3733 -0.3955
 1680W        W18527   6.952  14.451  15.033  0.1607  0.1629  0.1720
 1681W        W18528   6.126   1.475  11.834 -0.2096  0.2055 -0.0184
 1682W        W18529  11.152   9.868   2.076 -0.1267  0.0238  0.0367
 1683W        W18530   3.118  17.558   1.085  0.1732 -0.0786  0.4102
 1684W        W18531   0.766  11.455   0.601  0.0625  0.2591  0.0774
 1685W        W18532   0.038   6.636  14.385 -0.0737 -0.0003  0.0110
 1686W        W18533   8.690   5.544  13.237  0.0773  0.2013  0.0121
 1687W        W18534  12.035  16.923   0.976  0.3280 -0.3952 -0.0726
 1688W        W18535   6.759  13.060   3.526  0.0041  0.0048 -0.1649
 1689W        W18536   0.360   4.707   2.960 -0.2404 -0.2736 -0.2554
 1690W        W18537   3.382   6.558   0.233  0.3271 -0.1214  0.1806
 1691W        W18538   1.400   7.013  15.443  0.0273  0.2605  0.2100
 1692W        W18539   7.590   9.688   3.828  0.1220 -0.2077  0.2797
 1693W        W18540  11.136  17.269   4.992  0.0624  0.2623 -0.1088
 1694W        W18541  17.267   9.245  15.964 -0.1502  0.0618 -0.1152
 1695W        W18542   6.967   9.003   1.785 -0.0909 -0.0902  0.0146
 1696W        W18543   9.410   7.793  13.307  0.3566  0.1599  0.0331
 1697W        W18544  14.914  17.541  16.187  0.2139 -0.0267  0.1213
 1698W        W18545   1.362   9.005   6.378 -0.1110  0.0052 -0.0852
 1699W        W18546   6.555   8.488  12.074 -0.0632 -0.0671 -0.2238
 1700W        W18547  18.113  17.992  15.673 -0.0219 -0.1117  0.4119
 1701W        W18548   3.120   7.415   3.760  0.0175  0.1608  0.2666
 1702W        W18549   0.511  15.112  14.176  0.1748  0.1922  0.3743
 1703W        W18550   1.162  12.591  14.652 -0.1152 -0.1056 -0.1312
 1704W        W18551  11.405   7.778   4.424 -0.3354 -0.0253 -0.0402
 1705W        W18552   0.374   1.477   5.109 -0.1259  0.1503  0.1380
 1706W        W18553   3.312   1.631  16.156 -0.1467 -0.1857  0.0119
 1707W        W18554  13.954  13.545   1.430  0.0752  0.0920  0.1777
 1708W        W18555  16.398  17.541   5.532  0.3409 -0.1124  0.2725
 1709W        W18556   2.029   2.173  11.489  0.0315  0.3507  0.0124
 1710W        W18557   6.505   8.881  13.841  0.1463 -0.2692  0.2366
 1711W        W18558  12.766   0.759   4.277  0.0859 -0.3926 -0.0132
 1712W        W18559   1.902  16.455  13.080  0.2571 -0.0445  0.1187
 1713W        W18560  11.046   8.049  13.039  0.3123  0.4565 -0.2881
 1714W        W18561  15.716   1.567   4.746  0.0379  0.0483 -0.0158
 1715W        W18562   6.467   1.203   3.920  0.1111 -0.0582  0.0152
 1716W        W18563   0.942   5.172   4.396  0.1684  0.0088 -0.0208
 1717W        W18564   6.214   5.785  14.464  0.0488  0.3750 -0.2574
 1718W        W18565  14.596   5.456   4.230 -0.0027  0.1807 -0.0625
 1719W        W18566  17.095   4.714  14.455  0.2311  0.0065 -0.2034
 1720W        W18567   2.897   4.099   5.002 -0.0046  0.2248 -0.0669
 1721W        W18568  14.489   3.898   4.838  0.1611  0.1276  0.0294
 1722W        W18569   9.550   7.705  11.031 -0.1428 -0.0634 -0.1327
 1723W        W18570   0.308   6.532   0.839  0.1236  0.0597 -0.1370
 1724W        W18571  16.298   6.062  14.458  0.0669  0.0664 -0.0395
 1725W        W18572   6.170   9.799  13.936  0.0019 -0.2163 -0.2446
 1726W        W18573  14.410   7.025  11.505  0.2328  0.1655  0.2653
 1727W        W18574  10.456  13.462  15.563 -0.3752 -0.0356 -0.0816
 1728W        W18575   7.836   1.631   4.962  0.0443 -0.1582  0.1316
 1729W        W18576   5.306   8.467   4.327 -0.1579  0.2728  0.3448
 1730W        W18577  13.948  13.204   1.823 -0.0320 -0.5025  0.0230
 1731W        W18578   8.182   5.867  12.185  0.2453  0.0981 -0.0670
 1732W        W18579  15.190  11.134   2.646  0.1339  0.2425  0.1899
 1733W        W18580   7.673   2.828  11.971  0.1799  0.1472  0.2140
 1734W        W18581   7.532  17.012  14.048  0.2580 -0.2498  0.1959
 1735W        W18582   6.872  14.094   1.741 -0.0836  0.0341 -0.3514
 1736W        W18583   7.287  10.118   1.331 -0.2532  0.2599 -0.0161
 1737W        W18584   5.388  17.735   5.893 -0.1233  0.0332  0.1685
 1738W        W18585  17.263  13.638  14.772  0.0658 -0.0486 -0.0833
 1739W        W18586  11.227  11.858  13.953  0.1670  0.2161 -0.3068
 1740W        W18587   4.788   5.223   3.552 -0.2162  0.2104  0.1902
 1741W        W18588  14.256  11.740  14.602  0.0577  0.0870  0.0061
 1742W        W18589   8.802  12.889   4.912 -0.0265  0.1601  0.0854
 1743W        W18590   3.299   8.434  14.332 -0.1484  0.0161 -0.1392
 1744W        W18591  13.630  13.174   1.393  0.2007  0.1154  0.1151
 1745W        W18592   2.342  15.075   3.592 -0.0457 -0.0989  0.2507
 1746W        W18593   7.866  11.835  12.689  0.1762 -0.1921  0.1463
 1747W        W18594   8.824   2.849  15.736 -0.1890 -0.0283  0.2030
 1748W        W18595  10.885  13.079   1.119 -0.0340 -0.0373 -0.2295
 1749W        W18596   9.991  16.381   4.842  0.0897 -0.4227  0.2213
 1750W        W18597  17.019   8.051  12.109 -0.0406 -0.0874 -0.1630
 1751W        W18598   6.871   0.326   2.787 -0.5812 -0.2983  0.2570
 1752W        W18599  14.964   6.648  16.008  0.2626  0.1620 -0.1172
 1753W        W18600   6.353   9.228  12.330 -0.0310 -0.1114 -0.0992
 1754W        W18601  11.583   5.134  13.350  0.0351 -0.2504  0.0235
 1755W        W18602  13.732   9.423   0.565 -0.1741 -0.3094  0.1559
 1756W        W18603  10.188  11.775  14.903 -0.1958 -0.0649  0.2799
 1757W        W18604  16.674   2.864  12.948  0.0082 -0.3158 -0.0674
 1758W        W18605   3.430  10.036   0.976 -0.3322  0.2507  0.1046
 1759W        W18606   1.763   8.009   2.037  0.0423  0.3043  0.1997
 1760W        W18607  11.343   4.793  12.006  0.0832  0.0119 -0.3144
 1761W        W18608  13.706   8.442   1.735 -0.1111 -0.1494 -0.2945
 1762W        W18609   5.557  16.196   5.081  0.2259  0.0365 -0.1100
 1763W        W18610   8.620   0.721   4.401 -0.1589  0.1978  0.2057
 1764W        W18611   0.085   9.308  14.790  0.3323 -0.0055 -0.0164
 1765W        W18612  17.514   5.331   3.089  0.1416  0.0543 -0.1118
 1766W        W18613   7.715   8.657  15.047 -0.0871 -0.0228 -0.0072
 1767W        W18614   1.134  10.074  14.288 -0.1654  0.1286  0.0843
 1768W        W18615   2.622   1.917  13.616 -0.1407 -0.1415 -0.1726
 1769W        W18616   5.719  14.875  12.694 -0.0193 -0.0551  0.0014
 1770W        W18617  10.915   9.782   1.654  0.0448  0.2805 -0.1146
 1771W        W18618   8.311   9.994  11.947 -0.5333  0.0518  0.0491
 1772W        W18619   0.573  15.712   4.183  0.1138 -0.0637  0.1420
 1773W        W18620  10.052  15.190   3.817 -0.1137  0.0946 -0.1042
 1774W        W18621  15.801   8.838  14.084  0.1779 -0.0908 -0.0224
 1775W        W18622   1.863  15.684   2.069  0.1001 -0.0426 -0.2815
 1776W        W18623   5.179  13.513  14.880 -0.0313  0.0867  0.1826
 1777W        W18624   8.412   8.361   3.828 -0.1205 -0.0416 -0.2699
 1778W        W18625   3.381  11.072  15.039  0.1225 -0.2717 -0.0338
 1779W        W18626   4.249   4.546   5.432 -0.0335  0.2669 -0.2749
 1780W        W18627   4.151   9.352   0.521  0.1201  0.0297 -0.0233
 1781W        W18628  10.372   7.399   1.469  0.0045  0.1006 -0.1026
 1782W        W18629   6.832   6.724  14.610  0.0941  0.1576 -0.2267
 1783W        W18630  12.336  11.081  15.493 -0.1335  0.0025  0.0167
 1784W        W18631   1.130   0.550   1.541 -0.2048  0.1853 -0.1304
 1785W        W18632  13.252  14.756  15.897 -0.0531  0.0638 -0.0276
 1786W        W18633   7.484  16.807  13.573 -0.3872 -0.1810 -0.0873
 1787W        W18634   6.927   6.404  11.949 -0.0924 -0.2276  0.0843
 1788W        W18635  10.493   7.840  16.358  0.0970  0.4467 -0.2782
 1789W        W18636  15.738   7.241  14.042 -0.1411 -0.0226 -0.1200
 1790W        W18637   0.612  12.861  15.320  0.1587 -0.2227  0.1859
 1791W        W18638  10.277  11.047   1.620  0.0354 -0.0050  0.2356
 1792W        W18639  17.447   1.780   3.875  0.2690  0.1715 -0.3312
 1793W        W18640   2.136  16.991  13.913  0.0775 -0.3019  0.0368
 1794W        W18641  14.972   7.743  16.129  0.0429  0.2622  0.1026
 1795W        W18642   0.060  14.634   0.518  0.1536  0.0876  0.0036
 1796W        W18643   9.945  18.032   5.049 -0.0897 -0.2004  0.1161
 1797W        W18644  15.012   9.761  13.407 -0.2908 -0.0483  0.0359
 1798W        W18645   5.961  17.671  15.729 -0.0057  0.2394  0.0154
 1799W        W18646   6.151  11.001  13.254  0.0887  0.2581 -0.0939
 1800W        W18647   8.830   8.696   5.716  0.0684 -0.2425 -0.2130
 1801W        W18648   7.752   1.814  14.262 -0.1030  0.0052  0.2306
 1802W        W18649  17.109  14.777  15.573 -0.2786  0.0621  0.0520
 1803W        W18650  16.644   7.512   3.654  0.3502 -0.1680  0.1894
 1804W        W18651   5.169   0.624  13.997  0.1451 -0.3903 -0.0272
 1805W        W18652  13.233   7.891   2.258  0.2459 -0.1156 -0.1942
 1806W        W18653   5.139   1.322   3.641  0.1832 -0.3537 -0.0739
 1807W        W18654  17.295  10.852   1.404  0.0671  0.0489  0.2110
 1808W        W18655   1.327  17.148  15.315 -0.0368 -0.2150  0.2391
 1809W        W18656  16.593  17.619  16.181  0.0595 -0.0442  0.1824
 1810W        W18657   5.852  13.996   0.650  0.4551 -0.0709 -0.2560
 1811W        W18658   2.745  12.662   5.112  0.4644 -0.1010  0.1929
 1812W        W18659  16.092  10.253   2.106 -0.0097  0.0750  0.3483
 1813W        W18660  13.561  12.088   1.015  0.0570  0.0063  0.3478
 1814W        W18661   7.225  15.981  15.085  0.1258  0.0017 -0.2013
 1815W        W18662   3.486  10.612   5.457  0.1724 -0.1596 -0.0042
 1816W        W18663  14.657  17.986  16.424  0.3871  0.1502  0.2301
 1817W        W18664  10.595   6.471   0.490 -0.0828 -0.4355  0.0932
 1818W        W18665   3.598  13.706   2.000 -0.0775 -0.0120  0.2586
 1819W        W18666   2.095  11.658  13.596 -0.0870  0.1068  0.1312
 1820W        W18667   5.819   8.155   3.135  0.0066  0.1257 -0.2223
 1821W        W18668   3.478   6.680  16.202 -0.0990 -0.2599  0.1923
 1822W        W18669   0.589   3.991  14.651 -0.1448 -0.0541 -0.1171
 1823W        W18670  15.634  12.432  15.457  0.0534  0.1942 -0.0343
 1824W        W18671   4.495  10.411  12.922 -0.3131 -0.0684 -0.1615
 1825W        W18672  15.424   9.315   5.773 -0.3712 -0.1848  0.0965
 1826W        W18673   1.233   7.625  13.275  0.2993  0.1000  0.0717
 1827W        W18674  10.221  10.208   1.225 -0.0031 -0.0119 -0.2123
 1828W        W18675  12.179  13.218  14.724  0.1219  0.2359  0.1916
 1829W        W18676  11.907  17.564  14.485 -0.0245 -0.0770  0.0210
 1830W        W18677  16.968   5.288   1.528  0.0159  0.2010  0.0760
 1831W        W18678   8.202   1.990  14.575 -0.0446 -0.0858 -0.0675
 1832W        W18679  18.149   4.983  14.746 -0.3446 -0.3415  0.0200
 1833W        W18680   0.734  10.155   4.733 -0.3384 -0.0822  0.0693
 1834W        W18681  12.283   6.533   2.804 -0.4309  0.1903 -0.2212
 1835W        W18682  10.993  10.461   0.390  0.2828 -0.4581 -0.1663
 1836W        W18683  12.820   1.925  11.514  0.0500  0.2331  0.0171
 1837W        W18684   9.140   0.725  14.625 -0.0230  0.0702 -0.0709
 1838W        W18685  11.280   1.079   0.892 -0.0463 -0.4224 -0.1192
 1839W        W18686   9.026  16.641   2.299 -0.0570 -0.2530 -0.0894
 1840W        W18687   2.821  14.716   1.976  0.3053  0.0452 -0.0218
 1841W        W18688   8.538   5.456  16.434 -0.0335  0.2001  0.0318
 1842W        W18689  15.104   9.636  12.375  0.2533  0.0809  0.0569
 1843W        W18690  11.169   7.769   1.019  0.1949  0.2576 -0.0200
 1844W        W18691  11.191   2.792  16.369  0.0877  0.4030 -0.3029
 1845W        W18692  11.872   7.289  15.705 -0.2028  0.4275  0.3453
 1846W        W18693   4.778   0.855  12.137  0.1172  0.1518 -0.0386
 1847W        W18694  13.528   1.956  15.974  0.0984 -0.4229 -0.1748
 1848W        W18695  11.725   3.900   3.008 -0.1425 -0.0087 -0.1519
 1849W        W18696  12.257   5.738  12.999 -0.2612  0.0902  0.0163
 1850W        W18697  11.881  14.295   0.407 -0.1274  0.1474 -0.2607
 1851W        W18698  13.127   6.215  14.603  0.2300  0.1065  0.0209
 1852W        W18699   5.197   6.776  14.703  0.0051  0.0647 -0.1099
 1853W        W18700   6.508   2.845   3.856 -0.2300 -0.2856  0.0330
 1854W        W18701   8.310  10.371  15.189  0.0462 -0.1779  0.0252
 1855W        W18702   9.835   5.709  13.972  0.3169  0.5124 -0.0774
 1856W        W18703   1.739  14.437   3.543  0.0764  0.0925 -0.2426
 1857W        W18704  17.492   1.751   1.602 -0.1531  0.0776  0.0531
 1858W        W18705  13.069   9.887  15.014  0.0327  0.0985  0.3116
 1859W        W18706  15.403   3.185  12.426  0.1308  0.0322  0.0548
 1860W        W18707  14.494  15.752   0.017  0.1827  0.0348 -0.5049
 1861W        W18708   0.523   7.176  15.903 -0.1692 -0.0418  0.1420
 1862W        W18709   4.303  13.516  15.620 -0.1927 -0.0077  0.3152
 1863W        W18710   2.288   8.472   3.441 -0.1635 -0.1980 -0.1146
 1864W        W18711  15.504   9.959   2.600  0.0620 -0.1039  0.1308
 1865W        W18712  15.113  12.373   3.390  0.0798 -0.4363 -0.2667
 1866W        W18713   6.709  12.808   2.120 -0.1196 -0.2371 -0.1435
 1867W        W18714  14.060   6.386   6.277  0.0816  0.2209 -0.2233
 1868W        W18715   0.432  12.688   2.842 -0.1228  0.4404 -0.1390
 1869W        W18716  11.429  11.073  15.135  0.0614  0.2654  0.1668
 1870W        W18717  10.109   5.581   4.074  0.1727 -0.0057  0.2922
 1871W        W18718   2.495  15.526   1.401  0.1822  0.1272  0.1227
 1872W        W18719   7.496   6.557   5.509 -0.2296  0.2746  0.2038
 1873W        W18720   6.719  14.714   4.218  0.1681 -0.1150  0.0397
 1874W        W18721   7.654  11.318   3.313 -0.1174 -0.0470 -0.0799
 1875W        W18722   4.963   8.762  14.684  0.1820 -0.1665 -0.2170
 1876W        W18723   4.293   8.429   1.672 -0.0389 -0.1874  0.0524
 1877W        W18724  17.155   2.641   4.977 -0.1938  0.2454 -0.3642
 1878W        W18725  17.551   6.061  16.015  0.0260  0.2822 -0.0786
 1879W        W18726   7.010   4.490  11.628 -0.3613 -0.3036 -0.0814
 1880W        W18727   0.903   2.314   1.232 -0.2335 -0.0746  0.2245
 1881W        W18728  11.639  17.926   3.373 -0.4172  0.0858  0.1606
 1882W        W18729  16.352   5.165  11.292 -0.1922  0.0658  0.1509
 1883W        W18730   7.513  11.607  16.465  0.1327  0.1789 -0.0250
 1884W        W18731  15.315  16.881   4.272  0.2389 -0.1951  0.0755
 1885W        W18732   6.817   7.308   2.435 -0.0199  0.0758 -0.0095
 1886W        W18733  12.893  12.259  11.410  0.1432 -0.0120 -0.0175
 1887W        W18734   9.309   0.212   3.798 -0.3364 -0.2361 -0.1846
 1888W        W18735   6.927   0.056  12.297  0.2330  0.0157  0.1168
 1889W        W18736   5.928   7.622  12.354  0.1253 -0.1816  0.0543
 1890W        W18737   4.662   4.827   1.838  0.0167 -0.0854  0.0136
 1891W        W18738  14.460  16.376   1.395  0.0192  0.4288  0.0058
 1892W        W18739   6.150  13.680   0.460  0.0273  0.5811  0.1086
 1893W        W18740   3.693   8.949   1.293  0.0686 -0.1853  0.2131
 1894W        W18741  13.286  18.067  14.751  0.0401 -0.1662  0.0385
 1895W        W18742   1.807   1.397   4.710  0.0461  0.2584 -0.0387
 1896W        W18743   4.064   7.361  12.063 -0.1384  0.3010  0.0264
 1897W        W18744   6.644  12.835   0.193 -0.2491 -0.0276  0.5820
 1898W        W18745  17.960   4.468  14.832  0.0610  0.1406 -0.2182
 1899W        W18746   8.678   1.926  13.125  0.0092 -0.1856 -0.1476
 1900W        W18747   9.535   9.980  15.093 -0.1801 -0.0380  0.3265
 1901W        W18748  10.861  12.588  11.408 -0.2202  0.0322  0.0294
 1902W        W18749   4.718   0.211   4.226  0.2605  0.0216  0.0388
 1903W        W18750   6.087  11.198   2.772 -0.2507  0.1376 -0.2214
 1904W        W18751  10.682  15.008  11.468  0.3450 -0.1896  0.0586
 1905W        W18752   3.549   5.492   4.135  0.2887 -0.1497  0.0211
 1906W        W18753  11.031   3.322  16.346  0.2190  0.0144 -0.3028
 1907W        W18754  14.958  16.214   3.029  0.0771  0.2909 -0.1418
 1908W        W18755   8.459   2.935   0.221  0.1045 -0.0820  0.1389
 1909W        W18756   4.601   3.042   3.042  0.1512  0.2960 -0.2653
 1910W        W18757   8.814   7.441  12.805 -0.0008 -0.2818  0.0426
 1911W        W18758   9.099   9.915   5.167 -0.4378  0.1694 -0.1569
 1912W        W18759   7.025   2.304   2.446  0.1375 -0.0394  0.0751
 1913W        W18760  16.968   0.787  15.268  0.0528  0.0998 -0.3301
 1914W        W18761  11.917  17.711   2.422  0.0208 -0.0647 -0.1495
 1915W        W18762   9.513  17.526  15.409  0.0019 -0.3481  0.2119
 1916W        W18763   7.620  15.588   2.224 -0.1893 -0.1117  0.1407
 1917W        W18764  10.069   2.674   3.148  0.0134 -0.0047  0.2467
 1918W        W18765  10.005  11.133  15.386 -0.1173  0.1424  0.1899
 1919W        W18766   7.689   7.906  11.746  0.1577 -0.0528 -0.0589
 1920W        W18767  10.121   7.904  11.606  0.1094 -0.0239 -0.0471
 1921W        W18768  10.376  14.471  15.195 -0.0079  0.0664 -0.3458
 1922W        W18769   3.242   5.895  13.620 -0.3035 -0.1008  0.0650
 1923W        W18770   5.576   0.247  15.248 -0.0231 -0.3161  0.0463
 1924W        W18771   9.688  16.084  14.945 -0.0870  0.3009  0.0183
 1925W        W18772  11.126   3.270   4.525  0.0271  0.2555  0.0181
 1926W        W18773   4.067  12.281  16.138  0.0129  0.1272 -0.0159
 1927W        W18774   5.503  10.908  15.957 -0.0483 -0.1027 -0.1292
 1928W        W18775  12.815  15.657   0.835  0.1150 -0.3385 -0.0694
 1929W        W18776  14.885  10.079  16.177  0.0381  0.1075 -0.3187
 1930W        W18777   0.256   0.139  12.647  0.1605 -0.1136  0.0710
 1931W        W18778   0.641   9.016   5.577 -0.1537  0.1672  0.0389
 1932W        W18779  17.315   8.934   4.521 -0.0810 -0.0967 -0.0752
 1933W        W18780  12.852  10.002   5.594 -0.2419  0.1006 -0.0004
 1934W        W18781  14.383   9.146   1.137 -0.1109 -0.0233  0.0670
 1935W        W18782  16.330   0.350   2.287  0.1700  0.2875 -0.0922
 1936W        W18783   4.291   0.603  12.025 -0.2259  0.0105  0.0045
 1937W        W18784   1.842   6.980  16.604  0.1679  0.1759 -0.1067
 1938W        W18785   1.323  10.786   2.219 -0.2008 -0.0984  0.1770
 1939W        W18786  16.466   9.031   2.632 -0.0422  0.3883  0.2226
 1940W        W18787  11.216  14.552   3.788 -0.0361  0.0767  0.0647
 1941W        W18788   0.545   2.688   2.413 -0.1306  0.1881  0.0980
 1942W        W18789  14.352  11.302   2.108 -0.2453 -0.0490 -0.0534
 1943W        W18790   2.220   5.240  14.035  0.0888  0.1044  0.1231
 1944W        W18791   3.959  11.905   3.034  0.0405  0.0782 -0.0553
 1945W        W18792   5.544   4.360  13.862 -0.0331 -0.2202 -0.1382
 1946W        W18793  11.442   1.770  15.486 -0.1147  0.0954 -0.1197
 1947W        W18794  16.365   4.992  13.778  0.1051 -0.0846  0.0872
 1948W        W18795   1.055  11.632   0.991 -0.0929 -0.0141 -0.2155
 1949W        W18796   5.270   7.922  15.601 -0.0661  0.0094  0.2505
 1950W        W18797  17.891   2.700  12.687 -0.0575  0.0487  0.0224
 1951W        W18798  12.206  12.950   2.195  0.2370  0.5313  0.2306
 1952W        W18799  15.414   6.734  16.428 -0.0599 -0.2262 -0.1171
 1953W        W18800   0.925   3.275   1.018  0.3254  0.2151  0.0285
 1954W        W18801  10.675  17.380  13.133 -0.0962 -0.0192  0.1166
 1955W        W18802   7.693  11.539  14.232  0.0573 -0.4482  0.1687
 1956W        W18803  16.273  11.341  14.001  0.1427 -0.2296  0.4729
 1957W        W18804  17.405  16.652   2.708 -0.2072  0.0575 -0.1783
 1958W        W18805   2.141   1.416   1.369  0.2214 -0.0995 -0.1432
 1959W        W18806   1.432   4.888  13.617 -0.4410  0.1179 -0.0075
 1960W        W18807   1.561   7.424  14.099  0.0388 -0.4343  0.4426
 1961W        W18808  16.078   8.613  14.451  0.1852  0.3614  0.1514
 1962W        W18809   2.703  11.045   0.250  0.0322 -0.0867  0.3265
 1963W        W18810   5.485  15.727  12.265  0.0571  0.0390  0.2665
 1964W        W18811  10.120   8.882  13.368 -0.0493  0.0976 -0.1032
 1965W        W18812   7.244  11.121   5.375  0.0593  0.0688 -0.0023
 1966W        W18813   7.603   2.939  12.450  0.0276  0.1250 -0.1997
 1967W        W18814   1.448  12.633  13.364 -0.4415  0.3048  0.1111
 1968W        W18815  12.372   4.637  15.482 -0.0130  0.1339 -0.0135
 1969W        W18816   5.700  16.506   2.363  0.1393  0.0595  0.1294
 1970W        W18817  13.871   2.038  16.315  0.1172 -0.0119  0.0253
 1971W        W18818  13.243  11.843  12.588  0.2558 -0.0238  0.0530
 1972W        W18819   5.603  17.019   2.844 -0.1056  0.0424 -0.0351
 1973W        W18820   8.795   5.313  13.978 -0.2736  0.3047 -0.0657
 1974W        W18821   0.150   3.258  12.070 -0.0732 -0.2191  0.1124
 1975W        W18822   3.619   1.023   2.823 -0.1463  0.0202  0.0824
 1976W        W18823   6.439   2.398   5.232 -0.1048 -0.1016  0.2528
 1977W        W18824   3.924  10.233   4.618  0.0391  0.1097 -0.2388
 1978W        W18825   0.184  13.561   4.557  0.1881  0.0448  0.0325
 1979W        W18826   1.061  13.387   0.782 -0.0680  0.2569 -0.4060
 1980W        W18827   8.479   6.014  16.210 -0.0809 -0.1336 -0.1808
 1981W        W18828  14.599   3.831  15.985  0.3925 -0.0684 -0.1147
 1982W        W18829   8.085  11.684  13.913  0.1933 -0.0476 -0.4466
 1983W        W18830   7.304   1.565   2.924 -0.3191 -0.1362 -0.0081
 1984W        W18831   0.641  16.211   2.641  0.1436 -0.2476 -0.1083
 1985W        W18832  11.960   9.761   2.403 -0.1391  0.2615 -0.3160
 1986W        W18833  16.781   5.578  15.884  0.0746  0.2490  0.1201
 1987W        W18834   5.981   0.530  12.141  0.0669 -0.2910  0.3167
 1988W        W18835  13.396  12.073  14.948 -0.0264 -0.0545  0.1599
 1989W        W18836  10.869  12.067  14.539  0.3089 -0.0058 -0.1013
 1990W        W18837  13.561  16.896   2.614  0.0351  0.0365  0.1890
 1991W        W18838   9.033   2.939  13.802 -0.4061 -0.0059 -0.0020
 1992W        W18839  15.066   9.924  14.895  0.0781 -0.0078 -0.2673
 1993W        W18840  11.387  13.361   5.034 -0.0010 -0.2221  0.0986
 1994W        W18841   9.972   2.891   2.581 -0.3045  0.1723  0.1360
 1995W        W18842   0.344   0.506  13.053  0.1342 -0.1755  0.1320
 1996W        W18843   7.886  17.271   2.781  0.0415 -0.2162  0.0667
 1997W        W18844   5.854  17.956  15.110 -0.0667 -0.1968  0.1946
 1998W        W18845  15.358   7.340   4.982 -0.2924  0.3248 -0.0443
 1999W        W18846  16.798  15.083  13.592 -0.1286 -0.1237  0.0279
 2000W        W18847  16.594   1.921  13.962  0.0290 -0.0522  0.0511
 2001W        W18848  17.200  10.207   5.075  0.2416 -0.1638 -0.1280
 2002W        W18849  16.767   6.700  13.330 -0.0458  0.1797  0.0326
 2003W        W18850   6.103   8.872   3.398  0.0542  0.0929  0.2242
 2004W        W18851   1.390   2.590   1.167 -0.0950  0.0485  0.1090
 2005W        W18852  11.820   1.607   2.796  0.4398  0.0050 -0.1234
 2006W        W18853  12.972   4.913  11.254  0.1950  0.2962  0.1813
 2007W        W18854   8.497  12.665   0.886 -0.2027 -0.1074  0.0546
 2008W        W18855   7.164  10.225  15.383 -0.2121 -0.0210 -0.1190
 2009W        W18856  12.251   8.923   3.388 -0.0455  0.6244  0.4533
 2010W        W18857  11.566   0.493   4.995 -0.1325  0.2949 -0.0325
 2011W        W18858   1.402   8.433  12.477  0.1666 -0.2273 -0.3749
 2012W        W18859   1.297   5.060   2.531  0.0662 -0.0086  0.1413
 2013W        W18860  12.217  12.011   0.507 -0.0524 -0.0840  0.1617
 2014W        W18861   1.891  13.664  15.088  0.2681 -0.0345 -0.1811
 2015W        W18862   3.606  10.498  13.481  0.0222  0.0309 -0.0117
 2016W        W18863   7.983   2.100   2.363  0.0375 -0.0328  0.0980
 2017W        W18864   2.493   8.647   5.554  0.2331  0.2859 -0.0514
 2018W        W18865   7.053   6.697   4.704  0.1831 -0.1587  0.0168
 2019W        W18866   6.286   7.651  13.081  0.0729 -0.0774 -0.0040
 2020W        W18867  14.395  15.402  12.071  0.3097  0.1970 -0.2128
 2021W        W18868   8.360  15.375   2.910  0.1987 -0.0166  0.3589
 2022W        W18869  17.669   1.337  12.778 -0.2362  0.3884 -0.1775
 2023W        W18870  15.622   3.022   1.003 -0.1940  0.1700  0.1538
 2024W        W18871   8.581  15.237   1.335  0.0291 -0.2875  0.2301
 2025W        W18872   3.737  15.819   4.984  0.3164  0.2424  0.1365
 2026W        W18873   5.421   1.952  14.184 -0.1417  0.0362  0.0351
 2027W        W18874   5.681  12.940   6.074 -0.1739 -0.3708  0.0714
 2028W        W18875  11.187  16.373   6.185  0.0809 -0.0733  0.0274
 2029W        W18876   6.131   4.972  12.571 -0.3570 -0.2930 -0.1480
 2030W        W18877   3.167   7.595   2.111  0.1257  0.0464  0.1785
 2031W        W18878   2.792  15.542  11.587  0.0459 -0.0694 -0.0578
 2032W        W18879   9.298  17.460  14.332  0.0815  0.1240 -0.1470
 2033W        W18880   3.653   0.501   0.365 -0.1872 -0.3461  0.2971
 2034W        W18881   9.925  10.137  11.295 -0.0651  0.0671 -0.1491
 2035W        W18882  14.047  11.038  15.544 -0.1761  0.1138 -0.0466
 2036W        W18883  16.058   7.405   1.846  0.0543 -0.1239  0.2840
 2037W        W18884   1.336   6.489  12.494  0.0933 -0.2570 -0.0268
 2038W        W18885  15.264  12.711   3.763  0.0416  0.2480  0.1238
 2039W        W18886  17.894   7.620  13.018  0.2197  0.0596  0.0172
 2040W        W18887  17.061  15.179   1.374  0.0443 -0.1263 -0.1495
 2041W        W18888   8.988  17.216  15.770 -0.0005 -0.0790 -0.0532
 2042W        W18889   3.345  16.465   2.205 -0.0431 -0.3705 -0.2168
 2043W        W18890   4.257   1.558   3.996  0.0259 -0.3724  0.2311
 2044W        W18891   7.206   8.803  14.451  0.0237 -0.0356  0.0424
 2045W        W18892  11.331   0.408   4.369 -0.1184  0.1872  0.2498
 2046W        W18893   9.136  10.973   2.292  0.3828 -0.0301  0.1574
 2047W        W18894   8.999   8.314  15.136 -0.0574 -0.2422  0.2801
 2048W        W18895   0.051   1.703  11.616  0.0451 -0.1019  0.3213
 2049W        W18896  13.423   3.942  13.562  0.4414  0.2867 -0.0956
 2050W        W18897   9.470   6.052  15.354 -0.3904  0.2511  0.2486
 2051W        W18898  16.769   0.760   5.399  0.0757  0.0782 -0.1005
 2052W        W18899  14.386  10.108  11.308  0.3163  0.2253  0.3477
 2053W        W18900   2.991   1.419  12.061 -0.2253  0.0984 -0.1715
 2054W        W18901   9.730   2.558   2.276 -0.0224 -0.1812 -0.1586
 2055W        W18902   1.895  11.173   4.297  0.2259  0.1503 -0.1556
 2056W        W18903  16.541   6.632   4.930 -0.1063  0.0670 -0.0329
 2057W        W18904   8.591  15.276  14.306 -0.1676  0.1621  0.0486
 2058W        W18905   1.985  18.101  15.178 -0.0112  0.1101 -0.3494
 2059W        W18906   9.891   3.493   3.631 -0.0235  0.0654 -0.0485
 2060W        W18907   8.202   0.473   0.898  0.3489 -0.0910  0.1205
 2061W        W18908  14.324   5.925  11.587  0.0271 -0.1717 -0.0634
 2062W        W18909  12.605  14.942   4.643 -0.2593  0.0893 -0.1221
 2063W        W18910   9.962  13.849   1.516 -0.0408 -0.1751 -0.0066
 2064W        W18911   5.035   8.754  12.901 -0.5823 -0.1623  0.0205
 2065W        W18912   5.776  15.379   5.445 -0.0751 -0.0776  0.0274
 2066W        W18913   9.256  14.249  15.084  0.0931 -0.2098  0.2800
 2067W        W18914  16.035   6.757   1.457  0.2025  0.1261  0.1859
 2068W        W18915   8.626  17.553   4.922  0.0950 -0.0691  0.0021
 2069W        W18916   8.743  12.104   1.399 -0.1347  0.0068  0.2509
 2070W        W18917  11.724   4.030   2.096  0.1110 -0.3534  0.2299
 2071W        W18918   5.069   5.816   3.416 -0.0725 -0.2671  0.1768
 2072W        W18919   6.992   8.880   0.096  0.2457 -0.0660 -0.1382
 2073W        W18920  15.277   0.120  12.363  0.0044  0.0620 -0.3257
 2074W        W18921  14.701   6.820  15.058  0.2373  0.3290  0.1335
 2075W        W18922   7.306   9.380  12.399 -0.0691 -0.0673 -0.3527
 2076W        W18923   8.682  15.942  12.428  0.0124  0.4083  0.0229
 2077W        W18924  16.452  12.557  12.934  0.0224 -0.0130 -0.0256
 2078W        W18925   7.357  16.352  13.768 -0.0385  0.1333  0.0777
 2079W        W18926   7.842  11.472  12.247  0.0577 -0.0739  0.0013
 2080W        W18927   3.708  17.934  15.111  0.2011  0.2764  0.1533
 2081W        W18928   5.322  18.163   4.746  0.3359 -0.2612  0.0552
 2082W        W18929   5.021   1.857  12.325 -0.1166 -0.1013 -0.3515
 2083W        W18930   1.781   4.800   5.302 -0.3508 -0.0637 -0.0966
 2084W        W18931   9.200   1.184   3.905 -0.3214  0.1573  0.2540
 2085W        W18932  10.326   6.861  14.452  0.3514  0.2313 -0.0087
 2086W        W18933   4.358   6.152   1.636 -0.0751  0.1609  0.0826
 2087W        W18934   0.188   1.948  12.526  0.0234 -0.2718 -0.0873
 2088W        W18935  17.554   0.656   4.800  0.3613 -0.0092 -0.0087
 2089W        W18936  11.509   5.215   3.685 -0.3185 -0.0671  0.1079
 2090W        W18937   7.490  10.768   1.920 -0.1710  0.2491 -0.0630
 2091W        W18938  17.070  10.498  15.772 -0.1499 -0.0122  0.3088
 2092W        W18939   0.427  14.790   2.625 -0.0999 -0.0929 -0.1356
 2093W        W18940  10.469   6.047  13.824  0.1620  0.1647  0.0438
 2094W        W18941  15.928  16.269  12.503  0.0783  0.0625  0.2401
 2095W        W18942   1.224  17.663   5.420  0.2060 -0.1244  0.0393
 2096W        W18943  14.204   5.584   0.737  0.1861 -0.0484 -0.0533
 2097W        W18944  10.297   3.964   2.806 -0.1165 -0.2767  0.1756
 2098W        W18945  10.521   5.244  12.866 -0.1959  0.1145  0.1416
 2099W        W18946  12.666  15.423  14.329 -0.2315 -0.1030 -0.2830
 2100W        W18947   4.746   7.056  11.633  0.0825  0.0779 -0.1551
 2101W        W18948   4.585   0.096   5.609 -0.1667  0.1877  0.1515
 2102W        W18949   0.599   8.207  12.661 -0.2489 -0.0924  0.0456
 2103W        W18950   6.604   6.313  15.633  0.3137  0.3051  0.0839
 2104W        W18951   0.480  15.150   5.631  0.3329 -0.2417  0.3676
 2105W        W18952  17.984   8.856  14.812 -0.0823 -0.0616  0.1445
 2106W        W18953  12.294  17.278  13.236  0.0542 -0.2401  0.0478
 2107W        W18954  17.587   5.420  12.142 -0.1075  0.1199 -0.0745
 2108W        W18955  14.385   5.097  11.327  0.0214 -0.1039  0.1648
 2109W        W18956  14.557   8.974  15.658  0.1488  0.2500  0.0417
 2110W        W18957   8.765  13.552  12.479  0.3330  0.2353 -0.1895
 2111W        W18958  10.227   5.909  14.288 -0.1690 -0.2328 -0.2608
 2112W        W18959  17.472   7.634   1.045 -0.1247  0.1326 -0.1732
 2113W        W18960   3.666  10.787   0.532 -0.3792 -0.0221  0.0328
 2114W        W18961  11.789   8.273   0.472 -0.1199  0.1356 -0.0085
 2115W        W18962  13.437   1.180  12.618  0.0473  0.0181 -0.0555
 2116W        W18963  13.031   2.484   1.649  0.1795  0.2969  0.0130
 2117W        W18964   4.957   8.003   3.200  0.0028 -0.0287 -0.4492
 2118W        W18965   4.455   8.291  14.832  0.0555 -0.1918  0.1946
 2119W        W18966  15.901   9.789  11.764  0.1301  0.1107 -0.0619
 2120W        W18967   9.996  14.710  11.824 -0.0223 -0.2694 -0.4106
 2121W        W18968   2.501  10.263   2.099  0.2696 -0.1885 -0.2661
 2122W        W18969   0.520   6.440   3.985 -0.2652  0.0543 -0.1624
 2123W        W18970  17.094  11.307   3.182  0.5717 -0.2989  0.2171
 2124W        W18971   4.324  11.117  13.560 -0.0136  0.2419  0.1155
 2125W        W18972   4.091  12.699   5.594 -0.2979  0.0598  0.4462
 2126W        W18973   5.379   7.852  14.487 -0.0954  0.2006 -0.1693
 2127W        W18974  13.534   2.578   2.460 -0.0484  0.1590 -0.1512
 2128W        W18975   3.250  13.753   3.433  0.1263 -0.0018 -0.0962
 2129W        W18976   1.412   1.950   3.168 -0.2825  0.1413 -0.0919
 2130W        W18977   3.102  10.944  15.394 -0.0191  0.0177 -0.2267
 2131W        W18978   0.777   0.427  12.743  0.0191  0.3288  0.2237
 2132W        W18979  14.355   4.964  15.252  0.2442 -0.1177  0.0283
 2133W        W18980   3.611  10.430   1.584 -0.0421  0.0390 -0.1551
 2134W        W18981   9.266  13.799  16.294  0.0338 -0.0027 -0.0597
 2135W        W18982   2.817   3.370  11.511  0.1014  0.1668 -0.1361
 2136W        W18983   1.578   6.118  14.510 -0.0753 -0.1406  0.0353
 2137W        W18984  14.500   1.512   4.805 -0.0225  0.0937  0.1090
 2138W        W18985   4.384  17.931  14.042  0.1847 -0.1457  0.2780
 2139W        W18986   2.234  15.862  14.693  0.1228 -0.0401 -0.2053
 2140W        W18987  15.401   1.000  15.850  0.0665  0.3347 -0.4273
 2141W        W18988  14.635   8.549   1.749  0.4849  0.0892  0.0460
 2142W        W18989  10.796  15.347   4.314 -0.1800 -0.0532  0.0996
 2143W        W18990   5.349   7.947  13.040 -0.0844  0.0874  0.0181
 2144W        W18991  10.899   9.217  16.150 -0.3301 -0.0577  0.0899
 2145W        W18992  11.656   7.502  11.835  0.0980 -0.0463 -0.2752
 2146W        W18993   2.705   6.037  12.400  0.0187 -0.1244  0.1505
 2147W        W18994   1.860   7.726  15.459 -0.2315 -0.0332 -0.0289
 2148W        W18995  15.862   4.736   5.751  0.1354  0.0631  0.0371
 2149W        W18996   7.050   5.856  16.351  0.2180 -0.0667 -0.1092
 2150W        W18997  16.776  13.286  16.031 -0.0231  0.1489 -0.1652
 2151W        W18998   3.532   0.673   3.169  0.1609  0.0248 -0.2871
 2152W        W18999  17.869   1.525  11.279 -0.0905  0.0148 -0.1584
 2153W        W19000  10.065   1.454   5.426 -0.0400  0.1050 -0.1892
 2154W        W19001  16.704   9.852   0.094  0.2155 -0.3322 -0.2567
 2155W        W19002   8.053  13.976   5.105 -0.1521 -0.1982 -0.2410
 2156W        W19003   9.654   8.778   3.942  0.4236  0.2710 -0.0389
 2157W        W19004  10.192  10.005  12.625  0.2809  0.1052 -0.0068
 2158W        W19005   6.996   3.203   2.676  0.0399  0.1930 -0.1573
 2159W        W19006   1.087   6.190  14.530 -0.1423  0.0141  0.1161
 2160W        W19007  10.963   8.947   3.950  0.1047 -0.1051 -0.1225
 2161W        W19008   7.195  13.692  13.417  0.1302 -0.2572 -0.2738
 2162W        W19009   6.445  15.146  13.656 -0.2451  0.2121  0.0237
 2163W        W19010   8.247  10.074  14.752  0.1544 -0.1887  0.1858
 2164W        W19011  15.569   9.718  12.606 -0.1576 -0.0532  0.1504
 2165W        W19012   6.397  14.752   6.510  0.0539 -0.2282 -0.5719
 2166W        W19013  16.771   7.191   0.478 -0.1490  0.2960 -0.0440
 2167W        W19014   2.612   6.722   0.214 -0.0337 -0.0354 -0.3208
 2168W        W19015   4.116  12.592  12.559  0.0854 -0.1515 -0.3568
 2169W        W19016   5.365  13.412   0.826  0.0779  0.3868 -0.0292
 2170W        W19017  15.456  14.476  14.119 -0.1446  0.1384  0.1395
 2171W        W19018  14.565  10.842  15.316 -0.1645  0.1550 -0.0709
 2172W        W19019   5.084  14.076   4.704 -0.1001 -0.1168 -0.3766
 2173W        W19020   8.417   8.178   3.276  0.1484  0.1412  0.1382
 2174W        W19021  16.554  15.890  16.182  0.0282  0.0116  0.1419
 2175W        W19022   3.558  17.380  13.901 -0.0678  0.2081  0.2078
 2176W        W19023   4.849   9.203  15.940 -0.0921 -0.1330  0.0682
 2177W        W19024   5.056   1.015   2.037 -0.0737 -0.0729  0.1534
 2178W        W19025  17.131  13.612  16.082  0.1498 -0.0670 -0.1475
 2179W        W19026  15.279   2.530   1.834 -0.1535 -0.0571 -0.0084
 2180W        W19027  12.992  10.953  13.591 -0.3921  0.1758 -0.3084
 2181W        W19028   0.135  11.094   5.491  0.1818 -0.0110 -0.2996
 2182W        W19029   8.230   3.626  12.834  0.0775 -0.2103  0.0284
 2183W        W19030   3.275  14.796  15.799  0.0358 -0.2592  0.3518
 2184W        W19031   4.538  13.768  13.188 -0.2398 -0.0458  0.1201
 2185W        W19032  10.217   2.367   4.970 -0.0372 -0.0315 -0.0890
 2186W        W19033   4.186   2.138   1.842 -0.2771 -0.0093  0.3541
 2187W        W19034  10.618   0.520   0.385 -0.0099  0.0613  0.0340
 2188W        W19035   1.888   8.622  12.475 -0.2703 -0.1717 -0.1592
 2189W        W19036  18.153  16.125   1.608  0.1564 -0.1464  0.0700
 2190W        W19037  12.954   6.478  16.408 -0.0396 -0.1495  0.0942
 2191W        W19038  15.083  10.850   2.224  0.0517  0.2519  0.2366
 2192W        W19039  15.770   5.046   1.807 -0.0004 -0.0073  0.2282
 2193W        W19040   7.441   7.901   4.045 -0.1311  0.2039 -0.0196
 2194W        W19041   0.298  14.202  16.621  0.2870 -0.0397 -0.1788
 2195W        W19042   0.822  15.236   4.341  0.0522  0.0724  0.2829
 2196W        W19043  15.410  18.123  14.490  0.0815 -0.1838  0.1321
 2197W        W19044   7.980  10.992   4.931 -0.0208  0.3171  0.0997
 2198W        W19045   6.406  12.185   1.495 -0.1754  0.0736 -0.0370
 2199W        W19046  18.144   1.160  12.567  0.2220  0.0152 -0.2668
 2200W        W19047   3.323  11.516  15.294 -0.0091  0.0949 -0.0399
 2201W        W19048   2.419  12.124  16.122  0.1601 -0.1793 -0.1597
 2202W        W19049  17.002  13.893   1.476  0.0618 -0.0285 -0.1845
 2203W        W19050   7.656  14.570   3.798  0.1326  0.1555  0.1057
 2204W        W19051   3.117   8.434   4.318  0.1342 -0.1525  0.0253
 2205W        W19052   9.163   9.705   2.965  0.2121 -0.0128  0.2866
 2206W        W19053  14.310   8.482   2.158 -0.0092  0.1818  0.0950
 2207W        W19054   8.997   6.014   0.510  0.1164  0.0882  0.0553
 2208W        W19055  13.288  12.473   3.393  0.0121  0.1217  0.1385
 2209W        W19056  12.115  11.584  14.042  0.1328  0.1087  0.2038
 2210W        W19057  15.166  15.925   2.633 -0.1992  0.1523 -0.3689
 2211W        W19058  11.588   9.321   2.265  0.1635  0.1485 -0.0239
 2212W        W19059   8.670  14.922   2.679  0.1136 -0.1094  0.3989
 2213W        W19060  12.124  17.752  15.717 -0.1115  0.0083 -0.0659
 2214W        W19061   9.390   8.987   3.105 -0.1054  0.2622  0.2080
 2215W        W19062  10.941  11.550  14.726  0.2838 -0.2658  0.0197
 2216W        W19063   9.255   6.470   2.797  0.2797 -0.0007 -0.1615
 2217W        W19064   3.237  17.754   1.993  0.1849 -0.0887 -0.0622
 2218W        W19065   8.586   1.301  16.460  0.1591 -0.0492 -0.1329
 2219W        W19066   5.683  17.507  12.492  0.2152 -0.2285 -0.0003
 2220W        W19067   7.091   1.175  13.135  0.1270  0.1047  0.2271
 2221W        W19068  17.612  16.716   1.273  0.0253  0.0178  0.3589
 2222W        W19069   5.470   2.036  11.917 -0.2005 -0.2247  0.2520
 2223W        W19070  17.789  11.298   2.041 -0.1147  0.1340  0.0701
 2224W        W19071  15.419  12.677   1.043  0.1814 -0.4518  0.1561
 2225W        W19072  10.234  13.753  11.308  0.0098  0.0650  0.1962
 2226W        W19073  16.919   2.706   4.522  0.0384  0.0921  0.1287
 2227W        W19074   9.343  10.510  11.766  0.2285  0.0256 -0.1985
 2228W        W19075   8.321  13.128  14.587 -0.2421  0.2785  0.2344
 2229W        W19076   1.133  17.981   1.652 -0.1870 -0.1399  0.1670
 2230W        W19077   6.181  17.626  12.490 -0.1622 -0.0453 -0.0411
 2231W        W19078  11.463  10.866  12.435 -0.0295  0.2575 -0.1378
 2232W        W19079  13.269   2.828   1.152 -0.2786 -0.4095  0.2450
 2233W        W19080   4.643   4.814  16.244  0.0853 -0.0088 -0.1770
 2234W        W19081   9.501   6.580  14.562  0.0654  0.0087  0.1267
 2235W        W19082  14.831  15.908   2.015 -0.0991  0.0711 -0.3776
 2236W        W19083   4.057   2.197   3.188 -0.2454  0.2618  0.3282
 2237W        W19084   4.457  11.502  16.505  0.0937  0.2435 -0.2474
 2238W        W19085   6.466  17.005   1.224 -0.3527 -0.0314  0.2099
 2239W        W19086   6.549   4.589   0.221 -0.1712  0.5287  0.0084
 2240W        W19087   9.553   5.300  12.839  0.1052 -0.0332  0.2940
 2241W        W19088  15.786   6.315   0.937 -0.1322 -0.0535 -0.0260
 2242W        W19089  12.651   8.496   3.282  0.2302  0.1411 -0.1963
 2243W        W19090  12.343   9.032   4.246  0.0644 -0.0302 -0.1130
 2244W        W19091  14.701   1.929  13.687  0.0120 -0.0343  0.1289
 2245W        W19092  17.128  15.861   0.824 -0.3860 -0.3129  0.0148
 2246W        W19093  15.367  12.138  13.681  0.1220 -0.1898  0.1128
 2247W        W19094   8.414  16.263   3.297  0.1251 -0.0044  0.1184
 2248W        W19095  13.773   7.087   0.080 -0.1030  0.1086 -0.0839
 2249W        W19096   7.321  15.257  13.928 -0.2497 -0.0055  0.0199
 2250W        W19097   8.698  10.280   4.474 -0.0100 -0.0480  0.0678
 2251W        W19098   9.707  12.370  14.298  0.0477  0.1852  0.2035
 2252W        W19099  15.043   3.509   5.288  0.1956  0.0916 -0.2622
 2253W        W19100   8.228  14.070  16.516 -0.0487 -0.2426 -0.0673
 2254W        W19101  16.810  17.237  10.369 -0.0427 -0.0690 -0.2102
 2255W        W19102   0.579   3.474  12.078  0.0191 -0.2169 -0.2032
 2256W        W19103  13.973  17.989   1.858 -0.0292 -0.0765 -0.2000
 2257W        W19104   7.484  13.556   1.206  0.0743  0.0380  0.2868
 2258W        W19105   4.747   8.547  14.048 -0.2303  0.1487  0.0048
 2259W        W19106  12.268  13.084  11.282 -0.2559  0.1566  0.0325
 2260W        W19107  14.772   7.582  13.923  0.3088  0.1920  0.0012
 2261W        W19108   4.820  17.365  13.944  0.2012 -0.1852  0.0888
 2262W        W19109  16.336   6.203   0.735  0.1149  0.1768 -0.1043
 2263W        W19110  12.584  11.972  13.394 -0.1067  0.2396  0.0794
 2264W        W19111  12.351   2.877   3.290 -0.1589 -0.0532 -0.0735
 2265W        W19112  16.700  16.512   0.362  0.0507  0.1522 -0.2575
 2266W        W19113   3.602  12.135  11.750 -0.3204 -0.2763  0.2789
 2267W        W19114   5.042  12.084   2.663  0.2435 -0.1886 -0.0805
 2268W        W19115   4.178   3.819   0.688 -0.0012 -0.0483 -0.1058
 2269W        W19116   8.512  15.832   1.602 -0.3886 -0.1647 -0.0691
 2270W        W19117  12.340   5.908  14.577 -0.2688  0.0549 -0.1710
 2271W        W19118   4.512  11.151   0.275  0.2381  0.1566  0.0519
 2272W        W19119   1.767   5.497  13.712  0.0258 -0.2263  0.0536
 2273W        W19120   4.482   2.298  12.003  0.3514 -0.1786 -0.0904
 2274W        W19121   8.503   3.503  14.222 -0.1306  0.1797 -0.0160
 2275W        W19122   6.621   5.350   2.335  0.1580 -0.3336  0.0677
 2276W        W19123   7.563  16.307  16.348  0.3339 -0.3878 -0.1064
 2277W        W19124   8.098   8.195   2.747  0.3055  0.3074  0.1844
 2278W        W19125   5.602   8.809   0.263 -0.2586 -0.2579 -0.0560
 2279W        W19126   8.633  10.178   0.236 -0.0028 -0.3521 -0.3736
 2280W        W19127  18.005  17.119  13.820  0.1003 -0.0595 -0.1664
 2281W        W19128   7.059  10.636   4.491 -0.1119  0.5119 -0.3238
 2282W        W19129  16.834   2.621  14.091 -0.0153  0.3015  0.1054
 2283W        W19130  12.515   8.478  11.273 -0.1818  0.2168 -0.1468
 2284W        W19131  10.833  17.886   4.170 -0.2506  0.3310  0.0272
 2285W        W19132  16.420  17.879   1.306 -0.2072 -0.0972 -0.3437
 2286W        W19133   5.557  16.232   4.093  0.1231  0.2608 -0.1182
 2287W        W19134   0.786   1.813  11.570  0.0550 -0.2671 -0.1644
 2288W        W19135  16.362  10.471   3.784 -0.1703 -0.0026 -0.1186
 2289W        W19136  10.797  14.860   5.179 -0.0505  0.1113  0.0374
 2290W        W19137   8.530   2.378   2.267  0.0686 -0.1665  0.0292
 2291W        W19138   0.507   4.337   3.364  0.1023  0.2018  0.0005
 2292W        W19139   3.541  11.849   1.350 -0.0899  0.3291 -0.0466
 2293W        W19140   7.747  11.309   5.287 -0.0305 -0.3388 -0.0402
 2294W        W19141   5.139  10.218  14.356  0.3585 -0.2207  0.0461
 2295W        W19142  10.896   3.825  11.192  0.4156  0.2188 -0.1655
 2296W        W19143  17.846   4.232   2.156 -0.0544  0.0727 -0.2577
 2297W        W19144   2.690  15.457   4.330  0.0383 -0.2019  0.3000
 2298W        W19145  13.899   3.988   5.897  0.0323 -0.1808 -0.1817
 2299W        W19146   9.923   5.162   4.773  0.0696 -0.5025  0.0292
 2300W        W19147  11.081  12.346  13.904  0.2602 -0.0363 -0.2169
 2301W        W19148  12.910   8.030   2.985  0.1854  0.1964 -0.3245
 2302W        W19149   3.550   0.189  15.343 -0.0741 -0.0798  0.1705
 2303W        W19150  10.438   4.835  11.104  0.0158  0.1163 -0.2900
 2304W        W19151   5.011   0.517   2.157  0.3196 -0.2212 -0.0557
 2305W        W19152  17.995   8.732  15.774  0.2394 -0.3298 -0.0270
 2306W        W19153  10.237   3.105  12.864 -0.0682  0.0744 -0.3315
 2307W        W19154  16.378   7.368   0.043 -0.2332 -0.1336 -0.0682
 2308W        W19155   0.359  15.097  16.274 -0.0953  0.0931  0.2057
 2309W        W19156  17.926   7.388   4.647  0.1538 -0.1077  0.3436
 2310W        W19157   3.293  14.636   3.421  0.2350 -0.0909 -0.0560
 2311W        W19158   4.784  10.368   2.827 -0.5275  0.1862 -0.0726
 2312W        W19159  18.002  10.011  12.761 -0.1235 -0.0185  0.2076
 2313W        W19160   9.878   4.571   1.276  0.1001  0.2403 -0.0108
 2314W        W19161   2.307   8.383  13.389  0.0197  0.1901  0.1855
 2315W        W19162   4.964  11.633   4.998 -0.0434  0.2974 -0.1955
 2316W        W19163   6.157   9.324  13.070 -0.1517  0.0499  0.4076
 2317W        W19164  18.079   5.747  12.925 -0.2027 -0.4397 -0.1426
 2318W        W19165   6.601   8.304   0.980  0.3535  0.0833 -0.0162
 2319W        W19166  16.683   0.954  13.728  0.0277  0.3626 -0.1176
 2320W        W19167  11.892  13.353   3.385 -0.0601 -0.1141  0.0433
 2321W        W19168  17.191   7.704   5.283  0.0652 -0.4106  0.0499
 2322W        W19169  13.797  11.546  16.346 -0.0208 -0.0767 -0.0365
 2323W        W19170  10.227   0.331   2.305  0.0503 -0.1043  0.1133
 2324W        W19171   2.252   0.156  11.297  0.1850 -0.0879  0.1786
 2325W        W19172  14.030   6.614  16.079  0.0437 -0.2072 -0.1433
 2326W        W19173   3.389   1.520  15.605  0.0091 -0.0192  0.2943
 2327W        W19174   7.746   0.864  14.292 -0.3068 -0.1236 -0.1962
 2328W        W19175  11.453   7.641   4.911  0.0702  0.0664 -0.0493
 2329W        W19176   4.257  14.612  12.866  0.0330  0.0484  0.0504
 2330W        W19177   1.291  10.928   0.256  0.0045  0.1472  0.0493
 2331W        W19178  11.855  10.461   0.977 -0.1368 -0.0382 -0.0011
 2332W        W19179  10.692   5.620  13.320  0.0873  0.0972 -0.1939
 2333W        W19180  13.663   6.247   3.165  0.1624  0.2285 -0.1052
 2334W        W19181   0.791   2.632   3.312 -0.1075 -0.2265  0.2306
 2335W        W19182  17.257  12.901  12.056  0.0242 -0.0773 -0.1162
 2336W        W19183   1.964   5.345   1.926 -0.2995  0.3275 -0.0037
 2337W        W19184   2.623  15.541  13.197 -0.1008 -0.0169 -0.0097
 2338W        W19185   1.952   0.513   1.897 -0.0746  0.3348 -0.2239
 2339W        W19186  15.432  12.619   4.242 -0.1659 -0.0549 -0.1830
 2340W        W19187   4.240   4.498   0.326 -0.1859  0.0846 -0.0059
 2341W        W19188  17.730  14.967  14.883 -0.0202 -0.0296 -0.1371
 2342W        W19189  16.064  14.213  11.815 -0.1311 -0.0536 -0.3118
 2343W        W19190   0.679  13.440   0.482  0.2052 -0.2545  0.1345
 2344W        W19191   8.286  16.514   0.881  0.2920  0.0933 -0.0534
 2345W        W19192   6.633   3.435   1.010  0.2952 -0.0231 -0.1077
 2346W        W19193  16.812  13.832   5.294 -0.0650  0.2262  0.1033
 2347W        W19194  15.128   1.295  14.303  0.0607  0.2951 -0.1546
 2348W        W19195   3.181   4.662  12.864  0.0213 -0.2868  0.2318
 2349W        W19196   3.942  14.424   3.105 -0.4599 -0.1025  0.2022
 2350W        W19197  10.258   8.609  12.923 -0.3646 -0.0610  0.3799
 2351W        W19198   1.267   8.397  13.336 -0.0002 -0.3111 -0.0022
 2352W        W19199  17.327   5.149   3.644  0.0321  0.1738  0.0310
 2353W        W19200   7.702   4.188   4.524 -0.0797 -0.3109  0.2992
 2354W        W19201   8.186   7.723  11.939  0.0732 -0.0154 -0.2390
 2355W        W19202   1.711   5.222   0.888  0.2690 -0.4443  0.0804
 2356W        W19203  14.155  16.122  12.943 -0.0559  0.1961  0.1145
 2357W        W19204  16.803   8.759   3.663 -0.1802  0.2041  0.1239
 2358W        W19205   6.558   8.834  16.522 -0.0803 -0.2155  0.2335
 2359W        W19206  14.460  10.271   1.147 -0.1560 -0.0867  0.0025
 2360W        W19207  14.408   3.231   5.200 -0.0621  0.0927 -0.1351
 2361W        W19208   9.326   3.663  12.583  0.2140 -0.1810  0.1158
 2362W        W19209  12.460  17.448   1.603 -0.2361 -0.0094  0.0396
 2363W        W19210  15.068   4.757   3.985 -0.1788  0.0970  0.3264
 2364W        W19211   4.117  12.621   3.624  0.3067  0.0795 -0.1444
 2365W        W19212   9.750  12.156  15.171 -0.1349 -0.0276 -0.1308
 2366W        W19213   0.316   0.501  14.033  0.0608  0.0976 -0.2090
 2367W        W19214   8.917   9.559   1.052  0.2101  0.0538  0.0861
 2368W        W19215  11.739  13.903  13.325  0.1185 -0.1523 -0.1010
 2369W        W19216  14.168   2.872   4.827 -0.0242 -0.0662  0.0158
 2370W        W19217   9.354   6.767  11.194 -0.0676 -0.0532 -0.1886
 2371W        W19218   5.539   0.572   6.022 -0.1086  0.2723  0.0768
 2372W        W19219   3.904  17.557  14.877  0.3627 -0.0368 -0.0405
 2373W        W19220   3.438   0.359  11.259 -0.2383  0.0899  0.2474
 2374W        W19221   2.699  13.675   4.119  0.0061  0.0954 -0.2758
 2375W        W19222   4.939  16.388   4.214  0.0670 -0.3127  0.0308
 2376W        W19223   8.362   9.720  11.086  0.1418 -0.1373 -0.1932
 2377W        W19224   6.380   4.340   0.646  0.0941 -0.3270 -0.5051
 2378W        W19225   5.372   6.146  16.371 -0.0554 -0.0570  0.2361
 2379W        W19226   3.220   8.885   5.018 -0.0350  0.0085  0.2246
 2380W        W19227   7.110   1.905   1.179  0.1817  0.0326 -0.2932
 2381W        W19228  17.130   1.840  15.738  0.2765 -0.0326  0.2135
 2382W        W19229  14.878  13.804   1.202  0.0474  0.1137  0.1641
 2383W        W19230  17.869   4.561  13.670  0.0388  0.0268  0.2024
 2384W        W19231   4.769  14.117   1.071 -0.2049  0.2122 -0.0939
 2385W        W19232   9.132  12.731  11.730 -0.4168 -0.2214  0.2933
 2386W        W19233  12.711  10.327  11.800 -0.1438 -0.1894 -0.3014
 2387W        W19234   9.854   0.090  14.531 -0.2847 -0.0154 -0.0760
 2388W        W19235  16.004   4.078  16.292  0.2706 -0.2451  0.0496
 2389W        W19236   4.491   5.510  13.048 -0.2406  0.1876 -0.0698
 2390W        W19237  13.061  11.217  13.189 -0.0986 -0.5081  0.0384
 2391W        W19238   3.048   7.841   0.573 -0.0338 -0.1825  0.4431
 2392W        W19239   5.870   0.472  16.529  0.0057 -0.0884 -0.1937
 2393W        W19240  12.754  10.593   1.402  0.2067 -0.0498  0.0112
 2394W        W19241  11.915  11.956  12.215  0.1102 -0.0267  0.0093
 2395W        W19242  17.574   6.161  11.597 -0.1831  0.2632  0.1216
 2396W        W19243  12.917   3.930  13.891  0.0716 -0.0228  0.0438
 2397W        W19244   2.149  13.534  12.594 -0.0246  0.1885 -0.3643
 2398W        W19245   1.554   3.094   0.476  0.3060  0.0231  0.1638
 2399W        W19246   9.211   6.834   4.404  0.0194  0.1281  0.1879
 2400W        W19247  13.424   9.476  16.369  0.1427  0.1146  0.2908
 2401W        W19248   7.126   4.451  14.878 -0.4850 -0.0831 -0.0731
 2402W        W19249  15.134   7.360   2.741  0.1269  0.1886 -0.4207
 2403W        W19250   8.478  13.980  15.205 -0.4704 -0.0883  0.0618
 2404W        W19251  18.173  15.283   5.813  0.1107 -0.3489  0.2625
 2405W        W19252   3.123  13.611  12.759  0.3516 -0.2345  0.0174
 2406W        W19253   9.776  17.078  15.007  0.1253  0.0695 -0.0856
 2407W        W19254  11.855  14.121   1.357 -0.1762 -0.0423  0.1387
 2408W        W19255  13.988  10.027  11.671 -0.3461  0.0246  0.4593
 2409W        W19256  12.904   9.977   4.572  0.0825  0.1355  0.3019
 2410W        W19257   1.419   5.204  12.378  0.3513 -0.1056  0.0966
 2411W        W19258  15.068   0.854   3.660 -0.0418 -0.0817 -0.1890
 2412W        W19259  13.393   2.226   1.881  0.1137 -0.1862 -0.1973
 2413W        W19260  16.840   6.229  13.759  0.1276 -0.0418 -0.1706
 2414W        W19261  16.493   7.773  16.229  0.0294  0.1555  0.1571
 2415W        W19262   2.879   4.686  15.229  0.2736  0.1253 -0.0515
 2416W        W19263   6.843  15.008   1.086  0.1409 -0.1838 -0.1041
 2417W        W19264  13.263   3.853  12.197  0.0709  0.1532  0.1272
 2418W        W19265   4.387   9.149  11.825 -0.1152 -0.3673  0.0345
 2419W        W19266   0.711   2.216  16.312  0.0274 -0.2204  0.1231
 2420W        W19267   5.983   2.331   1.076  0.2207  0.4346 -0.1144
 2421W        W19268  15.548   8.797   2.999  0.0640  0.2514 -0.1678
 2422W        W19269   2.874   4.664  13.480 -0.1279 -0.1249  0.1622
 2423W        W19270  17.111   5.951  13.424  0.3259 -0.0025  0.1608
 2424W        W19271  16.781  14.018  15.401 -0.3654  0.0946 -0.1738
 2425W        W19272   0.093  14.257  12.782 -0.2328 -0.0894  0.0045
 2426W        W19273  10.345   2.681   0.791  0.1737  0.0313  0.2409
 2427W        W19274   7.177  13.696  10.563 -0.1266 -0.3652  0.2267
 2428W        W19275   9.566  14.288  14.072  0.0137  0.2909  0.0603
 2429W        W19276  12.431  16.259   0.033 -0.2543 -0.0246 -0.1521
 2430W        W19277  11.348   9.025  12.577 -0.1686 -0.0929 -0.2270
 2431W        W19278  13.794   9.704  16.050 -0.0720  0.0180  0.0882
 2432W        W19279   2.417   3.542   0.212 -0.2327 -0.0777  0.0647
 2433W        W19280   9.709   0.804   0.010 -0.0441 -0.0647 -0.2013
 2434W        W19281   6.399   9.188   3.816 -0.1652  0.2740  0.3690
 2435W        W19282   3.270  11.505   4.586 -0.1026 -0.0666 -0.1672
 2436W        W19283  15.144   2.438   2.301  0.3512 -0.0709 -0.4119
 2437W        W19284   7.437   2.712  16.538 -0.4021 -0.0730  0.0010
 2438W        W19285   6.440  14.651  13.438 -0.3205 -0.1185  0.0955
 2439W        W19286   0.654  16.462   3.276  0.1390  0.0674 -0.3380
 2440W        W19287   3.968  16.471  15.086 -0.2082  0.1749 -0.0675
 2441W        W19288   3.253   9.046  13.441 -0.0739 -0.1108  0.0736
 2442W        W19289  11.813  16.470  12.830  0.1760  0.3676 -0.0167
 2443W        W19290   6.535  13.243  16.389  0.1251 -0.0028 -0.0393
 2444W        W19291   0.395  13.654   1.905 -0.1717 -0.1734  0.0740
 2445W        W19292   3.693   7.545   1.051 -0.1076 -0.2974  0.2216
 2446W        W19293   3.662   6.290  13.523 -0.2951 -0.2830  0.2085
 2447W        W19294  11.560  12.887   3.368  0.1578  0.0293  0.0671
 2448W        W19295   4.555  11.664   3.525  0.2785  0.0400  0.2442
 2449W        W19296  13.589   5.374  11.440  0.2455 -0.2091  0.1945
 2450W        W19297  16.387   3.892   0.461 -0.0370  0.1894  0.5521
 2451W        W19298   2.251   9.610  12.749  0.1279 -0.1701 -0.1786
 2452W        W19299  17.023  10.188   0.545 -0.0097  0.0824 -0.0372
 2453W        W19300  16.735  14.966  11.392  0.0672 -0.0192 -0.0833
 2454W        W19301   8.804   6.906   2.749 -0.0369 -0.1616  0.2659
 2455W        W19302   9.109   9.551   1.586  0.0902 -0.0053  0.2707
 2456W        W19303   5.878  18.076   0.781 -0.1663 -0.0441 -0.3226
 2457W        W19304   9.439  10.419  10.737  0.0081  0.0952  0.2315
 2458W        W19305   1.590  15.867   5.663 -0.1213  0.3301 -0.1573
 2459W        W19306  15.249   8.975  14.928  0.0264  0.0125  0.0277
 2460W        W19307  11.257   6.074  13.185  0.0013 -0.3617  0.1984
 2461W        W19308   8.681  10.457   3.119  0.0899 -0.1555  0.0719
 2462W        W19309   1.040   0.082   3.823 -0.0104  0.0194 -0.0172
 2463W        W19310   4.853   0.751   4.939 -0.1206  0.0405 -0.0923
 2464W        W19311  15.505  17.763   2.703  0.1302  0.0904  0.2357
 2465W        W19312   1.323   2.874  14.023 -0.0718 -0.2445  0.0987
 2466W        W19313  13.736  10.096  14.818 -0.2693  0.2629 -0.2761
 2467W        W19314  17.823  11.956  11.833  0.1311 -0.3653  0.1050
 2468W        W19315   9.979   3.020  13.746  0.2548  0.0544 -0.2600
 2469W        W19316  13.023  14.042  15.993 -0.2704  0.1204 -0.2893
 2470W        W19317   3.592   1.766   2.362 -0.1099  0.2073 -0.1565
 2471W        W19318   7.985   2.619  13.782  0.1864  0.0967 -0.1804
 2472W        W19319   6.350   4.490  14.180 -0.2587  0.1752 -0.0691
 2473W        W19320  13.929   4.774  13.925 -0.1142  0.3966  0.0268
 2474W        W19321   6.162   9.116   5.910  0.1601  0.1160 -0.0926
 2475W        W19322  17.716  12.326   1.678  0.1143 -0.1242 -0.0277
 2476W        W19323  15.080  13.025   2.904 -0.3230  0.1582 -0.1904
 2477W        W19324  15.980   3.935   2.318 -0.2234 -0.0523 -0.0211
 2478W        W19325   7.868   9.987  12.184 -0.0310 -0.0314  0.0837
 2479W        W19326  18.073   8.887   1.610  0.1668 -0.0259 -0.1050
 2480W        W19327  12.115   2.076  12.854 -0.0375 -0.2263  0.0745
 2481W        W19328   0.962  10.882   5.260  0.0657 -0.0863 -0.1777
 2482W        W19329   8.418   4.778  12.240 -0.0441  0.1018 -0.1382
 2483W        W19330  10.183   6.560  12.443 -0.3199  0.2662  0.1586
 2484W        W19331   2.943   4.708   4.942  0.1975  0.0534  0.0350
 2485W        W19332  14.858   5.634   1.068 -0.1054 -0.1622  0.2632
 2486W        W19333   5.711   5.682   4.694  0.1015 -0.0903 -0.1254
 2487W        W19334   6.629   5.131  16.236  0.0466 -0.1681 -0.0351
 2488W        W19335   3.371   1.452   2.044 -0.1122 -0.0835 -0.0555
 2489W        W19336  14.365   1.191   3.504 -0.0466 -0.1373 -0.3784
 2490W        W19337   4.795   6.423   5.331 -0.0217 -0.1145  0.3471
 2491W        W19338   9.674   2.296  16.085  0.1753  0.1510 -0.1148
 2492W        W19339   4.099  10.550   5.504 -0.1206 -0.1519 -0.0127
 2493W        W19340   0.850  12.390  14.047 -0.0391 -0.0419  0.0460
 2494W        W19341  16.744  17.433  15.761 -0.1321 -0.1429 -0.0604
 2495W        W19342   5.927  12.851  13.551  0.1175  0.0057  0.1109
 2496W        W19343  13.894   9.273   3.636  0.4302 -0.3532 -0.1180
 2497W        W19344   2.828  15.885   4.854 -0.0838  0.1683 -0.1681
 2498W        W19345  15.967  14.590   0.611 -0.1176  0.2268  0.0660
 2499W        W19346   7.850   9.152  13.748  0.0336 -0.1296 -0.1595
 2500W        W19347  11.884  12.342  14.411 -0.3135  0.0236 -0.2618
 2501W        W19348  10.298   4.166  12.958 -0.3400  0.0986  0.1289
 2502W        W19349   0.664  16.326  13.894 -0.0383  0.0593  0.1474
 2503W        W19350  17.565   0.171   5.443  0.1398 -0.3240  0.3716
 2504W        W19351   8.518  11.680  15.674  0.0466 -0.0662 -0.2462
 2505W        W19352   5.803   0.765   4.248  0.1225  0.0634 -0.2244
 2506W        W19353  13.623  10.957  12.513 -0.0300  0.1097 -0.0458
 2507W        W19354   8.961   5.577  11.760  0.3861 -0.0601  0.1621
 2508W        W19355  12.065   3.084   3.639 -0.0741  0.0933 -0.1894
 2509W        W19356   0.865   3.440  12.508 -0.2221 -0.1567 -0.0217
 2510W        W19357   5.779  11.506  12.641  0.0026 -0.0437 -0.0784
 2511W        W19358  14.153  10.942  14.570 -0.0375 -0.2187  0.0764
 2512W        W19359  13.778  13.913  14.790 -0.0571  0.0887 -0.0185
 2513W        W19360  13.538  10.224  15.235 -0.0714  0.0838  0.1165
 2514W        W19361  11.116   9.045   0.463  0.2201 -0.1887 -0.0480
 2515W        W19362   5.156  11.132   3.188  0.3598 -0.2820 -0.2319
 2516W        W19363  17.485   9.496  14.077  0.2203  0.1562  0.0757
 2517W        W19364   4.450   3.041   5.471 -0.1331 -0.1612  0.1097
 2518W        W19365   5.011   6.698  13.598 -0.0659  0.1974 -0.0605
 2519W        W19366   8.424  10.813  14.255 -0.3379 -0.0695  0.2786
 2520W        W19367   3.183   2.110   5.356  0.1052 -0.0696  0.0134
 2521W        W19368   2.074   2.400  16.603 -0.0329  0.2743  0.3132
 2522W        W19369   5.115   7.209   2.939  0.2292  0.0071 -0.0537
 2523W        W19370  11.071  16.641  15.759  0.0953  0.0795 -0.0756
 2524W        W19371  16.451  15.384  12.764  0.4118 -0.2296 -0.1479
 2525W        W19372   8.254   2.448   2.689 -0.1338  0.2787 -0.0591
 2526W        W19373   5.814  17.871  14.576  0.0479  0.5573 -0.0104
 2527W        W19374   0.644  15.817   0.198  0.0222  0.1427 -0.1814
 2528W        W19375   9.438   9.104  14.103 -0.2005  0.1462  0.1594
 2529W        W19376   2.110   9.880   5.994  0.1914  0.1705 -0.0322
 2530W        W19377  12.422   8.158   5.086  0.3071 -0.0688 -0.1116
 2531W        W19378  15.105   4.225   0.642  0.0289  0.1108  0.3993
 2532W        W19379   5.429  11.785   4.864 -0.0495  0.2019  0.0637
 2533W        W19380   1.221   1.211   1.685  0.0413  0.0682 -0.0306
 2534W        W19381  15.815   4.896   0.132 -0.0936 -0.1878  0.0447
 2535W        W19382  11.603   0.295   3.546 -0.0459 -0.0547  0.0456
 2536W        W19383   5.028   2.557  14.601 -0.3039 -0.1064  0.3669
 2537W        W19384  14.001  18.052   4.897 -0.0654 -0.0940 -0.1349
 2538W        W19385  13.864  17.392  12.369 -0.1186 -0.0088  0.0158
 2539W        W19386  11.526   4.197  13.599 -0.0290 -0.0132 -0.1479
 2540W        W19387  17.581  11.822   2.353 -0.1804  0.2704 -0.0377
 2541W        W19388   4.402   1.460  13.055 -0.0456 -0.0119 -0.1685
 2542W        W19389  15.722   9.219  14.960  0.1155 -0.1587  0.0676
 2543W        W19390  16.086   1.115  11.594  0.1843  0.0664  0.0048
 2544W        W19391   5.368  13.333  13.835 -0.0433  0.2196  0.0869
 2545W        W19392  16.501   7.318  11.908 -0.1374 -0.0224 -0.1002
 2546W        W19393   0.592   4.458  12.105 -0.2222 -0.2258 -0.0855
 2547W        W19394   4.459  17.896   3.497  0.1201  0.2845  0.1395
 2548W        W19395  13.413  15.182   4.583  0.1995  0.0645 -0.2865
 2549W        W19396   8.895  10.817   3.906 -0.1381 -0.2609  0.1107
 2550W        W19397   7.399   8.766   2.610 -0.1989 -0.1148 -0.3082
 2551W        W19398   8.994  14.643  13.931  0.2377  0.2498 -0.0853
 2552W        W19399   5.344  12.767  13.960  0.0738 -0.0568  0.2339
 2553W        W19400   2.573   4.026   0.587  0.2135 -0.2775 -0.0998
 2554W        W19401  11.876  14.787  15.917 -0.2058 -0.2360  0.1432
 2555W        W19402  16.741  10.934  12.521 -0.2189  0.0172 -0.0000
 2556W        W19403   0.624  11.696  11.822 -0.1144 -0.0622  0.0109
 2557W        W19404  13.403  16.411  15.302  0.0162  0.0016  0.0357
 2558W        W19405  14.064   6.930  15.632 -0.0517 -0.0867  0.1334
 2559W        W19406  11.778  12.624   4.411 -0.2194  0.0222  0.1121
 2560W        W19407   0.109   9.793  15.801 -0.1670  0.0587  0.1132
 2561W        W19408   1.520  17.930  12.878 -0.0374 -0.2021  0.0610
 2562W        W19409   2.271   6.911   5.673  0.0495 -0.3042 -0.1419
 2563W        W19410   3.310   4.349   1.345  0.0502 -0.3262 -0.2285
 2564W        W19411   8.763  10.658   2.158 -0.1892  0.1573 -0.1156
 2565W        W19412  11.246  17.435   1.148  0.1001 -0.0711  0.1784
 2566W        W19413   1.080   8.646   5.572  0.1733 -0.1189 -0.1893
 2567W        W19414   8.290   4.884  14.573 -0.0174  0.0919 -0.3879
 2568W        W19415  11.885  11.184  12.582  0.1218 -0.3714 -0.0025
 2569W        W19416  11.518   8.004   2.641 -0.2102 -0.4390 -0.3037
 2570W        W19417  10.448  17.426  12.136  0.1317 -0.1937  0.1356
 2571W        W19418   3.428  17.644  11.762  0.0166  0.5053  0.1749
 2572W        W19419  16.349   7.573   4.208 -0.1484  0.4055 -0.0646
 2573W        W19420  10.948   5.110   0.179  0.2496  0.0492  0.0239
 2574W        W19421  12.004   3.003  12.937  0.1921 -0.0151 -0.0228
 2575W        W19422  10.302  17.076  12.870 -0.1288  0.0454  0.2884
 2576W        W19423   9.300   4.386  13.055 -0.0277 -0.1110 -0.0874
 2577W        W19424  13.373   8.518   5.057 -0.0142 -0.0545  0.2348
 2578W        W19425   4.494  17.599  12.497 -0.0765 -0.0780  0.1533
 2579W        W19426   5.256  15.225  12.047  0.0745  0.1253  0.0437
 2580W        W19427  12.269   1.671   2.401 -0.0366 -0.0696  0.2324
 2581W        W19428   2.103  11.958   2.702  0.0963 -0.6071 -0.0022
 2582W        W19429  13.578  11.157   5.963  0.0030  0.1938 -0.4066
 2583W        W19430   7.426   2.903   3.754 -0.3837 -0.1290  0.2461
 2584W        W19431  16.738  16.407  11.939  0.1321 -0.0122  0.2179
 2585W        W19432   1.054   2.343  12.654  0.1857  0.2514 -0.1944
 2586W        W19433   2.645   9.822  14.207 -0.2019  0.0737 -0.0550
 2587W        W19434   7.047  11.956   0.860 -0.0464  0.0417 -0.0440
 2588W        W19435  14.684  14.372   0.554  0.1936 -0.0304  0.0133
 2589W        W19436  16.333  15.526  14.492 -0.3250 -0.3561  0.1339
 2590W        W19437  14.573   7.663  15.880 -0.1409  0.0743  0.1982
 2591W        W19438   9.340   1.402  14.223 -0.2824  0.0194 -0.2924
 2592W        W19439   9.339  11.342   1.368 -0.2781  0.0023 -0.2132
 2593W        W19440   1.110   3.625  12.003  0.2947 -0.0993 -0.3696
 2594W        W19441  11.733   9.437   2.723  0.0544 -0.1945 -0.0060
 2595W        W19442   7.207   3.245   0.255  0.1493 -0.0849  0.0543
 2596W        W19443  17.404  12.564   5.462  0.1354  0.0743  0.0149
 2597W        W19444   3.349   2.466   3.857 -0.0391  0.1523 -0.2811
 2598W        W19445   5.502   2.040  12.433  0.2401 -0.0453 -0.0572
 2599W        W19446  15.306   1.837   4.599  0.0203  0.2115 -0.0841
 2600W        W19447  12.079   1.103  16.132  0.3972 -0.1285  0.0331
 2601W        W19448  16.860   7.286  14.798  0.0913 -0.0097  0.2984
 2602W        W19449   7.541  17.193  11.835 -0.3731 -0.2385 -0.4227
 2603W        W19450  11.768  14.382  13.769  0.1445 -0.0649  0.1109
 2604W        W19451  16.420   2.401  15.383  0.2473 -0.1121  0.0522
 2605W        W19452   9.512   7.515   3.072 -0.4063 -0.0927  0.0190
 2606W        W19453  13.366   6.206   4.992 -0.0383  0.1108 -0.1210
 2607W        W19454  11.357  12.571  11.482  0.3738  0.0995  0.0209
 2608W        W19455  17.099  10.338   1.208 -0.1008  0.1319  0.0123
 2609W        W19456   9.263  10.109   5.930  0.0277  0.4468  0.1507
 2610W        W19457  10.093   5.417   0.164  0.1454 -0.0754 -0.0146
 2611W        W19458   2.828   5.903   1.792 -0.0493 -0.0584  0.0629
 2612W        W19459  10.412   5.347  11.487  0.0246 -0.1017  0.0194
 2613W        W19460  11.210   7.738  16.244  0.0757  0.0600  0.0953
 2614W        W19461   3.251   3.393  15.691 -0.1982 -0.1659  0.1648
 2615W        W19462  12.906  17.782  16.378 -0.1006  0.1788  0.1740
 2616W        W19463  17.050   8.832   2.759  0.0854  0.2639  0.4181
 2617W        W19464   3.149  14.765  15.325  0.0470  0.1595 -0.2747
 2618W        W19465   6.006  17.050  13.009  0.0325 -0.1199 -0.1741
 2619W        W19466  10.538  16.340  11.422 -0.1340 -0.4312 -0.0307
 2620W        W19467   8.696  10.029  12.285 -0.2438 -0.3876  0.0067
 2621W        W19468   9.338   6.111  12.869 -0.0424 -0.0766  0.2612
 2622W        W19469  14.547   0.743  16.333 -0.0306 -0.1346 -0.0500
 2623W        W19470  11.154  17.579  13.988 -0.1013  0.1745  0.1429
 2624W        W19471   6.720  11.336   3.752  0.1969 -0.2827  0.1020
 2625W        W19472   5.212   2.261   4.985  0.1752 -0.0690 -0.0092
 2626W        W19473  10.672  12.330   1.978 -0.0434 -0.2089 -0.1880
 2627W        W19474   1.974  15.886  15.175 -0.3504 -0.3346  0.0125
 2628W        W19475  12.956   7.161  12.267  0.1958 -0.1569  0.2816
 2629W        W19476   4.954  18.165   3.387 -0.0192 -0.2280 -0.1705
 2630W        W19477   6.755   2.017   5.041  0.2061  0.2843 -0.1444
 2631W        W19478   1.498  15.357   0.118  0.3160  0.1181  0.2147
 2632W        W19479  14.068  16.346  12.393  0.3225 -0.0169 -0.4799
 2633W        W19480  17.160   5.206  15.747  0.0193 -0.0482  0.1017
 2634W        W19481  11.309   0.855  16.053  0.1238 -0.1983 -0.0113
 2635W        W19482  11.046   8.630   0.162 -0.1347 -0.0682  0.1171
 2636W        W19483   2.661  17.747   0.779  0.3886 -0.3223 -0.1803
 2637W        W19484  14.100   8.127  15.479  0.1300 -0.0408 -0.1431
 2638W        W19485   8.877   7.671   5.361  0.0086 -0.0241 -0.0189
 2639W        W19486   7.892   0.101  16.119  0.1606 -0.1599 -0.2460
 2640W        W19487  13.778   0.283   5.287  0.1230  0.0005  0.1613
 2641W        W19488  11.429  14.791   4.672  0.2968  0.2236  0.2854
 2642W        W19489   6.433   2.371   3.570 -0.1078 -0.0559 -0.1713
 2643W        W19490   9.974   0.490  14.255  0.0287 -0.1518  0.0206
 2644W        W19491  12.357   4.745   3.657  0.1629 -0.0145 -0.1004
 2645W        W19492  13.372   9.668   0.748 -0.1917 -0.2509 -0.3338
 2646W        W19493   9.082  10.087  11.901 -0.0238  0.0411  0.0299
 2647W        W19494   0.060  14.537   4.028 -0.2181  0.2204 -0.2338
 2648W        W19495   4.937   3.044   5.303  0.0270  0.3842 -0.0596
 2649W        W19496  18.152   8.134   1.886 -0.1764  0.1098 -0.0430
 2650W        W19497  15.663   7.470   4.526 -0.0304  0.1578 -0.0079
 2651W        W19498   5.791   6.725  12.509 -0.5822  0.1127 -0.1368
 2652W        W19499   7.398   5.687   1.146 -0.1238 -0.2100  0.1925
 2653W        W19500   9.668   0.210   0.752 -0.2652  0.0849 -0.0588
 2654W        W19501   3.700  15.072  15.997  0.0342  0.0854 -0.0711
 2655W        W19502  16.195   7.174   1.187  0.1327 -0.1254 -0.0878
 2656W        W19503  15.455   3.225   4.036 -0.3029  0.1758  0.0687
 2657W        W19504  13.785   7.387   1.308  0.2413 -0.1789  0.1320
 2658W        W19505  17.574  11.524  11.952  0.0993 -0.1014  0.1149
 2659W        W19506  17.792  12.006  16.193 -0.2377  0.0027  0.3403
 2660W        W19507   3.277  14.582  13.820  0.6079  0.1774  0.1936
 2661W        W19508   9.990   2.677  11.977 -0.3100  0.2454 -0.2165
 2662W        W19509   6.168   8.752  15.570  0.2175  0.0778  0.1449
 2663W        W19510   6.179   8.057   5.167 -0.2245  0.2009 -0.1304
 2664W        W19511   0.557  15.285  15.833 -0.0942 -0.1586 -0.3157
 2665W        W19512  10.307   4.145  15.210 -0.1276 -0.1038  0.2434
 2666W        W19513  17.653  15.370  13.727 -0.0920 -0.2860  0.2142
 2667W        W19514   5.336   8.180   2.362  0.0780  0.0215  0.0178
 2668W        W19515   2.938   2.418  16.604  0.2278 -0.2078 -0.0262
 2669W        W19516  17.484  16.411  13.554  0.1096 -0.0094 -0.1267
 2670W        W19517   4.006   0.393  15.086 -0.0415  0.1564 -0.0899
 2671W        W19518   8.797   8.493   4.154  0.3803  0.0336  0.0139
 2672W        W19519   5.825   9.225   0.138 -0.0738  0.1783 -0.2356
 2673W        W19520   8.871  14.141   2.123 -0.0693  0.2848  0.0262
 2674W        W19521   2.015   3.515  16.122  0.0630 -0.1009  0.3116
 2675W        W19522   8.272   3.529   3.693  0.1006  0.4156 -0.0886
 2676W        W19523   0.180  16.573   4.298 -0.1555 -0.0010 -0.0142
 2677W        W19524   9.355  13.463   3.470 -0.1356  0.5041 -0.0795
 2678W        W19525   6.562  15.588   4.828 -0.3104  0.2120 -0.0989
 2679W        W19526   6.041   3.506   4.583 -0.1156  0.0005  0.0601
 2680W        W19527  15.585  14.419   4.239 -0.0207  0.1093  0.0081
 2681W        W19528  11.301   7.288   5.290  0.0716 -0.0539  0.2018
 2682W        W19529   6.386  15.863  16.282 -0.4212  0.0537 -0.1087
 2683W        W19530  16.795   6.377   1.540 -0.0957 -0.1583  0.1676
 2684W        W19531   6.794  12.667   2.930 -0.1919 -0.1616 -0.1242
 2685W        W19532  14.880  16.015  16.327  0.0601 -0.0361 -0.0942
 2686W        W19533   2.953   0.060  11.816 -0.1393 -0.1938 -0.0610
 2687W        W19534  13.153  16.330   1.324 -0.0424  0.0862 -0.0810
 2688W        W19535  15.334   2.976  11.968 -0.3143  0.1392  0.0748
 2689W        W19536   9.687  16.227  11.738  0.0042 -0.1989  0.3012
 2690W        W19537  13.316   9.286   1.092  0.1339  0.1025  0.1385
 2691W        W19538  15.028  13.141  12.410  0.0692 -0.0645 -0.3578
 2692W        W19539  16.188   4.852   3.125  0.1243  0.1183  0.1299
 2693W        W19540   8.067   5.165   2.612  0.2427 -0.0202  0.0273
 2694W        W19541  14.343  16.732  11.706 -0.0575 -0.3613  0.0159
 2695W        W19542   3.014   8.307   1.170 -0.0839 -0.1943  0.0863
 2696W        W19543  11.344  17.669   4.209  0.1027  0.2347 -0.0234
 2697W        W19544  16.694   4.046  14.837  0.0580  0.0423  0.1719
 2698W        W19545  16.929   9.170  12.657  0.2164  0.3803 -0.0373
 2699W        W19546  16.877   3.541   5.708  0.0959  0.1733 -0.1442
 2700W        W19547   8.243  17.581  11.573 -0.3556  0.2482 -0.2606
 2701W        W19548   2.807  10.510  13.126 -0.0077  0.3263 -0.0932
 2702W        W19549  16.894   8.221  11.624  0.2407 -0.0264 -0.0423
 2703W        W19550  15.442   9.880  13.190 -0.3946  0.0977  0.0174
 2704W        W19551  16.251  11.830   4.083 -0.0171  0.0529  0.0664
 2705W        W19552  16.345   8.882  11.531 -0.0667  0.4261 -0.0295
 2706W        W19553   0.351   9.460   0.024  0.0535  0.1136  0.0437
 2707W        W19554   1.677   9.022   2.676  0.0043 -0.0924 -0.2176
 2708W        W19555   8.907   8.147   3.074 -0.1300  0.2110 -0.0066
 2709W        W19556   3.553  15.588  14.810 -0.2419  0.1316  0.0543
 2710W        W19557   3.473   5.511   1.772 -0.0986 -0.0375 -0.1534
 2711W        W19558   3.736   3.143   2.602  0.2130  0.0267  0.0574
 2712W        W19559  17.046  16.244   0.031 -0.0423 -0.2315 -0.1789
 2713W        W19560   1.854   8.511  14.893  0.0397  0.2373 -0.0600
 2714W        W19561   9.382   8.002   3.058  0.0963 -0.0123 -0.1110
 2715W        W19562  17.448   3.706  12.901  0.0001 -0.0141  0.2415
 2716W        W19563   5.552  12.422   3.550 -0.3146 -0.2296  0.1265
 2717W        W19564   0.797   8.221   5.349 -0.1364 -0.1789  0.1191
 2718W        W19565   9.857   1.829  14.886 -0.1891 -0.1413 -0.3840
 2719W        W19566  12.225   6.495   1.742  0.1680  0.1300 -0.1329
 2720W        W19567   5.753   7.793   0.527 -0.2628 -0.3007  0.1797
 2721W        W19568   1.726   1.903   0.728  0.5206 -0.0015  0.0765
 2722W        W19569   9.224  14.859  16.346 -0.1031 -0.0827  0.1108
 2723W        W19570   8.432   3.254  15.681 -0.1975 -0.0152  0.1083
 2724W        W19571   4.522  17.805  12.975 -0.1444 -0.1606  0.0789
 2725W        W19572  12.291   9.501  13.031  0.2675 -0.1159 -0.0593
 2726W        W19573   0.892   9.372  13.904 -0.2451  0.4304  0.0908
 2727W        W19574  11.585  12.099  16.236  0.0919  0.4958 -0.0549
 2728W        W19575   1.315  13.043   1.043 -0.0571 -0.0524  0.0189
 2729W        W19576   6.662  11.801   3.941  0.2243  0.4208 -0.2575
 2730W        W19577  14.357  17.596  12.184  0.0340  0.0636  0.3230
 2731W        W19578  13.784   4.005   2.222  0.0247  0.0073 -0.3750
 2732W        W19579  17.870  12.890   1.788  0.0330 -0.1698  0.3715
 2733W        W19580  10.766  13.452   2.013 -0.0982  0.0551  0.2230
 2734W        W19581   1.990  17.500  12.181  0.1226  0.1301  0.1763
 2735W        W19582   1.611  17.196  16.135 -0.2033  0.1646 -0.1223
 2736W        W19583   8.942   7.358   3.263 -0.3435 -0.0412 -0.2799
 2737W        W19584  16.179  16.470   5.210  0.0059  0.0720 -0.0361
 2738W        W19585  16.150   0.615   1.836 -0.0854  0.0179  0.2149
 2739W        W19586   2.215  18.020   5.504  0.0771  0.2481 -0.0061
 2740W        W19587  13.441   0.950   5.745  0.4789  0.1606 -0.0207
 2741W        W19588   6.987  10.848   1.863 -0.3055  0.0182 -0.0092
 2742W        W19589   0.807   6.918  16.212  0.1533  0.2124 -0.0454
 2743W        W19590  11.600  11.594  13.102  0.1099 -0.0008 -0.2367
 2744W        W19591   8.137   9.110   4.475  0.1830 -0.3380  0.0236
 2745W        W19592   9.998  11.215  14.886 -0.1331  0.1497 -0.1750
 2746W        W19593  12.766   9.335   2.898  0.0851  0.2112 -0.2096
 2747W        W19594  14.072   7.388  11.576 -0.1600 -0.1645  0.0253
 2748W        W19595  12.702  15.228   0.635  0.3393  0.0694 -0.1917
 2749W        W19596   4.650   6.845   5.042  0.1079  0.1050  0.0020
 2750W        W19597  15.848   2.027   3.345  0.1220 -0.1980  0.4251
 2751W        W19598   8.596   9.569   3.398 -0.1810  0.2667 -0.0895
 2752W        W19599  13.361  15.283   1.334 -0.3541  0.3094  0.0936
 2753W        W19600   1.040   1.127  14.540  0.1084 -0.2961 -0.1347
 2754W        W19601   9.860  16.757   5.862 -0.3206  0.0993  0.1069
 2755W        W19602   2.302  15.035   0.420 -0.2383  0.2667  0.0450
 2756W        W19603   9.320  13.742  11.726  0.0172  0.0682  0.2195
 2757W        W19604   0.660   7.683  15.600 -0.1696  0.2138  0.0763
 2758W        W19605   5.470  12.447   2.377 -0.3043  0.2197  0.3575
 2759W        W19606   6.611   8.060  12.972 -0.0520  0.2108  0.2523
 2760W        W19607  12.655  14.480   4.429 -0.2356  0.1571  0.1299
 2761W        W19608  13.421  13.294   0.426 -0.1129  0.4094 -0.0021
 2762W        W19609   1.203  10.491  16.278 -0.2756 -0.1702 -0.0312
 2763W        W19610  15.123   3.054  15.540  0.1066 -0.1698  0.0622
 2764W        W19611  10.628  17.010  14.443 -0.0419  0.0597  0.1359
 2765W        W19612   0.341   2.306  14.351  0.1837 -0.0996 -0.0035
 2766W        W19613  11.301  17.081  12.347  0.0366 -0.3816 -0.0974
 2767W        W19614  13.586  16.418   1.692 -0.1059 -0.2245  0.0574
 2768W        W19615  10.718  10.812   1.749  0.2233  0.0821 -0.1351
 2769W        W19616   6.073   2.938   4.657  0.2926  0.0441 -0.0944
 2770W        W19617  10.519   4.229   1.690  0.0878 -0.0317 -0.0640
 2771W        W19618   4.079   4.558  13.414  0.1263  0.0245 -0.3874
 2772W        W19619   1.517   1.850  16.378 -0.2066  0.0872 -0.0674
 2773W        W19620  14.416  12.774   5.946 -0.0913 -0.0151  0.1531
 2774W        W19621   1.395   8.950   0.634  0.2293  0.1497 -0.0403
 2775W        W19622  15.661   1.443   0.271 -0.0343  0.1753 -0.0189
 2776W        W19623  16.914   0.364   1.404  0.0289  0.1381  0.1598
 2777W        W19624   5.544  11.032  14.032 -0.2662 -0.0239 -0.0132
 2778W        W19625   6.298  14.075   5.253  0.0785  0.1274 -0.1583
 2779W        W19626   0.368  12.357  13.942  0.2320  0.1114 -0.0128
 2780W        W19627  13.349  17.875   0.236  0.0977 -0.2922 -0.0591
 2781W        W19628   2.443  16.317   2.574 -0.0543 -0.1248  0.1163
 2782W        W19629   5.606   2.864   5.394  0.1508  0.3762 -0.1428
 2783W        W19630  13.568   9.774   2.323 -0.0478 -0.1277  0.0207
 2784W        W19631   0.927  17.262   2.536  0.0356 -0.0549  0.2785
 2785W        W19632  16.511   4.926  11.744 -0.4594 -0.1721 -0.1205
 2786W        W19633  15.945  13.665   5.316  0.3571 -0.0812  0.0130
 2787W        W19634  14.811   7.208   1.094  0.0504  0.1116 -0.4227
 2788W        W19635  15.099   0.700   5.307 -0.1108 -0.0657 -0.0838
 2789W        W19636   8.229  10.075  15.596 -0.1870  0.1850  0.0387
 2790W        W19637   0.438  13.862   5.631  0.1433 -0.0287  0.0535
 2791W        W19638   9.846   1.736  16.303 -0.0768  0.0493  0.0826
 2792W        W19639   0.524   0.345  11.414  0.1565 -0.2062  0.2200
 2793W        W19640  12.541   4.108   5.265  0.0456  0.1935  0.0508
 2794W        W19641   2.614   7.450  13.471 -0.1546 -0.0086  0.0723
 2795W        W19642   2.883  16.656   3.423  0.0147  0.4240  0.2134
 2796W        W19643   5.272  10.032   0.352 -0.0261  0.0380 -0.1852
 2797W        W19644  11.814   5.830  12.611  0.0294 -0.1779 -0.2413
 2798W        W19645   1.638  10.748  14.381  0.0362 -0.2519  0.0149
 2799W        W19646  13.981  10.484   1.862  0.0227  0.0550 -0.1879
 2800W        W19647   1.721   6.131  15.620 -0.2832 -0.0649 -0.1780
 2801W        W19648   2.081   8.446   5.382  0.4172 -0.0202  0.2892
 2802W        W19649  11.449   0.259   5.875  0.2828  0.0227 -0.0350
 2803W        W19650  12.824  16.647   1.046 -0.0938 -0.0919 -0.3684
 2804W        W19651  16.953  11.136  15.047  0.3725 -0.3806 -0.1876
 2805W        W19652  16.185   2.939  11.653  0.0017  0.0102  0.3047
 2806W        W19653   2.147  13.804  15.572 -0.2907 -0.0337 -0.1037
 2807W        W19654   2.556  14.725   1.588 -0.1006 -0.2812  0.1235
 2808W        W19655  10.685  16.307  13.684 -0.0535 -0.2823  0.0561
 2809W        W19656   9.804   3.407  15.015  0.0014 -0.0352  0.0998
 2810W        W19657   2.633  10.782  12.758  0.0565 -0.2971 -0.1511
 2811W        W19658  15.166  11.608  11.256 -0.1329 -0.0834 -0.2300
 2812W        W19659   4.141  10.717  12.217 -0.1311  0.4049 -0.1722
 2813W        W19660   8.845   9.205   3.011  0.1953 -0.1091 -0.1152
 2814W        W19661  17.845   4.096   0.177  0.0238  0.1415  0.2078
 2815W        W19662   9.153  14.626  11.829  0.1741 -0.0752 -0.0827
 2816W        W19663   8.951   4.096  16.298  0.0607  0.1010 -0.2491
 2817W        W19664  12.794   8.897   1.650  0.1434 -0.0908  0.3456
 2818W        W19665   6.852   4.816  13.654 -0.1608 -0.0531  0.0493
 2819W        W19666   1.937   0.776   3.830 -0.2311 -0.4299 -0.1130
 2820W        W19667  15.509   3.824   0.603  0.2074  0.0925 -0.0797
 2821W        W19668   4.682  13.579  16.021 -0.1550  0.1011 -0.0659
 2822W        W19669   0.313   6.407  12.735  0.3379  0.0441  0.1542
 2823W        W19670   6.396   2.463   0.841  0.2273 -0.0740 -0.0713
 2824W        W19671  13.163   0.072   0.564 -0.0603  0.2880  0.1344
 2825W        W19672   0.410   9.929   1.724  0.0035 -0.0289  0.1791
 2826W        W19673   3.381   2.709   3.137  0.0566 -0.0546 -0.3845
 2827W        W19674   0.073   4.367   5.494  0.1015 -0.0168 -0.0743
 2828W        W19675  12.234   0.864  11.356  0.0583  0.3795 -0.2431
 2829W        W19676   7.848  15.639  14.109 -0.0954  0.1864  0.3375
 2830W        W19677  15.430  14.254  11.287  0.0169 -0.0124 -0.1849
 2831W        W19678  11.566   6.152   2.433  0.0101 -0.4143 -0.0874
 2832W        W19679   6.624  17.006  14.671 -0.0310 -0.4706 -0.1376
 2833W        W19680   3.578  14.175   3.290  0.1442  0.4395 -0.1509
 2834W        W19681   8.256   9.313   1.618 -0.0169 -0.1075 -0.1301
 2835W        W19682  16.215  15.164  14.817  0.0979 -0.0615 -0.0595
 2836W        W19683  17.680  13.718   3.100  0.1625 -0.1448 -0.0720
 2837W        W19684  12.308   7.676   1.122  0.0362  0.1955  0.3675
 2838W        W19685  14.476  16.055   0.949 -0.2342  0.1607  0.1185
 2839W        W19686  17.499  12.476  15.057  0.0209  0.4506  0.3552
 2840W        W19687   6.963   4.921   5.122  0.1475 -0.3456 -0.2392
 2841W        W19688  12.917   9.293  13.908 -0.0263 -0.1167 -0.3506
 2842W        W19689   1.551  10.650   0.785 -0.3208  0.2592  0.0988
 2843W        W19690  14.637   0.028  14.649  0.1470  0.0804  0.1017
 2844W        W19691   0.331   3.382  16.396  0.0157 -0.0262  0.0178
 2845W        W19692  10.325   1.033   1.834  0.1265 -0.2727 -0.3228
 2846W        W19693   8.726  11.983   2.744 -0.0042 -0.3674  0.1336
 2847W        W19694  14.045   2.824   1.408 -0.0856  0.1950 -0.2037
 2848W        W19695   0.894  11.805  12.647  0.1133  0.2390 -0.1131
 2849W        W19696  14.844  13.515   0.794  0.0177  0.2915 -0.2582
 2850W        W19697   3.702   4.521   3.481  0.0729 -0.0846  0.2121
 2851W        W19698  13.701   9.211  15.205 -0.0989  0.2049  0.0422
 2852W        W19699   3.416   2.504  13.819 -0.1014  0.0245 -0.0425
 2853W        W19700   0.991  13.743  12.569  0.0778  0.1383 -0.0658
 2854W        W19701   9.547   7.013   4.815  0.1473  0.2803 -0.3211
 2855W        W19702   1.005  17.745  12.961  0.3233  0.1132  0.3274
 2856W        W19703   7.342  14.177   4.044  0.0603 -0.0996  0.1008
 2857W        W19704   1.984   3.373  11.811  0.0862 -0.0639  0.0546
 2858W        W19705  11.284  18.109  12.368  0.0613 -0.0111  0.1131
 2859W        W19706   3.914   2.904   0.267  0.0505  0.1270 -0.0724
 2860W        W19707   6.206  10.626  15.326  0.1144  0.2422  0.1127
 2861W        W19708   5.761  16.433   5.581 -0.0612 -0.0284  0.0008
 2862W        W19709   4.536   2.186  16.113  0.0172 -0.1827 -0.0261
 2863W        W19710  18.038   1.920  12.105  0.0016 -0.0290 -0.0123
 2864W        W19711  12.238   8.978   0.765  0.1390  0.1816 -0.4475
 2865W        W19712   8.154   1.024  16.293  0.0344 -0.2886 -0.5394
 2866W        W19713  11.025   5.210  14.974  0.2276  0.0296 -0.2134
 2867W        W19714  15.811   1.947  13.547 -0.0452 -0.2276  0.4047
 2868W        W19715   9.124   0.574   4.177  0.0526  0.0808  0.2844
 2869W        W19716   5.122   9.092  16.351 -0.0919  0.3547  0.0288
 2870W        W19717  12.795   8.058  14.274  0.4824 -0.0216 -0.5821
 2871W        W19718   1.844   4.170   3.181 -0.0911 -0.0290  0.0313
 2872W        W19719   8.201   8.612   3.454  0.0421 -0.3419  0.4190
 2873W        W19720   7.985   7.290  14.267  0.1094  0.1027 -0.0290
 2874W        W19721  15.927  17.657  16.605  0.0499  0.1508  0.0632
 2875W        W19722   5.792  16.207   4.573  0.0964 -0.0337 -0.1260
 2876W        W19723  14.898  17.975  14.258  0.2194 -0.2990  0.2744
 2877W        W19724   9.812   9.761  11.678  0.2352 -0.2885  0.0730
 2878W        W19725  17.857   1.186   3.316 -0.1247  0.2963 -0.1824
 2879W        W19726  10.118  10.687  15.193  0.1948  0.4747  0.0711
 2880W        W19727  15.897   5.805   3.347 -0.0871 -0.1565 -0.2647
 2881W        W19728  11.393   8.423   5.136  0.1783 -0.0466 -0.0941
 2882W        W19729   3.838   0.404   5.059  0.2766  0.2836  0.0138
 2883W        W19730   5.236  10.727  16.525 -0.1404 -0.0695  0.1676
 2884W        W19731   6.005  15.203  14.873 -0.1081 -0.2425  0.0916
 2885W        W19732   1.024  17.455   0.724  0.4987  0.2191  0.0407
 2886W        W19733   8.123  13.371   0.401  0.0740  0.1873 -0.1410
 2887W        W19734  11.248   7.322   1.791  0.2064  0.2737 -0.0921
 2888W        W19735   1.954  17.654  16.167  0.0554  0.1074  0.0976
 2889W        W19736   5.291  17.576   5.336  0.1564 -0.1127 -0.0627
 2890W        W19737  18.140   0.097  13.697  0.0715 -0.1942 -0.1648
 2891W        W19738  14.510   2.786   0.952 -0.0553  0.1097  0.1381
 2892W        W19739  17.334  12.368   4.805  0.0762 -0.0726 -0.0208
 2893W        W19740   9.231   5.546  13.169  0.0950 -0.0152 -0.3059
 2894W        W19741  13.188  16.940  12.839  0.0752  0.2934  0.0066
 2895W        W19742  15.444   3.778   1.436  0.0722 -0.4321  0.0521
 2896W        W19743  15.122   1.346   0.497  0.0012 -0.2861 -0.0119
 2897W        W19744   0.156   8.525  14.591  0.0543  0.2132 -0.0981
 2898W        W19745   8.548   3.206   4.474 -0.0013  0.1393 -0.0690
 2899W        W19746   6.258   0.778   5.186  0.4394  0.0407  0.1764
 2900W        W19747   0.803   0.195   3.326  0.2410 -0.2567  0.1353
 2901W        W19748   8.994  17.075   1.287  0.1927 -0.1096 -0.0340
 2902W        W19749   5.434   8.226   1.533  0.2297  0.0818 -0.0016
 2903W        W19750   6.913   6.832   2.394 -0.0622  0.1802  0.1423
 2904W        W19751  11.690   9.889  12.168  0.0975 -0.1682 -0.1396
 2905W        W19752   1.558   6.435   4.494 -0.0169 -0.0317 -0.0368
 2906W        W19753   8.746   6.222   5.176 -0.0241  0.2726 -0.2910
 2907W        W19754   5.246   0.335  15.760 -0.1462  0.3066 -0.0409
 2908W        W19755   0.572   0.999   1.168 -0.0538 -0.1026 -0.2953
 2909W        W19756   9.314  16.531  11.775  0.0537  0.0932  0.2951
 2910W        W19757  12.388  15.962  11.339 -0.0206 -0.1044 -0.1955
 2911W        W19758   1.545  14.897  13.325  0.3214  0.0436  0.0342
 2912W        W19759   8.253   7.073   4.330  0.0304  0.2605 -0.0842
 2913W        W19760   1.530  17.510  16.551 -0.1448  0.1078 -0.2072
 2914W        W19761  13.902   1.585  12.082 -0.0816  0.0037 -0.1427
 2915W        W19762  11.074  12.423   4.141  0.3045  0.1498  0.0873
 2916W        W19763  13.111   2.229  11.779 -0.0951 -0.1715 -0.3337
 2917W        W19764  10.632   1.840   3.068  0.1713  0.0415 -0.0874
 2918W        W19765   1.861  10.376  15.658 -0.4516  0.1757  0.0211
 2919W        W19766  17.753   0.054  15.408  0.1375 -0.0901 -0.1985
 2920W        W19767   1.913   8.012  14.993  0.2951  0.0739  0.0860
 2921W        W19768   6.587   0.703   0.469  0.1185  0.0930 -0.1410
 2922W        W19769  16.959  15.089   4.658  0.2142  0.1394 -0.0135
 2923W        W19770   9.226  17.394  12.014  0.0337 -0.1477  0.0772
 2924W        W19771  14.707  15.062   1.075  0.0174  0.0542 -0.0369
 2925W        W19772   8.847  18.043  16.147  0.1418 -0.0354 -0.0705
 2926W        W19773   7.154  15.152  14.699  0.1701 -0.2413  0.4979
 2927W        W19774  13.430   3.294   0.311  0.3408  0.2776  0.0769
 2928W        W19775  13.084  10.730  11.581 -0.0280 -0.2918  0.0538
 2929W        W19776   9.861   3.657  13.665  0.2247  0.0635  0.3144
 2930W        W19777   0.090   9.274   4.809  0.1614 -0.1927  0.1678
 2931W        W19778  11.612   8.160  11.556  0.2868 -0.2567 -0.1505
 2932W        W19779   3.437  12.830   3.388  0.0367  0.1055  0.0432
 2933W        W19780   6.845  13.760   5.330  0.0491  0.1054  0.1211
 2934W        W19781  11.723   6.068  16.304  0.3115  0.1335 -0.4394
 2935W        W19782   6.122   6.045   5.201  0.2228 -0.0225 -0.0041
 2936W        W19783   6.863  13.615   0.189  0.1720 -0.2104  0.0298
 2937W        W19784  12.279  14.119   2.303 -0.0978 -0.0310  0.0943
 2938W        W19785   0.206  13.275  15.332  0.2228  0.2036 -0.3901
 2939W        W19786  17.991   0.449  11.927 -0.3251  0.2260  0.3809
 2940W        W19787   8.114  11.091   1.642  0.1481 -0.2455  0.0682
 2941W        W19788   2.696   6.074  15.326 -0.3232 -0.1550  0.0786
 2942W        W19789   7.460   7.410  14.088  0.0895  0.0067  0.3973
 2943W        W19790   7.360   3.292  13.368 -0.0969 -0.0624 -0.0317
 2944W        W19791   2.161  17.817   5.023 -0.1605 -0.1279 -0.1761
 2945W        W19792  17.951   3.548   5.085 -0.0649  0.0592  0.2027
 2946W        W19793  12.739  17.773   3.720 -0.0251 -0.1000 -0.2057
 2947W        W19794   0.571   7.309   1.292  0.0537 -0.0268  0.1020
 2948W        W19795   5.245  15.450  14.629  0.4207  0.1172  0.0034
 2949W        W19796   5.960   5.486  12.704  0.0978 -0.3024  0.3832
 2950W        W19797  14.602   7.413   4.650  0.0990  0.1528  0.2857
 2951W        W19798  10.651   3.163   3.756  0.1329  0.0507 -0.2767
 2952W        W19799  13.448  16.022  16.094 -0.1010 -0.0600 -0.0880
 2953W        W19800   0.116   9.564   2.090 -0.2289 -0.2722 -0.1060
 2954W        W19801   7.378   6.589   3.635 -0.1248  0.2577  0.0158
 2955W        W19802  16.554  11.129   4.850 -0.2103  0.1811  0.2952
 2956W        W19803   1.959  14.459  12.320 -0.0952  0.3540 -0.1007
 2957W        W19804   8.790   0.387  15.827 -0.0629  0.2232 -0.2396
 2958W        W19805  12.196  15.490  14.013  0.0323 -0.1495 -0.2477
 2959W        W19806   4.190   0.268   4.131 -0.1227 -0.4348  0.0788
 2960W        W19807   1.877   6.455  12.586  0.0563  0.1053  0.1106
 2961W        W19808  16.603   4.426  11.672 -0.0411 -0.1163  0.0739
 2962W        W19809  13.665  14.419   1.531 -0.1015  0.0153  0.1326
 2963W        W19810  16.321  13.007  13.721  0.2201  0.1344  0.0772
 2964W        W19811   3.879   6.052   1.263 -0.2801  0.1281  0.2849
 2965W        W19812   9.676  12.897  13.633 -0.1177 -0.3853  0.0927
 2966W        W19813  16.088   3.848   4.290  0.0836  0.1837 -0.3288
 2967W        W19814  11.048  15.819   3.506  0.0883  0.3479  0.2095
 2968W        W19815  11.235   4.472   0.833 -0.0090 -0.1111 -0.2430
 2969W        W19816   9.654  10.760   5.352 -0.3991  0.1417 -0.0127
 2970W        W19817   5.942  15.762   4.993  0.1133  0.1437  0.1282
 2971W        W19818  10.847   7.301  13.089 -0.2960  0.0508 -0.0155
 2972W        W19819   0.434   3.487   3.600 -0.1017 -0.1017 -0.1271
 2973W        W19820  13.299  13.558  16.187  0.0478 -0.0671  0.3375
 2974W        W19821   2.017  11.757  12.141 -0.1058  0.0986  0.0783
 2975W        W19822   4.815   3.111  12.276 -0.1558  0.2701  0.0935
 2976W        W19823  14.180  12.994   1.430 -0.2516  0.4356 -0.1161
 2977W        W19824   9.223   0.094  13.825  0.0416 -0.0297  0.0827
 2978W        W19825  13.930   5.558  15.546 -0.1428 -0.1644 -0.0162
 2979W        W19826   0.566  13.973   3.461  0.0519  0.0214  0.4466
 2980W        W19827   1.673   6.739  13.401  0.0934  0.0007  0.1388
 2981W        W19828  10.916  17.690   5.910  0.0421  0.0156  0.1265
 2982W        W19829   7.245  14.153  13.143  0.2312 -0.1340 -0.2002
 2983W        W19830  16.377  18.000   0.804  0.1148 -0.0064  0.1352
 2984W        W19831   9.651   5.347   3.542 -0.1780  0.0070  0.2555
 2985W        W19832   4.405  14.357  13.327 -0.1329  0.1250  0.1643
 2986W        W19833  15.034  16.404  15.980  0.2047 -0.0768 -0.2574
 2987W        W19834  12.180  15.639   5.627 -0.1872 -0.0287  0.0158
 2988W        W19835   7.395  10.403   0.188  0.1101 -0.1606 -0.0737
 2989W        W19836  13.412   4.139  11.835 -0.3330 -0.2858  0.1433
 2990W        W19837   4.371  12.766   0.228 -0.0400  0.0235 -0.2632
 2991W        W19838  17.291  13.787  12.142  0.2638  0.0746  0.0898
 2992W        W19839   5.157  16.824   2.831 -0.0798 -0.0403  0.0955
 2993W        W19840  11.008  13.634  12.927 -0.1371 -0.2304 -0.1641
 2994W        W19841  10.949  16.718   3.312  0.0427  0.1108  0.0567
 2995W        W19842   1.916   9.629  14.616  0.0619 -0.0933 -0.1607
 2996W        W19843   9.477   8.158  15.273 -0.1413 -0.0061 -0.1747
 2997W        W19844   4.545   4.417  15.622  0.1018 -0.3108 -0.3337
 2998W        W19845   8.660   5.588   3.923  0.0420  0.1545  0.1961
 2999W        W19846  13.523  15.302  13.848  0.2401  0.0893  0.1825
 3000W        W19847   9.243   3.079   3.358 -0.2497  0.0544 -0.1330
 3001W        W19848   5.710  16.666  12.302  0.0667  0.2748  0.1766
 3002W        W19849   0.165  10.688   0.506 -0.0008  0.1519 -0.0868
 3003W        W19850   8.277  17.863   4.701  0.0184 -0.1484 -0.3057
 3004W        W19851   7.501  14.805  14.288 -0.1679 -0.5483 -0.1568
 3005W        W19852  12.623  17.948   1.700  0.1055  0.0728 -0.1382
 3006W        W19853   7.707  13.834  13.311  0.0011  0.0842  0.4389
 3007W        W19854   4.391  13.643   5.794 -0.1555 -0.0144 -0.0376
 3008W        W19855   8.598   0.399   3.162 -0.2812  0.6209 -0.4163
 3009W        W19856   7.818  17.469   0.156  0.1237  0.0843  0.0386
 3010W        W19857   2.132  15.495  13.406  0.2508 -0.0509  0.0100
 3011W        W19858   7.625   8.356  13.234  0.1205 -0.2699 -0.0592
 3012W        W19859  16.397   6.222  15.711 -0.0477 -0.0829  0.1009
 3013W        W19860  17.405   9.682   0.638 -0.0772 -0.4102  0.1036
 3014W        W19861  11.864  11.291  15.274  0.2021  0.0099  0.1226
 3015W        W19862  17.059  12.712  14.908  0.0076  0.2270  0.1077
 3016W        W19863  13.982  14.839   3.239  0.0026 -0.0038  0.2884
 3017W        W19864  10.666   5.439   2.665  0.1372  0.0213 -0.0220
 3018W        W19865  14.093   0.632  10.942  0.0896  0.2183 -0.0981
 3019W        W19866  11.268  17.129   3.567  0.0010  0.1096 -0.2449
 3020W        W19867   4.118   5.045  12.139 -0.0525 -0.1757  0.0257
 3021W        W19868   9.754   8.480  13.883 -0.1818  0.2825 -0.3928
 3022W        W19869   0.735   3.007  13.396 -0.1908  0.1187 -0.2408
 3023W        W19870  10.037  16.872  16.457 -0.3159  0.1384  0.0083
 3024W        W19871  13.997   3.977  13.381 -0.1298 -0.2089 -0.2495
 3025W        W19872   4.327  13.201  16.070  0.0208 -0.1479  0.2611
 3026W        W19873   3.854   6.439  13.965 -0.2623 -0.1815  0.1277
 3027W        W19874  10.801   8.588  11.740  0.1449  0.1257  0.2257
 3028W        W19875   6.730  13.973  15.644  0.0076  0.0547 -0.0220
 3029W        W19876  15.752   0.421   0.579  0.2284 -0.2386 -0.2309
 3030W        W19877  13.843  13.121  13.236  0.0866 -0.1822  0.2572
 3031W        W19878  11.896   5.381  12.993 -0.0492  0.2530  0.0333
 3032W        W19879   4.945   4.939  14.891  0.0254 -0.0152  0.1580
 3033W        W19880   9.816   2.907  13.083  0.3233 -0.1266 -0.1159
 3034W        W19881   1.484  12.415   4.731 -0.2046 -0.0495 -0.1264
 3035W        W19882  18.085   2.831  12.162 -0.1024 -0.1443 -0.1051
 3036W        W19883  11.649  13.183   3.772  0.0567 -0.3656  0.2806
 3037W        W19884   3.025   7.469  12.154  0.4478 -0.0635  0.1510
 3038W        W19885  17.185   1.415   5.305  0.3457  0.3043  0.0073
 3039W        W19886  16.713  13.565   2.469 -0.2110  0.3241  0.2357
 3040W        W19887  12.790   1.338   6.337 -0.2538 -0.0241  0.3476
 3041W        W19888  11.805  14.936  12.943  0.0916  0.2902 -0.0866
 3042W        W19889   3.894  14.973   5.646 -0.3498  0.2101 -0.1321
 3043W        W19890   3.711  15.868   3.402 -0.0239 -0.1269  0.3522
 3044W        W19891  16.768  10.850   4.484 -0.1212  0.5184 -0.2521
 3045W        W19892  17.821   9.121   2.588 -0.2706 -0.0287 -0.0334
 3046W        W19893   9.504  12.195  14.719 -0.2875  0.2101  0.1119
 3047W        W19894   1.339  10.091   1.846  0.0620 -0.0512 -0.2450
 3048W        W19895  17.277   5.370   5.022  0.0284 -0.0327 -0.2050
 3049W        W19896   5.923   4.518   1.339 -0.1272  0.1901  0.2798
 3050W        W19897  14.838   5.044   2.461  0.1418  0.2264  0.0450
 3051W        W19898   0.822   5.096   0.380 -0.2837  0.0826 -0.5474
 3052W        W19899  15.363   0.253   1.676 -0.1800  0.1809  0.0335
 3053W        W19900   9.226   7.172   2.896  0.2108 -0.2003 -0.1235
 3054W        W19901  18.173  11.798  14.929 -0.0567  0.1660 -0.0501
 3055W        W19902   4.635   9.288   0.366 -0.0796  0.0234 -0.2245
 3056W        W19903   5.770  10.372   2.318 -0.1529 -0.1029 -0.3419
 3057W        W19904   8.755  15.279  15.712  0.2486 -0.0943  0.0722
 3058W        W19905  13.580   7.838   5.329  0.1162  0.1094 -0.1623
 3059W        W19906  14.757  15.908  15.876  0.0464  0.1380 -0.0714
 3060W        W19907  14.207   0.168   0.066  0.1973 -0.0295  0.2388
 3061W        W19908   7.272   9.798  15.830 -0.1503  0.2013 -0.2322
 3062W        W19909  17.956   5.437   3.993 -0.3375 -0.2503 -0.1865
 3063W        W19910   9.647   0.462   5.828 -0.3258  0.1925  0.0826
 3064W        W19911   2.062   5.700   2.321 -0.3177  0.0391  0.3994
 3065W        W19912   4.244   2.261  13.196 -0.0379  0.0175  0.2081
 3066W        W19913   7.052   2.832   4.084  0.1133  0.0331  0.1003
 3067W        W19914  15.626   5.534   1.875 -0.2085 -0.2736  0.2271
 3068W        W19915  14.157   7.624   4.454 -0.3516  0.0384 -0.1729
 3069W        W19916   2.460   6.120  16.502  0.1425 -0.0283  0.3292
 3070W        W19917  15.567   4.883  15.816  0.3226  0.1383 -0.0835
 3071W        W19918  14.233  10.470   2.445 -0.0485 -0.0640 -0.0496
 3072W        W19919  12.914   4.024  11.798 -0.2484 -0.3819 -0.2877
 3073W        W19920   9.037  12.488   0.493 -0.1266  0.0672  0.1268
 3074W        W19921  14.390   2.079  16.464  0.0162  0.3324  0.1752
 3075W        W19922  15.812   1.420  13.607  0.2731  0.1961  0.0681
 3076W        W19923   2.895  16.159   5.312  0.3208  0.0201  0.3420
 3077W        W19924  16.797  14.773  16.047 -0.0893 -0.5715 -0.0382
 3078W        W19925  15.272  13.652  14.792  0.2862  0.0101  0.2961
 3079W        W19926  14.605  12.282   3.290 -0.0774  0.0343 -0.3526
 3080W        W19927  13.474  13.849  13.857  0.0123  0.0823  0.0306
 3081W        W19928   1.862   1.968  13.047 -0.1677  0.3421 -0.0533
 3082W        W19929  15.381   3.240  16.034  0.1308  0.0976 -0.0463
 3083W        W19930  12.827  12.416  13.287  0.4302  0.1173 -0.2335
 3084W        W19931  17.325  11.484   2.114  0.0067 -0.0684  0.2992
 3085W        W19932  13.688   8.978   4.005  0.1266  0.1196 -0.2891
 3086W        W19933   6.962  13.677  14.226 -0.0707 -0.1098 -0.4109
 3087W        W19934   1.433   0.626   5.406 -0.0370 -0.1664  0.0066
 3088W        W19935  17.117   3.100  12.323  0.0492 -0.0971  0.0608
 3089W        W19936   2.841   8.561  14.587 -0.4200  0.0944 -0.3863
 3090W        W19937  17.597  13.824   2.071  0.1372 -0.1874 -0.0215
 3091W        W19938  16.402  10.343   3.222  0.0739 -0.2694  0.0230
 3092W        W19939   6.699   2.974  10.732 -0.1311 -0.1141 -0.1207
 3093W        W19940  17.830  12.049   1.281  0.0618 -0.0498  0.0011
 3094W        W19941  11.691  14.474  15.510  0.1391 -0.2382  0.0178
 3095W        W19942  15.525   0.760   0.927  0.0325 -0.3170  0.1483
 3096W        W19943   9.430  17.084  11.577 -0.1695  0.1142 -0.0018
 3097W        W19944  12.665  13.045   1.414 -0.0142  0.1043  0.1105
 3098W        W19945  16.847   9.083   0.462 -0.1354 -0.0967  0.1316
 3099W        W19946   0.074  17.832   4.753 -0.1461  0.1207  0.0969
 3100W        W19947  14.611   7.472  14.532  0.1536 -0.1822 -0.0354
 3101W        W19948   5.072   7.387   0.642  0.0864 -0.0287 -0.0914
 3102W        W19949  12.943  17.622  15.469 -0.1558  0.1134  0.1207
 3103W        W19950   8.734  10.250  13.235 -0.2236  0.0426  0.0646
 3104W        W19951  17.067  15.888  15.865 -0.0570  0.0800 -0.1670
 3105W        W19952  17.347  17.446  10.480 -0.1348 -0.2197 -0.2822
 3106W        W19953   4.146  15.694   3.548  0.2242 -0.0212  0.0259
 3107W        W19954  12.124   3.325  14.504 -0.0683 -0.1596 -0.2663
 3108W        W19955  14.244   7.037  11.965 -0.3618  0.1770  0.2675
 3109W        W19956  13.191   0.097  16.557  0.2192  0.2598  0.0190
 3110W        W19957   5.493   1.548  14.523  0.2861  0.0403  0.0141
 3111W        W19958   7.188  16.422  12.964 -0.0651 -0.0232 -0.2491
 3112W        W19959  11.864   3.921  12.056  0.1414  0.2139 -0.0210
 3113W        W19960   8.229  14.812  14.384 -0.2273  0.0621  0.0214
 3114W        W19961  16.907   5.489  12.315 -0.1202  0.7904 -0.0304
 3115W        W19962   0.115  10.040  13.913 -0.2914  0.0787  0.0774
 3116W        W19963   6.974   7.007  13.731  0.1386  0.4243  0.2604
 3117W        W19964  10.909   2.468  13.666 -0.0758 -0.0119  0.1147
 3118W        W19965   1.490  12.119   3.967  0.1550  0.1033  0.0659
 3119W        W19966  13.401   1.749   1.081 -0.0598  0.0780  0.2558
 3120W        W19967   7.215  12.892   0.702  0.1921  0.2528 -0.0202
 3121W        W19968  18.170   6.754  11.823  0.3612 -0.3477 -0.1158
 3122W        W19969   6.347  11.962   2.274 -0.1137 -0.0020 -0.3100
 3123W        W19970   9.836   2.371   1.115 -0.1123 -0.0454  0.1027
 3124W        W19971   7.490   0.047   4.929  0.2013 -0.2586 -0.0266
 3125W        W19972  14.558   1.608   3.691  0.0038 -0.1708 -0.0129
 3126W        W19973  13.840   6.406  13.927 -0.0227 -0.2287 -0.1319
 3127W        W19974   4.749   8.802  15.121  0.0670 -0.0864  0.1466
 3128W        W19975  13.305   4.230   3.822  0.2497 -0.0205  0.1690
 3129W        W19976  14.272   3.397   2.579  0.2274 -0.1075 -0.0445
 3130W        W19977   4.130  15.549  12.184  0.2507  0.0111 -0.0495
 3131W        W19978   6.853  12.421  14.865 -0.3358  0.1216  0.2271
 3132W        W19979  13.387   0.107   1.082 -0.0547  0.1116  0.1101
 3133W        W19980   2.618  16.083   4.042  0.2510 -0.2314 -0.0797
 3134W        W19981   6.257  16.036   1.510  0.1595  0.0485 -0.0206
 3135W        W19982   8.652   4.972  13.231  0.1148 -0.0996  0.2393
 3136W        W19983  11.992   2.089  15.904  0.0066  0.1791 -0.0201
 3137W        W19984  12.271  13.788   2.645 -0.1404 -0.2415  0.0904
 3138W        W19985  15.980   2.040  12.922 -0.3120  0.2780 -0.0480
 3139W        W19986   5.824   1.050  12.303 -0.3500  0.1031 -0.4443
 3140W        W19987   1.139   9.934  15.024  0.0448 -0.0377  0.2287
 3141W        W19988   9.410  10.697   2.039 -0.1161  0.1333  0.0903
 3142W        W19989  17.052  10.136   5.877 -0.4984 -0.0679  0.1663
 3143W        W19990   2.427   7.720   3.125  0.1424 -0.1911 -0.0061
 3144W        W19991  12.382   1.644  16.428  0.1144  0.1544 -0.1865
 3145W        W19992   0.752   2.912  12.596 -0.1712 -0.0460 -0.3983
 3146W        W19993  13.854  15.969  14.976 -0.1547 -0.2312  0.1588
 3147W        W19994  17.897  15.946   0.290  0.1467 -0.1182  0.2661
 3148W        W19995   0.768  12.416  14.993 -0.1910  0.0495 -0.1223
 3149W        W19996  12.287  10.700   0.741  0.1918  0.1141  0.2858
 3150W        W19997  11.498   5.754   4.422  0.1835 -0.0354 -0.0939
 3151W        W19998  17.763   5.855   2.284 -0.1199 -0.0026 -0.0348
 3152W        W19999  13.935   7.534   3.939  0.2182 -0.1879 -0.1496
 3153W        W20000  16.134   5.166   4.064 -0.0577 -0.0664  0.0393
 3154W        W20001  12.806   1.419  16.621  0.2076  0.2601  0.0443
 3155W        W20002   6.798  13.289   4.015  0.1696  0.1365  0.0443
 3156W        W20003  12.949  15.803   4.919 -0.0760 -0.1657  0.0232
 3157W        W20004   5.277   2.079   2.274 -0.0167  0.0733  0.0827
 3158W        W20005  15.944   7.310  14.870 -0.1038 -0.2034 -0.0358
 3159W        W20006   3.577  12.854  14.052 -0.0973  0.0878 -0.1226
 3160W        W20007   1.478  15.883  12.910  0.0338  0.1850 -0.0365
 3161W        W20008  11.138   8.273   2.990 -0.2411  0.2729 -0.2044
 3162W        W20009  13.059   0.560  16.208 -0.0809 -0.2484  0.0107
 3163W        W20010  12.121   0.482  13.553  0.0373 -0.1996  0.2291
 3164W        W20011  16.828  13.344  12.870 -0.0135  0.0486  0.1012
 3165W        W20012  12.669  14.125  13.145 -0.1019 -0.0720  0.1325
 3166W        W20013  17.049  10.512   4.354 -0.2202  0.4174 -0.5796
 3167W        W20014   0.331   7.060  13.489 -0.0091 -0.3280 -0.2007
 3168W        W20015  10.339   1.203   2.304  0.2137 -0.2203 -0.1946
 3169W        W20016   0.224   3.180   5.812  0.1843 -0.1183  0.2145
 3170W        W20017   1.303  16.931   0.647  0.3266 -0.0622 -0.1429
 3171W        W20018  16.258  15.846  12.584  0.2126 -0.0619 -0.0686
 3172W        W20019   7.080  15.673   2.637 -0.2488 -0.0623  0.0367
 3173W        W20020   9.895  18.082   2.832 -0.2065  0.3129 -0.1199
 3174W        W20021   0.288   4.548   0.596  0.5322 -0.1778 -0.3158
 3175W        W20022  17.478   6.438   0.890 -0.1624  0.3653 -0.0531
 3176W        W20023   2.966   1.530  14.243 -0.0208 -0.2745 -0.0967
 3177W        W20024  10.021   1.359   3.022  0.1652  0.1340  0.2263
 3178W        W20025  11.068  10.536  12.282 -0.2798 -0.2064 -0.2432
 3179W        W20026  17.122   5.373   2.666  0.0881 -0.0439 -0.1308
 3180W        W20027   4.701  17.088   0.003  0.1551  0.0938  0.2437
 3181W        W20028   7.829   4.061  14.723  0.1862  0.0423 -0.0339
 3182W        W20029   0.153   5.165  13.648  0.0894 -0.0052  0.3351
 3183W        W20030   6.907   3.375  11.008  0.1435  0.5357 -0.1243
 3184W        W20031   2.032   9.552   0.128  0.0077 -0.2066 -0.1511
 3185W        W20032   8.350   5.404   5.138 -0.1703 -0.4019  0.1435
 3186W        W20033   6.187   0.607   0.761 -0.0858  0.2671 -0.0289
 3187W        W20034  18.129  15.313  16.505 -0.0889  0.0235 -0.0817
 3188W        W20035  12.918   4.108  15.256 -0.0453  0.1746  0.2757
 3189W        W20036  11.740  14.072   2.609 -0.1777 -0.1406 -0.1223
 3190W        W20037  15.501  14.081   4.638  0.0592 -0.0173  0.0704
 3191W        W20038   7.076  17.034   0.718 -0.0212 -0.0191 -0.1271
 3192W        W20039  17.921   9.530  11.913 -0.0602 -0.1680  0.3203
 3193W        W20040  17.848   4.300  11.314  0.0608 -0.1417 -0.0317
 3194W        W20041  17.865  18.002  14.742  0.2654  0.0321 -0.2267
 3195W        W20042   3.021   0.197   3.230 -0.1213 -0.0925  0.2741
 3196W        W20043   7.279  15.558   3.978  0.0833  0.1816  0.1646
 3197W        W20044   9.753  14.000  14.911  0.3016  0.1211  0.2145
 3198W        W20045   3.898   2.839   3.057  0.0965 -0.4327 -0.0851
 3199W        W20046   3.307   9.336  14.401 -0.3955 -0.2645 -0.1427
 3200W        W20047   0.486   2.898  12.142 -0.3538  0.1359  0.0192
 3201W        W20048   8.711  11.408  16.468 -0.1689 -0.0243  0.2373
 3202W        W20049  16.469   1.466  13.666 -0.0785  0.0351 -0.0686
 3203W        W20050   0.687  12.763  12.637  0.0193 -0.0821  0.0798
 3204W        W20051  16.287   9.873   1.285 -0.1236  0.0651  0.3026
 3205W        W20052   7.609  10.406   4.282 -0.3571 -0.1470  0.1187
 3206W        W20053   5.233   3.830  14.731 -0.0954 -0.0525  0.2307
 3207W        W20054   2.677   3.891   2.366  0.3651 -0.2446  0.0395
 3208W        W20055  13.760  16.099  15.478 -0.0316  0.2460 -0.0860
 3209W        W20056   4.379   3.358  11.565 -0.2164 -0.1753 -0.0515
 3210W        W20057   7.714   3.672  12.836 -0.1673  0.4373 -0.1319
 3211W        W20058   9.826  16.871  14.511 -0.0027  0.0711  0.0022
 3212W        W20059   8.127  13.006  11.327  0.0356 -0.0030 -0.2283
 3213W        W20060  16.700   6.602  11.452 -0.0381  0.0723  0.0565
 3214W        W20061  16.557  10.396  14.425  0.0338  0.1561 -0.0275
 3215W        W20062   8.383   2.244  16.561  0.1253  0.0702  0.0821
 3216W        W20063   4.674  13.641   2.115  0.1608  0.3555  0.0382
 3217W        W20064  11.143  15.705   1.909  0.1842  0.1000  0.1014
 3218W        W20065   0.746   5.146   4.869  0.2187 -0.2761 -0.2437
 3219W        W20066  16.942   2.652   2.105  0.0318 -0.0887  0.1092
 3220W        W20067  17.904   1.952   3.429 -0.0320  0.3078 -0.0126
 3221W        W20068  11.220   3.116  12.245 -0.3648  0.0967 -0.3495
 3222W        W20069   3.424   8.417  15.089  0.0876 -0.2039  0.1695
 3223W        W20070   3.204  15.502  11.879 -0.0364  0.1216  0.2423
 3224W        W20071  10.300  13.690   5.459  0.0875  0.1773 -0.1710
 3225W        W20072   3.870   6.932  14.157  0.0167  0.0802 -0.0893
 3226W        W20073  11.813   4.490  15.187 -0.0140 -0.1333 -0.0356
 3227W        W20074   8.444   9.261  10.872  0.2427  0.0873  0.0976
 3228W        W20075   1.390   8.246   5.644  0.0331 -0.2366  0.0362
 3229W        W20076  16.017   0.867   0.753 -0.2333 -0.2858  0.1673
 3230W        W20077  13.002  10.302   5.210 -0.0404  0.1303 -0.0542
 3231W        W20078   2.569  12.588  14.402  0.0293  0.2136 -0.0789
 3232W        W20079  14.345  13.128  16.155 -0.1699 -0.0418 -0.1489
 3233W        W20080  11.564  18.087  16.419  0.1036 -0.1507 -0.0695
 3234W        W20081   7.817  10.050   2.246  0.1487  0.0483 -0.2426
 3235W        W20082   1.645   8.130   4.191 -0.0361 -0.3012  0.1536
 3236W        W20083  17.534  11.600   2.975 -0.1222  0.2765  0.1042
 3237W        W20084  11.145  14.549  15.073 -0.2928 -0.1292 -0.2672
 3238W        W20085  11.677  16.392   4.961 -0.0278  0.3393 -0.1973
 3239W        W20086   8.101  18.062   1.863 -0.1486  0.1096  0.1581
 3240W        W20087   0.620  15.900  13.653 -0.0414 -0.1033  0.4198
 3241W        W20088   0.038   3.262   4.745 -0.1892  0.2684  0.0225
 3242W        W20089   2.382   2.786  16.516  0.0920  0.0385 -0.2201
 3243W        W20090   9.289   2.686  14.619 -0.0052  0.1253 -0.1866
 3244W        W20091  17.335  17.677  12.730  0.0642 -0.0903  0.1062
 3245W        W20092   4.176   3.142  14.312  0.1072  0.0617 -0.1889
 3246W        W20093  16.150   5.535  12.641  0.4284 -0.1379 -0.2349
 3247W        W20094  11.718   0.848   2.481  0.0462  0.0288  0.0713
 3248W        W20095   4.591  14.771   1.479 -0.0814  0.0704 -0.0286
 3249W        W20096   2.839  11.713   3.003  0.0163  0.0885  0.0127
 3250W        W20097   6.645   3.746  12.962  0.0129 -0.1948 -0.0134
 3251W        W20098  17.700  14.094  15.520 -0.1753  0.2848  0.2435
 3252W        W20099   6.867   8.177   4.009  0.1418  0.2150  0.1341
 3253W        W20100  11.426   9.466  14.387  0.1083  0.0591 -0.1032
 3254W        W20101  14.358   4.061   3.135 -0.2833 -0.0005  0.0210
 3255W        W20102  17.894  15.464   0.669  0.0051  0.0467  0.1600
 3256W        W20103   2.423  11.358   0.451  0.4107 -0.1440  0.2204
 3257W        W20104   1.270  18.162   2.991  0.0956  0.0291 -0.0066
 3258W        W20105  15.427   6.720   4.278  0.2910 -0.1575 -0.0656
 3259W        W20106   5.434   2.227   3.821  0.0825  0.1116  0.2219
 3260W        W20107   8.914   5.656  12.768  0.0175  0.0627 -0.4063
 3261W        W20108   0.821  13.371  16.473  0.0666  0.3795 -0.2238
 3262W        W20109  16.500  12.816  15.056 -0.3569  0.0832 -0.1439
 3263W        W20110  11.642  12.164   1.722 -0.0196  0.1294  0.1489
 3264W        W20111  18.055  11.716  15.863  0.0496 -0.5657  0.2054
 3265W        W20112  14.261   6.637   5.396 -0.1420 -0.1434 -0.0096
 3266W        W20113  16.826   0.771  14.750  0.1790 -0.4271 -0.0030
 3267W        W20114   8.927   3.585   4.659  0.0308 -0.3079 -0.0312
 3268W        W20115   8.092   3.528  11.848  0.2528  0.1670 -0.1177
 3269W        W20116   8.516   5.783   0.580 -0.1528 -0.0205  0.1241
 3270W        W20117   7.632   8.945  14.593  0.0723  0.1175 -0.3266
 3271W        W20118  17.703   1.945  13.509  0.1300 -0.0268 -0.0630
 3272W        W20119  14.989   9.945  11.520  0.0515 -0.1092  0.1625
 3273W        W20120  10.606  10.052   3.253 -0.1566  0.0589  0.0329
 3274W        W20121  10.419  13.579   3.552 -0.1168  0.0266  0.3691
 3275W        W20122   0.247  10.306   4.601  0.0804  0.1848  0.1293
 3276W        W20123  11.779  13.643   0.512  0.0216  0.0208 -0.2291
 3277W        W20124   4.183  11.089   4.728 -0.1139 -0.1345  0.2255
 3278W        W20125   6.891   5.347  13.134  0.1707  0.0498  0.2597
 3279W        W20126  11.135   9.828  14.756 -0.2677 -0.0142 -0.1513
 3280W        W20127   6.165  11.842  14.313  0.0105 -0.1385  0.0051
 3281W        W20128  12.212  12.208  14.088 -0.2073 -0.2780  0.0966
 3282W        W20129  12.207   6.887   5.255  0.3963  0.2464 -0.0825
 3283W        W20130  17.197  10.623   2.618 -0.0931 -0.1556  0.3713
 3284W        W20131   7.919   9.858  16.252 -0.0900 -0.1380  0.1162
 3285W        W20132  15.399   0.144  16.348 -0.1391  0.1062 -0.1414
 3286W        W20133   3.359  12.927   2.938  0.1446 -0.4000  0.3446
 3287W        W20134  15.081   0.138  14.899  0.1592 -0.2015 -0.2551
 3288W        W20135   8.400  16.087  13.523 -0.1551 -0.0423 -0.0977
 3289W        W20136   1.874  16.437   2.443  0.2037 -0.3242 -0.1949
 3290W        W20137  15.113  15.030   5.373 -0.3996 -0.1864 -0.0923
 3291W        W20138   6.469   7.926  13.494 -0.2560  0.2479  0.1687
 3292W        W20139   8.241  16.147   4.701 -0.1931  0.2323 -0.1493
 3293W        W20140  12.973   3.676  14.910 -0.1597 -0.0594 -0.2771
 3294W        W20141  12.801  14.786  13.735  0.2079 -0.1480 -0.1397
 3295W        W20142   8.844  10.653  16.023 -0.1580 -0.0555  0.1122
 3296W        W20143  17.820  16.589   3.634 -0.1438 -0.1231 -0.1990
 3297W        W20144  17.144   6.805   2.053 -0.0431  0.0634  0.1782
 3298W        W20145  12.049  14.921   0.049 -0.0913 -0.0135  0.0549
 3299W        W20146   4.362   9.790   4.912 -0.2923 -0.0576 -0.3393
 3300W        W20147  16.852  10.760  11.027  0.3932  0.0281  0.1177
 3301W        W20148  17.622   7.057   4.355 -0.2696  0.4097 -0.2623
 3302W        W20149   7.399   6.993  11.280  0.1198 -0.0768 -0.3023
 3303W        W20150  16.524  13.336  15.092  0.0730  0.0009  0.2843
 3304W        W20151  15.710   9.149  15.874  0.0827  0.0700  0.2005
 3305W        W20152   1.487   4.116   5.046  0.0442  0.0360  0.2283
 3306W        W20153  11.787   3.714  15.852  0.1085 -0.0600  0.1847
 3307W        W20154  11.017   5.340   3.971  0.0452  0.1151  0.1615
 3308W        W20155  11.956   4.438  13.810 -0.2679  0.2078 -0.0360
 3309W        W20156   6.250  13.589   2.235 -0.1796 -0.0096 -0.1981
 3310W        W20157   9.484   7.305   1.615 -0.1092 -0.2814 -0.2645
 3311W        W20158   4.752   6.073   4.915  0.4697 -0.1218  0.0330
 3312W        W20159   4.002   3.143  16.409 -0.0435 -0.0127  0.1470
 3313W        W20160  15.407  11.907   3.367 -0.2909  0.2872  0.0174
 3314W        W20161   8.987   4.146  15.378  0.1026  0.2124  0.0795
 3315W        W20162  13.350  13.706   4.579  0.0610  0.2678 -0.0360
 3316W        W20163   2.773   1.895   0.562  0.0607  0.1411 -0.1160
 3317W        W20164  15.478  16.101  14.299  0.0287  0.3146  0.2125
 3318W        W20165  11.326  16.632  13.220 -0.2196 -0.2249  0.3910
 3319W        W20166   7.131  11.221   0.606 -0.2159  0.0778 -0.1919
 3320W        W20167   1.842   9.014   4.995 -0.2479 -0.0700 -0.2445
 3321W        W20168  10.267   3.102   4.719  0.1867  0.1541 -0.1011
 3322W        W20169  11.989   9.255  13.882  0.1270 -0.1051 -0.3095
 3323W        W20170   1.771   0.214   5.651 -0.3063 -0.1216 -0.1356
 3324W        W20171   5.125   2.148   0.982 -0.2438 -0.1609  0.2500
 3325W        W20172   1.689  11.673   3.693 -0.1561 -0.1035 -0.0559
 3326W        W20173   4.957   5.690  15.634 -0.2238 -0.0728 -0.1733
 3327W        W20174   7.709   9.954  14.721  0.1627  0.0580  0.0394
 3328W        W20175  16.762  13.448   1.679  0.1851 -0.1213 -0.0508
 3329W        W20176  17.541  15.973  15.022  0.1069  0.0840 -0.2388
 3330W        W20177   2.812  18.007   5.471  0.0020 -0.1021  0.1547
 3331W        W20178   9.690  11.403  14.520 -0.1317  0.0922 -0.1796
 3332W        W20179  14.637  16.711  15.850 -0.0275  0.2128  0.1142
 3333W        W20180   4.693  17.080  13.316  0.3163 -0.1119  0.0981
 3334W        W20181   4.513  16.780   3.474  0.1243 -0.0853 -0.1942
 3335W        W20182   3.160   9.491   0.544  0.1017 -0.2785 -0.4196
 3336W        W20183  13.814   7.369  13.889  0.1747 -0.0204 -0.0768
 3337W        W20184  13.775   0.719   4.126 -0.3684 -0.0008 -0.0540
 3338W        W20185  16.699   3.446  16.491  0.1568 -0.0745  0.0289
 3339W        W20186  13.822   4.566   4.937 -0.1166 -0.0383  0.0643
 3340W        W20187   8.598   7.958  15.036  0.1249  0.3246 -0.2171
 3341W        W20188  10.107   8.032   5.186  0.1972  0.0001 -0.0783
 3342W        W20189  13.911  15.297  14.886  0.0666 -0.1454 -0.3208
 3343W        W20190   4.210  15.037   4.489 -0.1510 -0.0029  0.0412
 3344W        W20191  17.887   9.579  15.468 -0.0162  0.0444 -0.1129
 3345W        W20192   2.372   9.858  14.689  0.1632 -0.1221 -0.0939
 3346W        W20193   1.883  17.144  16.602 -0.3560 -0.2522  0.5083
 3347W        W20194  10.645  17.904  16.621 -0.0053 -0.1151 -0.0532
 3348W        W20195  14.124   4.882  13.070 -0.1979 -0.2710 -0.0149
 3349W        W20196  10.030   7.764  13.823 -0.3124 -0.0203 -0.0638
 3350W        W20197  15.676   0.501   3.662 -0.0305 -0.4674 -0.6016
 3351W        W20198   0.588  14.320   5.704 -0.1404 -0.5389 -0.1039
 3352W        W20199   1.939   9.141   1.416 -0.1752 -0.0502 -0.3094
 3353W        W20200   8.979  10.972   3.069  0.2017 -0.2727  0.3837
 3354W        W20201   5.968  17.092  12.505  0.1477 -0.1800  0.1534
 3355W        W20202   0.567   1.795   1.280 -0.0335  0.4064 -0.1344
 3356W        W20203   8.436   1.951  12.283  0.3352 -0.3654  0.0218
 3357W        W20204  11.786   0.730  16.270 -0.1300  0.1833  0.0677
 3358W        W20205   4.395   4.024  12.243  0.0029  0.1467 -0.1546
 3359W        W20206  16.300   9.292   1.133 -0.0896 -0.3228  0.0770
 3360W        W20207   4.440   8.783  10.504 -0.1593  0.1873 -0.1376
 3361W        W20208  16.482   6.430  14.738  0.0868  0.0197  0.1370
 3362W        W20209  10.882  14.934  16.431  0.3331  0.2272 -0.3009
 3363W        W20210  11.063   5.542   3.499  0.1393 -0.1357 -0.1694
 3364W        W20211  12.921   6.488  13.291 -0.2768 -0.0984  0.2079
 3365W        W20212   7.067  16.810  13.863 -0.1820 -0.1894 -0.0427
 3366W        W20213   7.962  10.614   3.972  0.2996  0.2942  0.0230
 3367W        W20214   7.769  10.388   1.396  0.0721 -0.0441  0.2479
 3368W        W20215  17.095  15.528   2.357  0.0374  0.0005 -0.1145
 3369W        W20216  12.121  13.031  12.096 -0.1285 -0.1086 -0.0710
 3370W        W20217   8.561  17.105  14.504  0.2574  0.0935 -0.1512
 3371W        W20218   9.586   0.667  12.787 -0.1682 -0.0530  0.0088
 3372W        W20219  11.646  17.970   1.101  0.4517  0.0814 -0.1629
 3373W        W20220   9.733  12.943  16.235  0.1528 -0.0445  0.0643
 3374W        W20221  16.544  13.483   0.467 -0.2467 -0.2261 -0.1979
 3375W        W20222   2.549  12.423   3.367 -0.2590  0.1573 -0.1868
 3376W        W20223   3.644  14.649  15.153 -0.0038  0.0996 -0.0651
 3377W        W20224   3.387   0.559  12.988  0.2274 -0.1041  0.0544
 3378W        W20225  15.469   2.795  15.768  0.0584 -0.0118  0.1284
 3379W        W20226  15.179  15.926  13.906  0.1867 -0.1541  0.0736
 3380W        W20227   8.365   8.957  11.292 -0.0306 -0.0229  0.0253
 3381W        W20228   4.952   5.898   0.767  0.1014  0.1529 -0.0199
 3382W        W20229   4.577  11.748  14.668  0.0030 -0.0969  0.1254
 3383W        W20230   7.800  16.586  13.920 -0.1163  0.0305 -0.0596
 3384W        W20231   1.920   2.399  12.016 -0.0037 -0.0208  0.0026
 3385W        W20232   1.875   3.481  12.442  0.2659 -0.0236 -0.2453
 3386W        W20233   5.595   2.046   5.674  0.4622  0.0693 -0.0112
 3387W        W20234  13.290   6.794   0.784  0.1606 -0.1104  0.3425
 3388W        W20235  14.496   2.900  12.117  0.1407 -0.2687  0.1669
 3389W        W20236   3.738   4.117   3.209  0.1524 -0.0650 -0.0682
 3390W        W20237   8.218   4.421  13.164  0.0980 -0.1061 -0.2214
 3391W        W20238  14.982   3.874   1.554 -0.0048  0.0240  0.4432
 3392W        W20239   2.652   4.533  12.624  0.2022  0.1255  0.0667
 3393W        W20240   5.909  12.032   1.289  0.2468 -0.0964  0.4637
 3394W        W20241  11.564   0.516  13.691  0.2167  0.3332  0.0052
 3395W        W20242  11.934   8.291   5.176 -0.2968 -0.0907 -0.0935
 3396W        W20243  14.524  10.911   4.086 -0.1703  0.0497  0.0781
 3397W        W20244  18.032   6.038  14.714  0.0502 -0.0224  0.1235
 3398W        W20245   9.570   6.126  16.324  0.3257  0.1860  0.1235
 3399W        W20246   4.257   0.136   1.015 -0.1109 -0.2258 -0.2798
 3400W        W20247  10.934  14.936   3.490  0.1883  0.2044 -0.2634
 3401W        W20248   1.207   8.038  14.197  0.1761 -0.1880 -0.2644
 3402W        W20249  11.250   5.676  10.738 -0.0673  0.0058  0.2672
 3403W        W20250   0.010  14.966  12.454  0.2013 -0.3392  0.0366
 3404W        W20251  17.974  13.547   4.919 -0.0395  0.0795  0.0023
 3405W        W20252   3.534   2.720  12.167 -0.0341 -0.2460 -0.3051
 3406W        W20253   6.533   5.715   3.111 -0.3101 -0.2089 -0.0942
 3407W        W20254   9.046  14.628   2.803  0.0058 -0.0531 -0.0183
 3408W        W20255   9.845  11.863   4.604 -0.0825 -0.1400 -0.1947
 3409W        W20256   7.771   3.566  13.582  0.2043  0.2153  0.1552
 3410W        W20257  14.997   8.982  12.729 -0.1613 -0.0133 -0.1590
 3411W        W20258   7.318  11.757   6.065  0.0832  0.1274 -0.0658
 3412W        W20259   5.218   8.459   0.190  0.1760 -0.2113  0.3582
 3413W        W20260   4.790   1.505  11.762  0.0586 -0.1409  0.0226
 3414W        W20261  18.068   2.654  13.793 -0.3405 -0.2797 -0.3507
 3415W        W20262  10.159   1.640   4.291  0.2529  0.0437  0.2891
 3416W        W20263  10.679   2.403   4.787 -0.0422  0.1928  0.0907
 3417W        W20264   4.902  13.406   2.531  0.1044  0.3844  0.3769
 3418W        W20265  13.693   6.142  15.289 -0.1610  0.4012 -0.0545
 3419W        W20266   5.363  11.604   5.301 -0.0192 -0.0628 -0.0402
 3420W        W20267   3.475   3.297  13.308  0.1208  0.0832  0.0816
 3421W        W20268  14.068  14.431  15.389 -0.1611  0.2527 -0.1097
 3422W        W20269   4.018  16.847  11.742  0.3185  0.0202  0.1709
 3423W        W20270   8.652   4.837  13.746 -0.2526  0.0360  0.2093
 3424W        W20271  11.825  15.201  16.217  0.5125 -0.2529 -0.0537
 3425W        W20272   1.799  13.554  16.010 -0.2057 -0.1165  0.3610
 3426W        W20273  12.792  15.956   2.203 -0.2447  0.2143  0.3270
 3427W        W20274   8.516  17.668  16.315  0.1193 -0.0162 -0.2163
 3428W        W20275  13.793   9.235   1.992  0.1685  0.0924  0.3431
 3429W        W20276   1.172  16.093   0.286 -0.0641  0.1945  0.0505
 3430W        W20277  12.640   1.558   2.689 -0.3318  0.1671 -0.0611
 3431W        W20278   4.203   0.976  14.382 -0.3108 -0.1351 -0.1697
 3432W        W20279  14.294   9.989   4.655  0.1743  0.1567 -0.0763
 3433W        W20280  10.817   1.846  13.058  0.2741  0.0477  0.2422
 3434W        W20281  17.304  17.348   4.269  0.1318  0.1196 -0.0655
 3435W        W20282   1.665  16.838  15.741 -0.0977  0.2175 -0.0326
 3436W        W20283   8.890  16.900   1.728  0.0147  0.1695  0.0297
 3437W        W20284   9.913   5.063   2.741 -0.4352  0.3530 -0.1429
 3438W        W20285  16.767  13.095  16.550  0.0818 -0.2947  0.0123
 3439W        W20286  11.177   4.399  14.988 -0.0796  0.0291  0.1130
 3440W        W20287  13.758  10.324   3.591 -0.4317  0.1371  0.2679
 3441W        W20288  10.164  12.157   4.819 -0.1328  0.1212  0.0573
 3442W        W20289  13.055   3.295   4.746  0.4347 -0.0631 -0.0436
 3443W        W20290  10.127   7.688  12.606 -0.0563  0.2290 -0.2217
 3444W        W20291  12.988   1.152   3.941  0.3374  0.0128  0.3357
 3445W        W20292  15.876  14.309  15.014 -0.1779 -0.3337  0.3956
 3446W        W20293   9.352  15.779  12.803 -0.1057  0.0947  0.2208
 3447W        W20294   7.890  14.334  10.894  0.0909 -0.0504  0.0091
 3448W        W20295  10.982   0.357  10.529  0.0420 -0.0977  0.1737
 3449W        W20296   1.689   8.484  16.489  0.1279 -0.1946 -0.1805
 3450W        W20297  18.149   6.900   5.616  0.3415 -0.1146  0.0358
 3451W        W20298   3.150   9.650   1.523  0.1205  0.0796  0.2641
 3452W        W20299  12.183  16.706   3.464  0.1162  0.1977  0.4585
 3453W        W20300  16.900   5.840   0.588 -0.1835 -0.0453 -0.0923
 3454W        W20301  17.496  14.946  16.387 -0.1307  0.2493 -0.0248
 3455W        W20302  11.622   8.147  12.933 -0.0679  0.0777  0.1617
 3456W        W20303  16.981   2.493   2.579 -0.0352 -0.2413 -0.0069
 3457W        W20304   7.713   2.690  14.682  0.0192  0.1317  0.1279
 3458W        W20305  17.465   4.621   3.913 -0.4059  0.0127  0.3971
 3459W        W20306   1.348   6.757   4.098 -0.0976 -0.1371  0.1572
 3460W        W20307   7.805   5.072   1.877 -0.1959  0.0510  0.0219
 3461W        W20308  16.638  12.757  14.560  0.1029 -0.0509 -0.0741
 3462W        W20309  14.462  13.583   2.756 -0.1826 -0.2631 -0.0507
 3463W        W20310   8.860   3.260  15.347 -0.0194  0.1775  0.1243
 3464W        W20311  13.548   1.828   0.035  0.1446  0.0827  0.0839
 3465W        W20312   1.455   6.830  12.824 -0.0004  0.3804 -0.1089
 3466W        W20313  13.289  15.988   5.275 -0.1611  0.0289 -0.2124
 3467W        W20314  16.068  14.312   1.563  0.0864  0.0870  0.2508
 3468W        W20315   9.471   9.991  15.981  0.4407  0.0922 -0.0036
 3469W        W20316  10.518  10.603   0.549 -0.0738 -0.0648  0.0255
 3470W        W20317   2.523   6.490   1.593 -0.0175 -0.4754 -0.1525
 3471W        W20318   0.311   3.245  12.554 -0.0329 -0.0919 -0.0123
 3472W        W20319   8.752  17.494  14.248  0.2842 -0.0860  0.0200
 3473W        W20320  14.049   6.503   2.405  0.0769 -0.4744 -0.1509
 3474W        W20321   7.309   5.229  14.927 -0.0347  0.1094 -0.0060
 3475W        W20322  18.015   5.120   1.784 -0.1602  0.0974 -0.1215
 3476W        W20323   6.199  11.051   0.255  0.2008 -0.1339 -0.1718
 3477W        W20324  15.849  17.888  14.823 -0.1707 -0.0291  0.0060
 3478W        W20325   3.108   9.947  11.761  0.3296 -0.0746  0.0575
 3479W        W20326   2.893   4.362   0.276  0.3833  0.0503  0.0460
 3480W        W20327  16.610  14.983  15.115 -0.1304  0.0600 -0.0798
 3481W        W20328  18.160  15.191  13.644 -0.1760  0.3342 -0.0212
 3482W        W20329  12.256  13.751  14.522 -0.0576 -0.0431 -0.0855
 3483W        W20330   8.123   7.575   4.566 -0.4199 -0.2913 -0.2793
 3484W        W20331   6.455   6.901   1.233  0.0506 -0.2103 -0.4541
 3485W        W20332   9.624  15.601  15.083  0.2406  0.1239 -0.0710
 3486W        W20333   8.035  15.456  11.693 -0.3603 -0.0163 -0.0045
 3487W        W20334  11.365   5.973  14.215 -0.0815  0.2506  0.0623
 3488W        W20335  11.399   5.202   2.622 -0.0335  0.0463 -0.0155
 3489W        W20336  12.609   7.183  15.098  0.3016 -0.1020  0.1965
 3490W        W20337   8.676   4.126  11.725 -0.0204 -0.1335 -0.4476
 3491W        W20338  12.095   4.201   2.896  0.3214 -0.0230  0.1421
 3492W        W20339   7.702  15.275   4.681  0.1270  0.0001  0.1564
 3493W        W20340  16.826   5.095  14.740 -0.2058  0.0146 -0.2787
 3494W        W20341  11.110  12.650  15.689  0.1804  0.0231 -0.1263
 3495W        W20342   3.911   9.125   1.689 -0.1019  0.1081  0.1333
 3496W        W20343   8.896   2.800   4.986 -0.0281 -0.0260 -0.0442
 3497W        W20344  16.063   3.732  13.579 -0.0191  0.1465 -0.1068
 3498W        W20345  11.469   5.660   2.311  0.4170  0.4134  0.1448
 3499W        W20346   4.266  11.257   3.680 -0.1164 -0.1278 -0.1996
 3500W        W20347   8.604   6.450   3.731  0.1900 -0.1673 -0.1265
 3501W        W20348   6.681   4.779   3.620 -0.0365 -0.0050 -0.2151
 3502W        W20349  17.374  11.439   0.137  0.1628 -0.0696 -0.0306
 3503W        W20350   9.221   8.752  11.745 -0.1745 -0.0100  0.0938
 3504W        W20351  11.928  17.725  13.456 -0.1224 -0.1223 -0.2848
 3505W        W20352   2.341  12.136  12.529  0.0598 -0.0261 -0.0987
 3506W        W20353   9.086   6.196   1.115 -0.0024 -0.2629  0.4234
 3507W        W20354   9.675   5.779   3.821 -0.1506 -0.1626  0.1038
 3508W        W20355  16.226   7.315   2.299  0.0876 -0.0864 -0.0271
 3509W        W20356  11.485  15.999   4.689 -0.0263 -0.1342  0.0911
 3510W        W20357  16.535   8.761   4.079 -0.0358  0.0760  0.1017
 3511W        W20358  11.426  13.788  16.388  0.0118 -0.1898  0.1594
 3512W        W20359  16.000  11.418   2.161  0.2131 -0.2304 -0.2252
 3513W        W20360  14.865   7.053   3.721 -0.2387  0.1815  0.1121
 3514W        W20361   0.188   0.314  15.495 -0.2693  0.1352 -0.0553
 3515W        W20362  17.306  13.450   0.696 -0.1213  0.0890 -0.1274
 3516W        W20363   7.649   8.502   3.399 -0.0751  0.1582  0.1861
 3517W        W20364   1.936   9.985  12.551 -0.2625 -0.3078  0.2868
 3518W        W20365  13.208   7.235   2.082  0.1232  0.1825  0.1069
 3519W        W20366  10.407   7.257   3.642 -0.1375  0.0244 -0.1093
 3520W        W20367   7.718   8.302   4.156 -0.3648  0.1189  0.3405
 3521W        W20368   0.917   7.437   5.251  0.0253 -0.1520  0.2364
 3522W        W20369  14.868   9.537   5.562 -0.1443 -0.1345  0.1325
 3523W        W20370   8.288   5.333  13.002 -0.1555  0.0459  0.2451
 3524W        W20371  14.615  12.817  15.299 -0.1401 -0.2615  0.3140
 3525W        W20372   3.246   0.916   2.032  0.4018 -0.1055  0.1104
 3526W        W20373   8.854   6.343   0.016 -0.0324  0.1191  0.0491
 3527W        W20374   1.190   3.470   0.224  0.1568  0.2505 -0.0434
 3528W        W20375   6.636   9.241   3.369 -0.1649 -0.1191  0.0833
 3529W        W20376  12.305  13.319   2.877  0.1215 -0.2744  0.0390
 3530W        W20377   2.777  13.769   0.378 -0.1133 -0.0981 -0.0072
 3531W        W20378  15.565   6.770  13.667 -0.1402  0.1088 -0.0381
 3532W        W20379   9.769   9.249   4.223 -0.1870 -0.2236  0.1543
 3533W        W20380  13.546   5.388  13.528 -0.0494  0.1439  0.1657
 3534W        W20381  15.954   3.421   3.965  0.0436 -0.0153 -0.5196
 3535W        W20382  10.325   6.903  12.075 -0.0923  0.3223 -0.0399
 3536W        W20383   9.629  13.444  13.488 -0.1929 -0.2297 -0.1216
 3537W        W20384   0.526  14.841  14.917  0.1518 -0.0658 -0.2304
 3538W        W20385  11.380  15.679  13.195 -0.0228 -0.0350  0.2493
 3539W        W20386   9.531   4.967   1.200  0.1125 -0.0739  0.0237
 3540W        W20387  13.124   0.558   2.162 -0.0894 -0.3839  0.0730
 3541W        W20388   8.936  14.355   0.211 -0.0478  0.3990 -0.0955
 3542W        W20389  13.909   7.062   0.539 -0.1109 -0.2102 -0.1247
 3543W        W20390  11.095  15.120  14.844  0.2258  0.0082 -0.1717
 3544W        W20391   8.423  13.804   4.884 -0.1547  0.1181  0.0045
 3545W        W20392   2.796   4.460   5.441  0.0645 -0.0688 -0.0979
 3546W        W20393  13.880   7.331   3.415 -0.0810 -0.1534 -0.0708
 3547W        W20394  15.170   6.512  11.623  0.3920  0.0667  0.0631
 3548W        W20395  13.756   5.369   5.242  0.0897  0.1068  0.3006
 3549W        W20396   5.004   0.269  12.556 -0.1259  0.1060  0.0619
 3550W        W20397   6.898   9.911   1.091  0.0403  0.2097  0.1478
 3551W        W20398  16.197   9.090  14.873 -0.2178 -0.6323  0.0069
 3552W        W20399   1.728   3.915  13.113  0.0613 -0.0649  0.3575
 3553W        W20400   9.403  14.447  13.580 -0.1939  0.1793  0.0395
 3554W        W20401   9.831  12.215   1.440 -0.0643 -0.0626 -0.1745
 3555W        W20402  17.406  10.375   0.152  0.0485  0.0156  0.0082
 3556W        W20403  12.976  17.484   5.513 -0.0726  0.1013  0.0854
 3557W        W20404  17.624   4.741   1.970  0.1060  0.2804 -0.0474
 3558W        W20405   6.619   5.805   0.616 -0.2564  0.1312 -0.0129
 3559W        W20406   1.419   9.952  13.865 -0.2481 -0.1755 -0.1993
 3560W        W20407  11.840   0.529   4.418  0.2497  0.0424  0.2780
 3561W        W20408  12.170  12.440   4.817 -0.1672 -0.3278  0.0691
 3562W        W20409   7.741  12.985  11.628  0.1592  0.2656 -0.0290
 3563W        W20410  14.594  17.606  12.655 -0.0651  0.3556 -0.2010
 3564W        W20411  15.320   2.768  12.649 -0.0862 -0.0917 -0.0788
 3565W        W20412  12.677  12.253  13.788  0.1194  0.0421 -0.1480
 3566W        W20413   8.896  11.795  12.431  0.0128 -0.0396  0.0595
 3567W        W20414   9.236  16.357  11.349  0.0734  0.0259 -0.1418
 3568W        W20415  14.658  10.780   0.363 -0.2177  0.0091  0.0606
 3569W        W20416  11.302   1.765  14.038  0.1904  0.2675  0.0442
 3570W        W20417   0.118  10.192   0.626  0.1538  0.2804  0.1410
 3571W        W20418  11.601   4.726   4.377  0.1859  0.1948 -0.2901
 3572W        W20419  16.991  16.447  12.662  0.1528 -0.1593  0.1734
 3573W        W20420  11.156  14.159  16.499  0.1918  0.0065 -0.2265
 3574W        W20421   6.448  12.290   4.020 -0.0484  0.0644  0.2097
 3575W        W20422   0.304  15.197  14.637 -0.4601 -0.0384  0.2348
 3576W        W20423  13.510  15.630  15.601  0.1866  0.0035  0.1241
 3577W        W20424  16.533   3.441  12.224 -0.1330  0.0033  0.2686
 3578W        W20425   8.704   6.582  14.007  0.0020  0.0742 -0.0830
 3579W        W20426   8.366  12.604  14.412 -0.1225 -0.0211 -0.2504
 3580W        W20427  17.641   5.286   2.603  0.0423  0.0027  0.0657
 3581W        W20428  15.661   4.802   6.194  0.4937  0.0503 -0.0254
 3582W        W20429  11.056  10.756  14.817  0.4644  0.0010 -0.1084
 3583W        W20430   0.546   4.329  13.532 -0.0777 -0.1422 -0.0519
 3584W        W20431   3.386  12.142   5.191  0.0906  0.0459 -0.1753
 3585W        W20432   4.291   4.340   1.292 -0.0982 -0.0669 -0.1862
 3586W        W20433  15.499   6.539   2.421  0.3957 -0.2419 -0.0258
 3587W        W20434   2.895   9.815  15.586 -0.1479 -0.3684  0.2186
 3588W        W20435   5.303   6.735  11.709 -0.1531 -0.0641 -0.2725
 3589W        W20436  14.435   3.021  16.202  0.1813 -0.0856 -0.0498
 3590W        W20437   2.247  15.684   5.612  0.1566 -0.1139  0.2455
 3591W        W20438   7.757   5.312  12.816  0.0042  0.3702 -0.2816
 3592W        W20439  13.389  16.447   0.315 -0.0434  0.2348 -0.1595
 3593W        W20440   4.302  10.103   1.262  0.2423 -0.3420  0.0229
 3594W        W20441   2.066  10.468  14.113  0.0409  0.0757  0.0915
 3595W        W20442   0.794  10.181  16.518 -0.0532  0.0280  0.1282
 3596W        W20443  12.463   6.140   3.061  0.2478  0.1495  0.2773
 3597W        W20444   1.526   7.603  15.027 -0.1159  0.1341  0.1309
 3598W        W20445   1.786   5.516   5.804  0.0214 -0.0072 -0.1173
 3599W        W20446   5.555  13.299   1.708 -0.0250  0.3019  0.1019
 3600W        W20447   3.382  10.991   5.762  0.2638 -0.1620  0.2030
 3601W        W20448   8.355  16.622  11.887  0.1413 -0.1440 -0.0454
 3602W        W20449  12.402  13.715  14.020  0.2786  0.1172 -0.0003
 3603W        W20450   9.176   1.306  14.694  0.0564 -0.2015 -0.0162
 3604W        W20451   1.883   7.296  12.851 -0.1852  0.0612  0.1206
 3605W        W20452  17.598   2.578   1.030 -0.1355  0.1687 -0.2337
 3606W        W20453   9.065  15.124  11.607  0.0238  0.6504 -0.0998
 3607W        W20454   2.941   5.397  16.414  0.2695  0.0140  0.0968
 3608W        W20455  11.478  16.134  12.643  0.2541  0.2584 -0.0127
 3609W        W20456  15.635   9.271   3.032  0.0500 -0.2067 -0.0690
 3610W        W20457   9.558  13.169  11.892  0.0440 -0.1819  0.1103
 3611W        W20458  14.536  11.818  12.062 -0.0291  0.0363 -0.0550
 3612W        W20459   6.638  12.352   0.067  0.0422 -0.0285 -0.1437
 3613W        W20460  13.152   4.430   2.049  0.0740 -0.3565 -0.0715
 3614W        W20461   4.543   8.028   6.153 -0.0093  0.0760 -0.5636
 3615W        W20462   1.726  17.092   1.416 -0.3239 -0.1934  0.4527
 3616W        W20463   7.970  11.408  16.549  0.2004 -0.1684  0.0154
 3617W        W20464   0.711  16.278  12.829  0.0428 -0.0483 -0.0396
 3618W        W20465  13.637   8.490   4.624 -0.0381  0.2404  0.1034
 3619W        W20466  10.002  15.056  15.817  0.0736  0.1784  0.1720
 3620W        W20467  16.675   2.371  12.312  0.0580 -0.3249 -0.0321
 3621W        W20468  13.774   8.416  12.083 -0.3343 -0.1947  0.0387
 3622W        W20469  12.803   9.487   4.788 -0.2800 -0.1609 -0.1808
 3623W        W20470  15.399  11.105  12.087  0.1174  0.1656  0.5004
 3624W        W20471  17.804  17.896   0.613 -0.1828 -0.0017 -0.0531
 3625W        W20472  15.504  15.487  13.940  0.0128 -0.0959 -0.3069
 3626W        W20473   9.128   8.757  14.657  0.0563  0.0762 -0.0356
 3627W        W20474   9.369  12.648  16.623 -0.2772  0.0018  0.3255
 3628W        W20475   9.008  10.569   1.693  0.0113  0.0046 -0.2696
 3629W        W20476  13.861   1.052   5.495  0.3814 -0.0199  0.0021
 3630W        W20477   6.521  12.110  12.852  0.1747  0.1647  0.3944
 3631W        W20478  12.729  14.211  15.152 -0.0930  0.0438  0.0388
 3632W        W20479   4.879   4.429  12.078 -0.0946  0.0286  0.0096
 3633W        W20480  13.511   6.108   1.215 -0.2266  0.1337  0.0583
 3634W        W20481   2.983  14.226   3.768  0.0038 -0.2907  0.1838
 3635W        W20482   5.830   0.010  14.059  0.2098 -0.0642  0.1644
 3636W        W20483   9.913   2.263   4.142  0.0061 -0.0974  0.0439
 3637W        W20484   1.751   4.958   4.048  0.0423 -0.1767  0.0411
 3638W        W20485  15.856   6.844   3.871 -0.0289 -0.1768 -0.0640
 3639W        W20486  15.382   8.692  12.512 -0.2408  0.1010  0.2368
 3640W        W20487   8.222  11.126   3.304  0.0782 -0.1726  0.0289
 3641W        W20488   4.327   2.081   2.344  0.0852  0.2186  0.1603
 3642W        W20489   0.753  14.935   1.865 -0.0649 -0.1027  0.0362
 3643W        W20490   4.352  10.274  14.119 -0.3128 -0.3481 -0.0052
 3644W        W20491   2.572  12.248  16.590 -0.1219 -0.1256 -0.5116
 3645W        W20492   4.613   4.810   5.300 -0.0780 -0.2063  0.0639
 3646W        W20493   7.274   7.317  13.474 -0.2121 -0.2268 -0.1782
 3647W        W20494  12.981   0.436  12.724 -0.3538  0.1633 -0.3342
 3648W        W20495   4.751  12.088   3.716 -0.1159  0.3714 -0.2246
 3649W        W20496  17.826  17.191   0.046  0.1954 -0.1403 -0.1976
 3650W        W20497   9.674   5.338   0.761 -0.1056 -0.1813 -0.0286
 3651W        W20498   1.858  12.126  14.246 -0.2069  0.2336  0.0161
 3652W        W20499  11.198  16.354  16.180  0.0617 -0.2126 -0.0553
 3653W        W20500  17.577   0.165  11.396 -0.2856  0.1532  0.1236
 3654W        W20501  14.270  15.227   3.435 -0.0012 -0.0951  0.0393
 3655W        W20502   0.973   6.585   0.015  0.1775  0.2865 -0.0434
 3656W        W20503  13.503  12.154   4.326  0.1785  0.0651  0.0236
 3657W        W20504   7.297   6.540   1.289 -0.0811 -0.5268  0.2966
 3658W        W20505   6.868  15.902   3.809 -0.1445 -0.3172  0.0944
 3659W        W20506   3.201   1.895  11.152  0.0072 -0.1377 -0.1417
 3660W        W20507   7.386  12.153  15.391  0.1264 -0.0760  0.0661
 3661W        W20508   1.707   0.137  16.541  0.3068  0.2976 -0.1129
 3662W        W20509  15.835  10.826   2.685  0.0019 -0.1733 -0.0302
 3663W        W20510   2.140   8.651   1.532 -0.1402 -0.0864 -0.0074
 3664W        W20511  14.638   2.420   4.670 -0.1675 -0.1657  0.0391
 3665W        W20512   8.767   6.576  12.461  0.1722 -0.4412  0.0091
 3666W        W20513   3.213  14.778   0.159  0.0809 -0.2030 -0.0866
 3667W        W20514  18.033  13.036   2.266 -0.1211  0.0355  0.0506
 3668W        W20515   8.851  13.754  12.981  0.1614 -0.0469  0.2764
 3669W        W20516  15.069  12.701   0.016 -0.2897 -0.3140 -0.3075
 3670W        W20517  15.693   1.326  16.120 -0.2049  0.2589 -0.2341
 3671W        W20518  17.781   4.679   2.498  0.1836 -0.0066 -0.1934
 3672W        W20519   6.850   6.962  11.970  0.0490  0.6537 -0.1054
 3673W        W20520  12.763  13.166  15.416 -0.0719  0.0101 -0.1138
 3674W        W20521   4.991  10.011  15.368 -0.0978  0.1509  0.0530
 3675W        W20522   5.845   6.689  15.764 -0.3907 -0.0626 -0.0624
 3676W        W20523  10.903  11.767  11.217  0.4018  0.3885  0.0474
 3677W        W20524  13.137  16.943   4.863 -0.0825  0.0571 -0.2794
 3678W        W20525   7.440  10.640  11.163  0.1704  0.1970 -0.0497
 3679W        W20526  17.008   3.581   3.420  0.0467  0.0606  0.3114
 3680W        W20527   0.524  13.309  14.945 -0.1908  0.2731 -0.0307
 3681W        W20528   4.177   4.045  16.527 -0.0588  0.0525  0.0019
 3682W        W20529   3.070  13.177   4.229 -0.4019 -0.0299 -0.3037
 3683W        W20530  11.806   6.943  12.913 -0.0534  0.0197  0.0607
 3684W        W20531  12.778   6.173  14.193 -0.1234  0.0615 -0.0927
 3685W        W20532   6.304   0.987  10.603 -0.0471  0.0386 -0.1652
 3686W        W20533   2.329  17.293   2.812  0.3095 -0.2350 -0.0919
 3687W        W20534   1.928  11.908   3.242  0.2996  0.0405  0.1744
 3688W        W20535  12.759  16.339   4.080 -0.1148 -0.0281 -0.1136
 3689W        W20536  15.223  12.173  13.190 -0.0131 -0.1496 -0.0335
 3690W        W20537   5.282   9.475   6.197  0.0657 -0.1795  0.0264
 3691W        W20538  17.414  15.410  12.605 -0.1335 -0.4466  0.3984
 3692W        W20539  17.642   2.909  12.289  0.3397  0.3779  0.0134
 3693W        W20540   5.476  15.670  16.413  0.0089  0.2850 -0.2397
 3694W        W20541  11.812  11.112   4.050  0.1305  0.1515  0.1573
 3695W        W20542   7.810   6.234  10.876  0.2670  0.0320  0.1335
 3696W        W20543  10.408  13.114   5.371 -0.1207 -0.0203  0.1935
 3697W        W20544   4.664   9.416   1.938  0.1251 -0.0919  0.2172
 3698W        W20545   3.906  11.622   2.289 -0.0437 -0.2041 -0.0742
 3699W        W20546  12.933   3.785   4.947  0.2386  0.4324 -0.1882
 3700W        W20547   8.076   2.948  15.527 -0.2329 -0.0939  0.0264
 3701W        W20548   6.858   5.539  12.574 -0.0795 -0.3312  0.0191
 3702W        W20549   5.218  12.395   4.698 -0.1332 -0.0706 -0.3161
 3703W        W20550   5.135   3.593  12.044 -0.1676 -0.1187  0.1263
 3704W        W20551   4.260  13.824   6.778 -0.1296  0.0055  0.4019
 3705W        W20552   9.502   0.633   2.972  0.0397  0.3066 -0.0091
 3706W        W20553  16.682   8.287   3.180 -0.1426 -0.1119  0.1775
 3707W        W20554   1.208   7.760   0.117 -0.1853 -0.2425 -0.0015
 3708W        W20555   4.314   8.065   2.729  0.1507  0.3903  0.1049
 3709W        W20556   1.537   3.137  15.066 -0.1869  0.1260  0.1811
 3710W        W20557  10.891   4.982   3.507  0.0013  0.0494 -0.1933
 3711W        W20558   8.358  12.328   2.465 -0.0623 -0.0156 -0.3573
 3712W        W20559   2.411  17.874  16.047 -0.1831 -0.1380  0.1905
 3713W        W20560  13.500  11.134  16.529  0.0235  0.1106 -0.2420
 3714W        W20561  17.159   0.274   0.433 -0.2671  0.0110  0.0704
 3715W        W20562   2.868   6.844  13.464 -0.0306 -0.2507  0.0388
 3716W        W20563  13.273   2.433  15.682  0.4227 -0.1726 -0.1194
 3717W        W20564   1.640  17.008   3.504 -0.2294 -0.0701  0.0298
 3718W        W20565   7.326   2.399  12.380  0.5113 -0.2347 -0.1569
 3719W        W20566   4.904  16.928  16.117 -0.2297 -0.1290  0.0290
 3720W        W20567   8.894   3.643  11.715  0.0687 -0.1636  0.2656
 3721W        W20568   0.142  17.925   2.329 -0.2146  0.3051 -0.2034
 3722W        W20569  11.641   4.388  14.672  0.1591  0.0150  0.1189
 3723W        W20570   2.870   8.549   2.871 -0.2203  0.1318  0.0201
 3724W        W20571   5.976   9.680   1.417  0.1683  0.2684 -0.0247
 3725W        W20572  15.254   4.463  12.573 -0.0712  0.0823 -0.1710
 3726W        W20573   5.932  15.351  10.777 -0.2075 -0.1982  0.1634
 3727W        W20574   0.734  12.003  10.912 -0.0644 -0.3136 -0.0279
 3728W        W20575  15.009   3.475  12.455 -0.0448  0.1276 -0.1002
 3729W        W20576  18.031   3.747  15.167 -0.2171 -0.0588  0.1410
 3730W        W20577  13.467  12.796   4.249 -0.1127  0.0992  0.2902
 3731W        W20578  15.206   2.022  12.125  0.1586  0.1749 -0.4767
 3732W        W20579   4.172  14.148   2.760 -0.1418  0.2863  0.0263
 3733W        W20580   6.418  11.500  16.369 -0.0383  0.1925  0.0679
 3734W        W20581   5.611   6.243  12.478  0.0756 -0.1540 -0.0675
 3735W        W20582  12.239  10.924   4.173 -0.0732 -0.0032  0.4197
 3736W        W20583   3.747  13.953   1.159 -0.3522  0.2530  0.2368
 3737W        W20584   9.935   7.564  13.356 -0.0101  0.3566 -0.0433
 3738W        W20585  10.610   8.063   5.306  0.0976  0.1132 -0.0746
 3739W        W20586   9.203  16.416   3.693  0.0956 -0.0971 -0.1286
 3740W        W20587   3.124   2.686  15.762 -0.1103  0.2096  0.0554
 3741W        W20588  15.541  17.800  13.563  0.0175  0.2634 -0.2680
 3742W        W20589   4.470  14.446  15.474 -0.1164 -0.1380 -0.2920
 3743W        W20590  13.017   8.249   2.566 -0.0178  0.2164 -0.5412
 3744W        W20591  10.172   8.248  13.874 -0.1686  0.0495  0.0668
 3745W        W20592  13.314   4.470  13.286 -0.3155  0.0754 -0.1537
 3746W        W20593   4.756   6.424   1.735 -0.1026 -0.2127 -0.0168
 3747W        W20594   4.516   0.497  16.128 -0.1594  0.0647 -0.2575
 3748W        W20595   4.668  14.503  16.524 -0.4617  0.0887 -0.3155
 3749W        W20596   3.469   4.999  14.026 -0.0668 -0.0489 -0.1170
 3750W        W20597  13.367  11.945  11.603  0.1709  0.0496 -0.2512
 3751W        W20598   0.971   5.016  13.304 -0.0072  0.0682  0.0876
 3752W        W20599  16.072  12.284   2.139  0.2628  0.0583 -0.2025
 3753W        W20600  10.996   2.686  14.598  0.1400  0.2822  0.4632
 3754W        W20601  10.476   7.023   1.818 -0.0719 -0.1473  0.1088
 3755W        W20602  13.596   4.704   2.519 -0.0735 -0.2624 -0.0298
 3756W        W20603  11.556  14.874  14.988  0.0978  0.0046 -0.0777
 3757W        W20604   2.639   7.554   0.519  0.1358 -0.0298  0.0042
 3758W        W20605  17.433   2.412  12.458  0.0833  0.2771 -0.0577
 3759W        W20606   5.729  10.635  15.089 -0.2387 -0.2369  0.2259
 3760W        W20607   4.906   3.144  15.438  0.1780 -0.0494 -0.1389
 3761W        W20608  11.189  15.050  15.318 -0.1240 -0.1328  0.2235
 3762W        W20609  14.563  14.326   2.655  0.0910  0.2047  0.1743
 3763W        W20610  13.302  12.618  15.221  0.2529  0.3000 -0.1473
 3764W        W20611   0.915   9.726   2.788 -0.1350  0.1746 -0.1375
 3765W        W20612   5.777   3.846  14.590 -0.0734 -0.1219  0.1558
 3766W        W20613   1.387  16.764  11.824  0.2638  0.2698 -0.1011
 3767W        W20614  11.388  17.912  12.919  0.2378 -0.0018 -0.2658
 3768W        W20615   3.662   5.831   3.523  0.1807  0.5813  0.2144
 3769W        W20616   0.559  10.510  11.341  0.2884  0.4221  0.4284
 3770W        W20617   3.047   6.392  16.082  0.0231  0.1265  0.1915
 3771W        W20618   8.101   0.558   0.352 -0.2299 -0.0013  0.0632
 3772W        W20619  11.087  16.185  13.332  0.1299  0.0076  0.2580
 3773W        W20620   4.197   9.963  13.063  0.2292  0.1344  0.0901
 3774W        W20621   9.797  12.300  12.061  0.3046  0.2333 -0.3018
 3775W        W20622   7.059  13.236  13.371 -0.2006  0.1706 -0.1504
 3776W        W20623  15.807   2.920  12.470  0.0497 -0.2832 -0.0418
 3777W        W20624   6.606   6.679  15.014  0.1248 -0.0298 -0.0583
 3778W        W20625  16.565   3.699  13.593 -0.1549  0.3437  0.2652
 3779W        W20626   4.369  17.670  15.623  0.1129  0.0387  0.0666
 3780W        W20627  16.561   6.018   1.202  0.0154 -0.0446  0.1379
 3781W        W20628  11.920  10.149  12.583  0.0927  0.0471  0.0412
 3782W        W20629   5.049  17.034  12.014 -0.1620 -0.1945 -0.1973
 3783W        W20630  13.607   6.711   0.394 -0.0322  0.1590 -0.1147
 3784W        W20631  14.023  14.726   0.689 -0.0048 -0.0704 -0.1487
 3785W        W20632  12.806   0.637  14.575  0.0774  0.2119 -0.0118
 3786W        W20633   9.149   1.843   1.009  0.0575  0.1143  0.0645
 3787W        W20634   7.371  17.812   1.243  0.1245  0.0082  0.1981
 3788W        W20635  10.653   1.459   4.411 -0.0162  0.0674  0.2288
 3789W        W20636  17.032   6.362  14.568 -0.2166 -0.1712 -0.2629
 3790W        W20637   3.183   3.087   1.334 -0.0033 -0.0803 -0.0216
 3791W        W20638   7.999  11.637   3.381  0.1787 -0.1376 -0.2681
 3792W        W20639   6.678   8.143  12.461 -0.0933 -0.0643  0.0647
 3793W        W20640   8.285   8.325  11.163  0.0171  0.1025  0.3301
 3794W        W20641   7.224  15.362   2.180 -0.1998 -0.1733 -0.3162
 3795W        W20642  16.479  10.944  14.359 -0.0182  0.4333  0.1197
 3796W        W20643  10.911   5.776  13.972  0.0011  0.1474 -0.4251
 3797W        W20644   7.741   7.189   0.717 -0.2584  0.0939 -0.1640
 3798W        W20645  11.156  10.708  14.301  0.0234 -0.0812 -0.0430
 3799W        W20646  12.759   0.469  11.626 -0.0330 -0.2987  0.2516
 3800W        W20647  12.696  15.861   2.657  0.0857  0.1759 -0.1137
 3801W        W20648   7.009  13.739   4.790 -0.1804  0.1612 -0.0276
 3802W        W20649   5.911   5.181  15.722  0.0479  0.0555  0.0602
 3803W        W20650   3.605   7.382  15.241  0.2085 -0.2787 -0.0287
 3804W        W20651  13.267   7.764   3.565 -0.1849  0.1803  0.0417
 3805W        W20652  12.875   8.756  13.013 -0.1954 -0.0596  0.0709
 3806W        W20653  15.046   9.445  13.867 -0.2165 -0.1374  0.0017
 3807W        W20654   7.680   8.328   0.197  0.0546  0.0596 -0.2798
 3808W        W20655   2.097   3.244   4.301  0.1566 -0.1969  0.2625
 3809W        W20656   5.469   9.686   1.295 -0.1443  0.2929  0.0549
 3810W        W20657   5.576   5.889   1.654 -0.0662 -0.0055  0.0182
 3811W        W20658   8.825   7.241  13.905 -0.2782  0.0301 -0.0508
 3812W        W20659   5.517   4.842  16.483  0.0207  0.0517 -0.0423
 3813W        W20660  11.975  11.435  15.715 -0.1482 -0.0690 -0.0245
 3814W        W20661   6.697  14.414   1.305  0.0287 -0.1549 -0.1792
 3815W        W20662  11.554   5.677   3.429 -0.0483  0.0475  0.1618
 3816W        W20663  14.901   7.188  16.008  0.0693 -0.0484  0.2562
 3817W        W20664  17.813   3.161   1.691 -0.0985  0.1672 -0.1422
 3818W        W20665  14.224   0.306   0.998  0.3237  0.0926 -0.0159
 3819W        W20666   7.465  10.253  14.341 -0.1278  0.0045  0.3026
 3820W        W20667   1.431   2.661  15.921 -0.0815 -0.0503  0.3066
 3821W        W20668  16.844   3.876   2.555 -0.0462 -0.0203 -0.1746
 3822W        W20669  10.004  17.578   5.201  0.0721  0.1237  0.0800
 3823W        W20670  17.841   7.551   4.152  0.1183  0.2352  0.0674
 3824W        W20671  14.033   9.292   4.261 -0.2711 -0.0329  0.1211
 3825W        W20672  16.147   5.371  11.719  0.2589  0.0745 -0.1439
 3826W        W20673   1.325   6.795   0.378 -0.0475  0.2235 -0.1172
 3827W        W20674  16.066   1.626  12.291 -0.0390  0.5735  0.2673
 3828W        W20675  17.495   6.635   2.546  0.2736 -0.0838  0.0598
 3829W        W20676  15.491  14.328  15.645 -0.1704 -0.2319 -0.2721
 3830W        W20677   2.907  12.862  15.824 -0.2105  0.1613 -0.1290
 3831W        W20678   2.310  10.573  12.039 -0.0232 -0.0444  0.0907
 3832W        W20679  13.726   2.703   1.012  0.2856 -0.3581  0.2365
 3833W        W20680  16.775  17.690   1.057 -0.2444  0.3649 -0.2719
 3834W        W20681  12.009   5.370   3.608  0.1375 -0.0008 -0.0169
 3835W        W20682   8.338   8.858   0.076  0.0543 -0.4080  0.2355
 3836W        W20683  14.604   8.678  11.996 -0.0213  0.1097 -0.0559
 3837W        W20684   2.025   8.658  13.720 -0.0826 -0.1612 -0.1230
 3838W        W20685  16.272   7.929  15.778 -0.1976 -0.1936  0.0169
 3839W        W20686  15.047  18.130   3.709 -0.3290  0.1239 -0.1190
 3840W        W20687  12.484  10.202   5.882  0.0453  0.0952  0.1226
 3841W        W20688  15.441   8.438  14.850  0.0561  0.1962 -0.0538
 3842W        W20689   1.983  13.156   0.476 -0.0391 -0.3612  0.1045
 3843W        W20690   8.116   4.607   0.024 -0.0194  0.3433  0.1206
 3844W        W20691  10.989  15.600   0.487  0.3581  0.2170  0.2724
 3845W        W20692  16.067   6.338  15.028  0.0086 -0.2392 -0.1554
 3846W        W20693  10.119  16.365   2.845 -0.1284 -0.3167  0.0098
 3847W        W20694   2.471   4.056  15.994 -0.1240  0.1107 -0.3299
 3848W        W20695  17.521  11.071  12.891 -0.3211 -0.3564  0.1920
 3849W        W20696  12.642   1.303  16.126  0.0302 -0.0083 -0.0598
 3850W        W20697   2.406   0.543   3.847 -0.3245 -0.0016  0.2264
 3851W        W20698  16.090   7.647  12.108  0.1007  0.0614 -0.0427
 3852W        W20699  16.434   8.136   2.116  0.0930 -0.2685  0.0892
 3853W        W20700  12.916   6.404   3.142  0.2458  0.1312  0.1911
 3854W        W20701  12.106  11.715   2.875  0.0664  0.0230 -0.0578
 3855W        W20702   5.197   3.350   0.479  0.0749  0.0565 -0.0699
 3856W        W20703   8.755  11.166   4.280 -0.0841  0.3927 -0.1890
 3857W        W20704  14.976  16.877   3.626  0.0912 -0.0557 -0.3425
 3858W        W20705  14.504   0.557   4.609 -0.0311 -0.0687 -0.0786
 3859W        W20706   2.400   7.747  16.617  0.0252  0.1563  0.1101
 3860W        W20707  11.362  13.130  15.857 -0.0772 -0.1893  0.2016
 3861W        W20708  11.510  17.451  14.943 -0.3377  0.0426 -0.0419
 3862W        W20709  16.293   5.857   0.352  0.0457 -0.1613 -0.0321
 3863W        W20710  14.771  13.773  15.905 -0.2467 -0.1264  0.1497
 3864W        W20711   5.920  13.702   5.733  0.1613  0.0451  0.1017
 3865W        W20712   0.577   3.815   3.930 -0.3205  0.0729  0.0573
 3866W        W20713   7.127  17.813   0.478 -0.1596  0.0830 -0.0013
 3867W        W20714   8.225   2.449   5.441  0.2427 -0.1669 -0.1736
 3868W        W20715   6.693   9.792  13.785  0.0781 -0.1054 -0.1900
 3869W        W20716  16.394  15.821  14.080 -0.0432  0.0623 -0.3258
 3870W        W20717   3.644  16.448  14.249  0.1207 -0.1335 -0.0606
 3871W        W20718   7.186   4.755   3.493 -0.5149 -0.0868 -0.2478
 3872W        W20719  12.253   9.542   0.825 -0.0914 -0.2266  0.4831
 3873W        W20720  10.519  12.843  11.680 -0.2082  0.1467 -0.0463
 3874W        W20721  10.222  15.970  14.260  0.0346  0.0523 -0.0860
 3875W        W20722   7.904   8.126   3.674  0.1896  0.3143 -0.0871
 3876W        W20723   7.651  10.319  13.904 -0.0875  0.1101  0.1885
 3877W        W20724   4.303  11.481   2.121 -0.0531  0.1625  0.2091
 3878W        W20725  14.110   2.130  15.257 -0.0470 -0.2975  0.1250
 3879W        W20726   1.023   1.619   5.370 -0.3150 -0.0842 -0.0364
 3880W        W20727   3.731   7.994   1.271  0.0031 -0.1170 -0.0889
 3881W        W20728  16.893   1.275   0.926 -0.1925 -0.1022  0.0989
 3882W        W20729   8.778   9.694  15.614  0.5066  0.2072  0.1121
 3883W        W20730  14.379   7.317  15.089  0.1875 -0.0320 -0.1489
 3884W        W20731   9.308  17.864  16.232 -0.4513  0.2990 -0.1128
 3885W        W20732   6.592   0.545   2.447  0.2218  0.2021 -0.2872
 3886W        W20733   1.644  17.701   2.521  0.1737 -0.0762  0.0788
 3887W        W20734  16.651  17.343  15.042 -0.1502  0.4665 -0.0281
 3888W        W20735   3.942  17.818  15.835 -0.1262 -0.0385  0.1300
 3889W        W20736   1.756   4.294   1.240 -0.4375 -0.2681  0.1335
 3890W        W20737  13.012   3.823  14.361 -0.0103  0.0024  0.1139
 3891W        W20738   6.514   3.550  14.208  0.2792 -0.0824 -0.0450
 3892W        W20739   4.432  16.890   0.417  0.2280  0.1243  0.3189
 3893W        W20740   1.277   7.901   4.968  0.0470 -0.2819  0.1792
 3894W        W20741   1.745   7.341  14.589  0.3045  0.0571  0.1690
 3895W        W20742   8.410  15.339   6.107 -0.1159 -0.2060  0.2403
 3896W        W20743   1.653   5.020   0.471  0.3244  0.1118 -0.0839
 3897W        W20744  16.721   1.193  15.996  0.0035 -0.0618 -0.0186
 3898W        W20745  12.352  16.999   5.205 -0.0457 -0.1080  0.0911
 3899W        W20746  16.585  15.635   5.251  0.1985 -0.2333 -0.2217
 3900W        W20747   5.763  14.157   5.554  0.1083  0.0290  0.1707
 3901W        W20748   2.523   4.585  14.369 -0.2778 -0.1595 -0.0067
 3902W        W20749   6.760   0.351   2.030 -0.0328 -0.1009 -0.1378
 3903W        W20750  12.650  16.796   1.661  0.0394 -0.2130 -0.2317
 3904W        W20751  11.217   2.618  15.490 -0.1305  0.0479 -0.0767
 3905W        W20752  17.560   2.350  12.980  0.1198  0.0388 -0.1334
 3906W        W20753   0.318   2.170  16.002 -0.2862  0.4367  0.1898
 3907W        W20754   0.420  13.032  12.962  0.0731  0.1132 -0.0799
 3908W        W20755   4.897  16.560  13.135  0.0980  0.1253  0.0673
 3909W        W20756   5.677   7.348   5.658  0.2431 -0.0723 -0.2055
 3910W        W20757   2.072   6.345  11.842 -0.2704 -0.0538  0.2345
 3911W        W20758   9.233   7.694   4.307 -0.1558 -0.1766  0.0912
 3912W        W20759  16.365   0.145  10.948  0.0412  0.2381 -0.0299
 3913W        W20760   5.248  13.379   3.440 -0.3396  0.0586 -0.1394
 3914W        W20761   3.703  17.978  14.532 -0.0519 -0.1261 -0.0047
 3915W        W20762  17.252  16.423  14.334  0.0350  0.1010  0.0730
 3916W        W20763  13.988  12.662   1.022  0.0341  0.0449  0.0081
 3917W        W20764  10.756  13.040   5.748  0.0042 -0.4294 -0.1115
 3918W        W20765   2.471   1.405  13.445 -0.1186 -0.2597  0.2367
 3919W        W20766   1.141  10.795  14.550 -0.4112  0.1724  0.0740
 3920W        W20767  17.411  14.954  13.493  0.0724  0.0191 -0.0654
 3921W        W20768   9.737   3.825   1.979 -0.1060 -0.0056  0.2248
 3922W        W20769   8.597   6.937  13.066 -0.1817  0.0338 -0.1246
 3923W        W20770   5.682  10.233  14.249 -0.1839 -0.1015  0.0374
 3924W        W20771   4.045   4.507   5.872 -0.0953 -0.3153 -0.3684
 3925W        W20772  14.684  13.014   2.093  0.2503 -0.2841 -0.0974
 3926W        W20773   5.032   0.918  12.628  0.0097  0.1029 -0.4274
 3927W        W20774   6.039  12.573   3.411 -0.0890  0.1650 -0.0230
 3928W        W20775  11.899   2.169  11.330  0.2085 -0.1747  0.3334
 3929W        W20776   9.111  10.230   2.825 -0.2992 -0.0735  0.0842
 3930W        W20777  10.356   3.454   0.341 -0.2256  0.0640  0.1649
 3931W        W20778  17.733  12.773   0.132  0.2755  0.2682  0.0168
 3932W        W20779   3.708  17.014   1.673  0.0476 -0.0958 -0.0959
 3933W        W20780   3.595   4.797  12.079 -0.0628  0.0905  0.1535
 3934W        W20781  15.435  16.909  11.674 -0.0078 -0.2110  0.2124
 3935W        W20782   9.449  15.386   0.101 -0.2292  0.0667 -0.0268
 3936W        W20783   1.625  15.428  15.995  0.3127  0.0638 -0.2181
 3937W        W20784  12.705  15.156  13.220 -0.3426 -0.0455  0.0528
 3938W        W20785   9.090  11.092   1.735  0.2922  0.2412 -0.0925
 3939W        W20786  14.514  17.149  13.727 -0.1276  0.2258  0.3177
 3940W        W20787   6.203   8.623   5.154  0.0527 -0.3971  0.0086
 3941W        W20788   3.727   3.479  14.307  0.0738  0.1964 -0.2416
 3942W        W20789  15.588  15.876  15.228 -0.0837  0.0031 -0.1034
 3943W        W20790   2.506  14.973   2.535  0.0589 -0.0208  0.3367
 3944W        W20791  16.345  13.877   2.638 -0.0266  0.1823 -0.1138
 3945W        W20792  11.625   3.298   3.744 -0.1617 -0.1418 -0.0225
 3946W        W20793  14.561  13.383   4.894  0.3189  0.1052  0.2203
 3947W        W20794   6.655   5.009  15.469 -0.0922  0.0680  0.0813
 3948W        W20795   1.875  10.111  14.855 -0.4345  0.0665 -0.2915
 3949W        W20796  14.132   8.802   0.915  0.0121  0.2839 -0.0225
 3950W        W20797  17.007   4.017  12.190  0.0235 -0.0901  0.0101
 3951W        W20798  11.958   9.662  13.508 -0.2468  0.0282 -0.0320
 3952W        W20799  17.329   7.575  16.449 -0.1432  0.1751 -0.0772
 3953W        W20800   8.296  11.546   2.966 -0.3056 -0.0587 -0.1223
 3954W        W20801   8.407  16.991   0.572 -0.0268  0.0047 -0.0316
 3955W        W20802   1.108   5.774   3.290 -0.0005  0.1698 -0.1345
 3956W        W20803   5.300   8.995   2.754 -0.1041 -0.0916  0.2765
 3957W        W20804   4.312   3.482   3.365  0.0948  0.1393  0.2051
 3958W        W20805   2.560  17.748  14.067  0.0063  0.3262 -0.1550
 3959W        W20806   8.690  13.836  13.986  0.0111 -0.0225  0.2492
 3960W        W20807  16.191   2.063  12.468  0.1583 -0.1080 -0.0444
 3961W        W20808  13.002   6.819   3.513 -0.0137  0.1284  0.3670
 3962W        W20809  17.501   5.102   0.698  0.0850  0.2363 -0.0135
 3963W        W20810  10.685  10.987   5.281 -0.0563  0.0155 -0.1648
 3964W        W20811   0.406   0.344  13.557  0.3392  0.2253  0.2925
 3965W        W20812   6.292  10.632   5.240  0.2841  0.2425 -0.0010
 3966W        W20813  16.665  13.881   3.554  0.1488 -0.0108 -0.1005
 3967W        W20814   5.935  11.402  14.263 -0.0124 -0.0019 -0.0137
 3968W        W20815   2.687  13.545  11.672 -0.0237  0.0258  0.3138
 3969W        W20816  11.674  16.195  15.153  0.1371  0.0786  0.1502
 3970W        W20817   5.163  17.763  11.654 -0.2526 -0.1522 -0.0792
 3971W        W20818  17.064   4.720   1.991 -0.2151 -0.2141  0.2049
 3972W        W20819   5.027  16.033   0.252  0.0435  0.1063 -0.0431
 3973W        W20820  12.854  15.959  15.945 -0.2892  0.2138 -0.0011
 3974W        W20821   6.786  17.893  16.608 -0.1696 -0.3536 -0.2356
 3975W        W20822   1.205  10.940  16.079  0.0805 -0.1322  0.0481
 3976W        W20823   3.308  13.040   1.158 -0.3080 -0.1433 -0.1090
 3977W        W20824   5.665  10.181  11.310  0.0982 -0.0558  0.0976
 3978W        W20825   4.823   3.492   0.075 -0.1235  0.2008  0.0356
 3979W        W20826   9.499  12.542  13.031 -0.1020 -0.0496  0.0443
 3980W        W20827   3.762  12.493   5.158 -0.4632  0.0019 -0.0985
 3981W        W20828   2.426   0.565  11.674  0.0846  0.0528 -0.4621
 3982W        W20829   6.450  16.099   3.824  0.2012 -0.1060  0.0787
 3983W        W20830   0.700   7.426   0.733 -0.0920 -0.1018 -0.0143
 3984W        W20831  14.315  15.465   1.387 -0.0102  0.1866  0.0170
 3985W        W20832   3.612   6.994   4.981 -0.0706  0.0608 -0.0590
 3986W        W20833  15.417   2.927   6.037 -0.0527 -0.1101 -0.0041
 3987W        W20834   2.015   8.461  11.998 -0.1786  0.3691  0.1463
 3988W        W20835  14.264  11.423  16.506  0.1907  0.2852  0.1833
 3989W        W20836  15.615  10.810  11.714 -0.2145  0.0574  0.1340
 3990W        W20837   7.539  10.361  15.018 -0.1591 -0.1561  0.1563
 3991W        W20838   9.734  16.023  15.927 -0.2021  0.3524 -0.3177
 3992W        W20839  17.443   1.843  12.764 -0.2768 -0.0953 -0.1758
 3993W        W20840   6.096   2.017   0.224  0.0088  0.1152 -0.4107
 3994W        W20841  10.447  17.386   3.858  0.1071 -0.1429  0.6312
 3995W        W20842   2.688   7.081   1.706  0.1348 -0.1424 -0.0402
 3996W        W20843   4.950   0.272  13.595 -0.2557 -0.3126  0.2247
 3997W        W20844   4.435   4.097   3.810  0.1468  0.1740  0.1969
 3998W        W20845   6.055  11.956  16.516 -0.3651 -0.0851 -0.0149
 3999W        W20846  17.914   7.889  12.583  0.1472 -0.0613 -0.0246
 4000W        W20847  15.367   7.480  13.807  0.1515  0.0098 -0.0169
 4001W        W20848  13.543  14.827  16.541  0.0584 -0.1147  0.0898
 4002W        W20849  11.981  15.625   4.310  0.3159 -0.0041  0.0106
 4003W        W20850  16.324   8.668   2.144 -0.0394  0.0582 -0.0225
 4004W        W20851   8.325   5.940  14.741 -0.0869 -0.1367 -0.1906
 4005W        W20852   3.951  11.080   1.474  0.0027  0.0302 -0.2165
 4006W        W20853  16.283  17.631  12.624  0.0699 -0.4164  0.0064
 4007W        W20854   7.524   4.877  12.940 -0.0380 -0.0168 -0.0116
 4008W        W20855   4.907  10.917   0.965  0.1732  0.0219 -0.3573
 4009W        W20856   9.719  13.060   2.810  0.1799 -0.0944 -0.0457
 4010W        W20857   5.408   3.637   2.535  0.1297  0.0909 -0.0077
 4011W        W20858   8.868   3.520  14.936  0.2881  0.0396  0.0188
 4012W        W20859  17.207   3.805   3.839  0.1404 -0.0478 -0.2204
 4013W        W20860   8.111  16.995   0.141 -0.1700  0.1743 -0.1640
 4014W        W20861   4.613  12.068  14.255 -0.1898 -0.0451  0.1806
 4015W        W20862  14.785  14.990  14.447 -0.0307 -0.3253 -0.2106
 4016W        W20863   2.943  10.529  14.981 -0.0422  0.1622 -0.0821
 4017W        W20864   6.573  11.596  15.820  0.3394 -0.3736 -0.0811
 4018W        W20865   5.528  13.838  13.374  0.0273  0.1067 -0.0123
 4019W        W20866  13.485   6.784  16.371 -0.0905  0.0058  0.0149
 4020W        W20867   1.432   5.979  12.512 -0.1550 -0.1333  0.0040
 4021W        W20868  16.860  16.928  11.555 -0.1256 -0.0849 -0.0461
 4022W        W20869   7.014   1.651  11.772  0.3080  0.3193  0.1088
 4023W        W20870  17.507   8.302  13.358 -0.0465 -0.1490  0.0107
 4024W        W20871   0.268   8.069   5.185 -0.2763  0.2074 -0.0808
 4025W        W20872  17.959   9.582  13.008  0.2530  0.3527  0.0322
 4026W        W20873   4.270   9.155  14.842  0.0114  0.0271  0.1632
 4027W        W20874   2.721   1.971   4.534 -0.3871  0.1232  0.2860
 4028W        W20875   5.759  11.704   1.639  0.0001  0.0512  0.1106
 4029W        W20876   1.068   2.387   4.716 -0.3411  0.2352 -0.2160
 4030W        W20877  10.019  17.351   4.034  0.3136  0.1780 -0.1450
 4031W        W20878  14.528  18.152   4.897 -0.2635  0.4000  0.2594
 4032W        W20879   8.937  17.992   3.218  0.0607  0.0640 -0.3703
 4033W        W20880   5.113  11.974  13.504  0.3261 -0.0047  0.1555
 4034W        W20881  15.591   9.741   0.504 -0.1880  0.0129  0.1873
 4035W        W20882  10.535   5.238   0.933  0.0076  0.1910  0.0011
 4036W        W20883  11.887  15.699   1.212 -0.1021  0.1565  0.0417
 4037W        W20884  11.513   0.853   4.600 -0.0187 -0.2182  0.1229
 4038W        W20885   7.559  10.829  16.539 -0.0944  0.0257  0.1612
 4039W        W20886  16.747  13.161   4.274  0.0305 -0.1042 -0.0957
 4040W        W20887   2.453   5.718  16.112  0.0379 -0.2153  0.1417
 4041W        W20888  11.862   0.259  16.250  0.0545 -0.0049  0.0406
 4042W        W20889  13.681  15.950   2.614 -0.0534 -0.1668 -0.0363
 4043W        W20890   2.714   7.714   2.277  0.0780 -0.0129  0.0614
 4044W        W20891   4.882  15.170   3.599  0.1679 -0.0334  0.4592
 4045W        W20892   5.077  11.893   4.081  0.1165  0.4503  0.0064
 4046W        W20893   1.586   5.591  12.738 -0.2066 -0.1155 -0.1043
 4047W        W20894   5.659   0.737   5.045 -0.3039 -0.2466 -0.3271
 4048W        W20895   5.831   3.820  16.545  0.0167  0.4949 -0.0147
 4049W        W20896   5.624   1.143   3.531 -0.1309  0.0116  0.0814
 4050W        W20897  17.419  12.859  13.430  0.0660  0.1263  0.2421
 4051W        W20898  15.299   6.887  10.515 -0.2032 -0.0752  0.1267
 4052W        W20899   7.138   7.739   5.664  0.2541 -0.1344 -0.1258
 4053W        W20900  14.054  17.139   3.912  0.1046 -0.0566  0.2545
 4054W        W20901   5.128  16.635   4.938  0.0869 -0.5934  0.2198
 4055W        W20902  10.688  11.903  12.899 -0.1139 -0.0015 -0.3245
 4056W        W20903   2.436  11.171   2.940 -0.1230 -0.0440 -0.1590
 4057W        W20904   3.854   4.991   0.652  0.1153 -0.0847  0.0581
 4058W        W20905   6.011   0.621  16.081  0.1009 -0.0036 -0.0569
 4059W        W20906  13.813   0.282   4.346 -0.2323 -0.0482  0.3699
 4060W        W20907   3.127  14.896   0.709  0.0497  0.0602 -0.4533
 4061W        W20908   8.637   8.495  14.802  0.0986  0.2437  0.1894
 4062W        W20909   7.653  14.363  14.081 -0.0293  0.0806  0.0787
 4063W        W20910  11.018   7.836  15.290 -0.0187 -0.1789 -0.2534
 4064W        W20911  10.186   5.414  16.215  0.1071  0.0217 -0.0873
 4065W        W20912  10.537  11.409  11.141  0.1840  0.2108 -0.1051
 4066W        W20913  15.164   9.012  11.518  0.0037 -0.0315 -0.0594
 4067W        W20914   4.255   6.959   4.034  0.0269 -0.0248  0.1352
 4068W        W20915  13.146   4.865   2.271 -0.0681 -0.1877 -0.2930
 4069W        W20916  15.286   9.760   2.993  0.0099  0.2402 -0.1407
 4070W        W20917   4.057  15.383   0.055  0.1532  0.0553  0.2772
 4071W        W20918   6.128  17.552  11.637 -0.1211  0.2874  0.1015
 4072W        W20919  11.168  14.415   3.234  0.1461  0.0644 -0.1856
 4073W        W20920   7.055   7.332  15.767  0.1196  0.0928  0.1427
 4074W        W20921   1.274  14.479  13.030  0.1289 -0.0388 -0.1123
 4075W        W20922  10.452   5.848  11.534  0.0054 -0.0446  0.0041
 4076W        W20923   8.642   3.695   1.499  0.4308 -0.1428 -0.2458
 4077W        W20924   2.149  16.316   1.595  0.4164 -0.0212  0.2350
 4078W        W20925  11.148   2.116   1.147 -0.0641  0.0907  0.1250
 4079W        W20926  14.590   8.078  13.730 -0.1361  0.0307 -0.1496
 4080W        W20927  15.946  14.492   3.503 -0.0258 -0.1507 -0.0483
 4081W        W20928   5.698  17.930   1.782  0.1729  0.0630 -0.4838
 4082W        W20929   0.711   3.560  14.311  0.2484  0.1545  0.2197
 4083W        W20930   3.556   4.990   4.231 -0.0584 -0.4679 -0.0265
 4084W        W20931  15.021  12.188  12.015 -0.1673  0.0547  0.2081
 4085W        W20932   6.347   4.144  10.489 -0.1826  0.1138  0.0325
 4086W        W20933   2.443   5.162  12.455  0.2327  0.0869 -0.0910
 4087W        W20934  10.077  17.313  13.783 -0.1319 -0.3365  0.1549
 4088W        W20935   8.528  14.841  13.991  0.2216 -0.0067  0.3112
 4089W        W20936  11.780  16.879   2.344 -0.2417 -0.5085  0.2882
 4090W        W20937  17.363   9.830   1.757  0.0475 -0.1895 -0.1224
 4091W        W20938   1.584   7.180  12.453  0.2044  0.0142 -0.1792
 4092W        W20939   9.883  16.498   3.908 -0.1059  0.1673  0.2307
 4093W        W20940   5.222   3.300  12.544  0.0654 -0.3245  0.1436
 4094W        W20941   2.342   9.522  11.745 -0.0998 -0.2301  0.4105
 4095W        W20942   0.991   8.031   3.512  0.1990 -0.1171 -0.0520
 4096W        W20943   3.196   9.921   4.069 -0.0460 -0.1464 -0.1892
 4097W        W20944   1.171  13.008  16.602  0.1603 -0.2152  0.0614
 4098W        W20945   7.678   5.192  11.868 -0.0777 -0.1086  0.0804
 4099W        W20946   4.558   2.709  12.335  0.2799  0.1370  0.3237
 4100W        W20947  18.107  12.097   3.772  0.2024 -0.1334 -0.0567
 4101W        W20948   3.221   8.049  13.069 -0.0217  0.1960  0.0181
 4102W        W20949   5.693  10.242   4.033 -0.3529 -0.0017  0.1514
 4103W        W20950   9.373  11.174  14.907 -0.4515  0.2107  0.3604
 4104W        W20951  10.597   0.592   4.974  0.0013  0.2155  0.0045
 4105W        W20952   3.810   9.925   0.138 -0.1298  0.2523 -0.0255
 4106W        W20953   3.007  10.742   4.071  0.2173  0.0660  0.0530
 4107W        W20954   7.854   7.436  16.461 -0.1894  0.1222 -0.0966
 4108W        W20955   3.783   2.909  14.131 -0.1587  0.0985 -0.2276
 4109W        W20956  11.610  10.300  11.678 -0.0485 -0.1043 -0.0969
 4110W        W20957  13.105   6.582   4.768  0.1903  0.0794 -0.0810
 4111W        W20958  13.221   7.342   4.462  0.1415  0.0746  0.2005
 4112W        W20959   3.898  16.744   0.663 -0.2878  0.1426  0.0620
 4113W        W20960  12.500   4.496   2.903 -0.0561  0.1927  0.0225
 4114W        W20961   6.123   0.453   2.368  0.1663  0.0292 -0.1358
 4115W        W20962   3.237  16.087   4.722 -0.1230 -0.3875 -0.1391
 4116W        W20963  12.569  17.828   5.262  0.0754  0.1727  0.0692
 4117W        W20964   9.210   5.580   4.766 -0.2685 -0.2890 -0.1952
 4118W        W20965   0.970   5.093  13.884  0.0740 -0.0586 -0.5045
 4119W        W20966  16.083  10.808  12.069  0.1424 -0.2182 -0.1443
 4120W        W20967   2.684  10.614  16.010 -0.2938 -0.3703  0.0450
 4121W        W20968   1.679   5.305  13.214  0.0460  0.0490  0.1000
 4122W        W20969   4.083   3.882   2.133  0.0981  0.3710  0.0708
 4123W        W20970   9.405   4.137  16.183 -0.0793 -0.1139 -0.3315
 4124W        W20971   0.579  10.003   3.798 -0.1564 -0.0306 -0.1173
 4125W        W20972  15.748   5.893  16.371  0.2317  0.1306 -0.0893
 4126W        W20973   5.796   8.147  14.262 -0.0166  0.2275 -0.0308
 4127W        W20974   4.830  15.754  12.758 -0.4168  0.1809 -0.1691
 4128W        W20975   8.109   6.165   0.724  0.2751 -0.0994  0.3237
 4129W        W20976   7.820   4.172  11.065 -0.0157 -0.1701  0.2859
 4130W        W20977   9.794   2.691   0.684  0.1518  0.0464 -0.2836
 4131W        W20978  13.558   1.559  14.029 -0.1028  0.0305 -0.2270
 4132W        W20979   5.240   8.549  14.294  0.0342  0.1421  0.1075
 4133W        W20980  17.271  17.648   4.633  0.2352  0.1659 -0.1502
 4134W        W20981  17.911  16.575  15.992 -0.0527  0.1033 -0.0467
 4135W        W20982  10.307   2.275   1.179 -0.2264  0.3439  0.1482
 4136W        W20983  15.621  15.591  16.054  0.0537 -0.0702  0.1435
 4137W        W20984   4.203  11.302   1.109 -0.0513  0.3153 -0.4105
 4138W        W20985   1.004   3.308  15.244  0.2229 -0.2487 -0.1754
 4139W        W20986  16.350   8.752  14.071 -0.1334 -0.0857 -0.3945
 4140W        W20987   6.835  16.929  11.940  0.0054 -0.0893 -0.1402
 4141W        W20988   4.721   7.120   4.153  0.1638 -0.1364  0.0956
 4142W        W20989   4.450   0.550  13.333 -0.0327 -0.0987 -0.1490
 4143W        W20990  14.545   1.567   0.610 -0.1302 -0.0160  0.1143
 4144W        W20991  16.879  14.912   0.655 -0.2736 -0.1931  0.0297
 4145W        W20992  16.678  16.608  16.452  0.3388  0.3920  0.1431
 4146W        W20993  12.892   9.672  12.570  0.0088  0.1227  0.0984
 4147W        W20994   1.549   4.010   3.670 -0.0954  0.1577 -0.0477
 4148W        W20995  15.070   1.565  11.921 -0.0627 -0.3044 -0.0027
 4149W        W20996  16.805   5.997  12.923 -0.4512 -0.2465  0.2008
 4150W        W20997   9.228  17.327  12.848  0.0980  0.1438 -0.0732
 4151W        W20998   8.329  15.965   5.624 -0.0572  0.2268 -0.1966
 4152W        W20999  14.765   7.309  11.802  0.0079  0.1008 -0.3040
 4153W        W21000  16.979  10.946  15.594  0.0557  0.0070  0.1009
 4154W        W21001  16.668  13.502   6.220  0.5706  0.1325 -0.2457
 4155W        W21002  12.113   2.434  13.988  0.1604  0.1908  0.2368
 4156W        W21003   4.489   4.124   3.030 -0.1585  0.2035 -0.1322
 4157W        W21004   4.658  13.367   3.733  0.1198  0.1112 -0.2072
 4158W        W21005   7.634   3.378  12.214  0.0660  0.0846 -0.0774
 4159W        W21006   0.867   2.863   4.771  0.1149  0.1230 -0.1679
 4160W        W21007   8.663  18.045  13.068 -0.1447  0.0755  0.1325
 4161W        W21008  17.775   6.402   5.658 -0.0471  0.2611 -0.0718
 4162W        W21009  18.121   9.940   1.440 -0.1306 -0.1859 -0.2602
 4163W        W21010   5.854   6.060   2.616  0.1685 -0.0547 -0.2772
 4164W        W21011  17.178   0.473   3.263  0.0513 -0.0236 -0.0422
 4165W        W21012  16.947   7.442  16.147 -0.0313  0.0891  0.0601
 4166W        W21013   6.373   8.492   2.542  0.3077  0.1522  0.2800
 4167W        W21014  10.158   3.048   3.726  0.0469  0.3522 -0.2696
 4168W        W21015  13.529   2.527  11.775 -0.0506 -0.0052 -0.1717
 4169W        W21016   6.644   6.184  15.160  0.3654 -0.0924 -0.2673
 4170W        W21017   2.339  10.785  14.853 -0.3661  0.3439 -0.3266
 4171W        W21018  17.009  14.738  11.769  0.2026  0.1598  0.0378
 4172W        W21019  17.417  12.088  12.725 -0.2623 -0.0403  0.1548
 4173W        W21020  11.540  10.790  14.683  0.1790  0.3021  0.3959
 4174W        W21021   8.525  11.647  11.541  0.2502  0.1048  0.0195
 4175W        W21022   4.952   0.102  15.280  0.0996 -0.0003  0.4517
 4176W        W21023   7.820  16.141  15.977  0.2465  0.1100 -0.3474
 4177W        W21024  11.367  16.001  16.524  0.2148 -0.1413 -0.0916
 4178W        W21025   2.056   0.206  11.775  0.2966  0.0620  0.1300
 4179W        W21026  12.524   4.919   0.898 -0.1241  0.2857  0.1941
 4180W        W21027   4.338  14.299  13.854 -0.0569 -0.0600  0.0669
 4181W        W21028   4.910  11.714  13.942 -0.2580 -0.0544 -0.2182
 4182W        W21029  15.436   2.410   5.095 -0.0023 -0.1759 -0.0421
 4183W        W21030  14.140  13.914  14.411  0.0294 -0.2392  0.1158
 4184W        W21031   7.624  16.117   1.512 -0.2937  0.2874  0.1900
 4185W        W21032   8.081  15.441  14.620  0.3419 -0.0584 -0.1442
 4186W        W21033   0.913  11.044   2.097 -0.2204 -0.2695  0.0066
 4187W        W21034   0.280   5.876   1.902 -0.2795  0.0741 -0.2394
 4188W        W21035  14.954  13.382  11.589  0.1267 -0.3058  0.2558
 4189W        W21036  17.779   0.919   0.534  0.2182 -0.0737 -0.0798
 4190W        W21037  10.759   8.016   5.815 -0.0395 -0.1223  0.0820
 4191W        W21038   7.372   1.392   0.477 -0.0659 -0.4104  0.0099
 4192W        W21039  11.925   3.315   1.438  0.0224  0.0089  0.0031
 4193W        W21040  10.507  15.928  15.477 -0.0058  0.3680  0.4321
 4194W        W21041   6.826   7.123   5.551  0.2815  0.3312  0.0476
 4195W        W21042  14.996   8.529  13.739 -0.0779 -0.1092  0.0550
 4196W        W21043   7.159   6.141   2.749 -0.0344 -0.0862 -0.0525
 4197W        W21044   0.902   4.121   4.263 -0.2837 -0.1402  0.2874
 4198W        W21045  14.780  15.836  12.947  0.1318  0.2364  0.0798
 4199W        W21046  15.070   5.548  14.809  0.0047 -0.1290 -0.2299
 4200W        W21047   8.160  15.243  15.064 -0.0713 -0.0630  0.1814
 4201W        W21048   1.141  17.963  13.869  0.3414 -0.3740 -0.2097
 4202W        W21049  15.559   4.184   2.289  0.3298  0.2710 -0.4046
 4203W        W21050   7.303  15.133   5.310  0.1195 -0.1077  0.2134
 4204W        W21051   2.908  10.777   1.132 -0.1595 -0.1989 -0.0841
 4205W        W21052   4.083  11.460  13.298  0.6178 -0.0223 -0.3031
 4206W        W21053  12.025  16.276   1.063 -0.1049  0.0451  0.1691
 4207W        W21054   0.981   0.551   2.938 -0.2238 -0.2664 -0.0103
 4208W        W21055  15.916  17.218   0.928  0.1107 -0.1930  0.0766
 4209W        W21056   9.678  17.015   1.886  0.1635 -0.1297 -0.2122
 4210W        W21057   6.329   4.032   4.637  0.1567 -0.1379 -0.3241
 4211W        W21058   3.747  14.294   2.607 -0.1850 -0.1512  0.1183
 4212W        W21059   7.042   5.730  11.647  0.2043  0.0493 -0.0667
 4213W        W21060   7.705  12.080  13.993 -0.1496  0.1836  0.1630
 4214W        W21061   8.412   0.623   2.707 -0.2323  0.2606 -0.0534
 4215W        W21062   6.840   5.386  15.185  0.1103 -0.1863 -0.2174
 4216W        W21063   5.701  15.640  12.850 -0.0994  0.0497 -0.0032
 4217W        W21064   3.482   6.972   1.084 -0.1056  0.2729  0.0164
 4218W        W21065  12.373   7.654   6.089 -0.0700  0.1765  0.0081
 4219W        W21066   6.841   2.435   5.493  0.1452  0.2065 -0.0878
 4220W        W21067   6.387   7.035  16.496 -0.1888 -0.0499  0.2373
 4221W        W21068   3.027   7.242   5.739  0.2941  0.0104  0.1613
 4222W        W21069  16.130   7.783  12.716 -0.0085 -0.0351 -0.0210
 4223W        W21070  12.918   0.604  15.418  0.0766 -0.0992  0.1070
 4224W        W21071  13.341   3.810   0.965  0.0817  0.0463 -0.0178
 4225W        W21072   5.983   5.714   1.433 -0.0959 -0.1558 -0.1805
 4226W        W21073   9.144   7.262   0.392 -0.1051 -0.1776 -0.0659
 4227W        W21074  14.941   6.436   2.337 -0.1862 -0.2886 -0.2144
 4228W        W21075  16.457   9.310  15.508 -0.1067 -0.1301  0.1611
 4229W        W21076   8.704  18.157   5.045  0.1474  0.2366 -0.0968
 4230W        W21077   1.912   0.722  11.645  0.0832  0.0838 -0.0742
 4231W        W21078   1.876   2.473  13.248 -0.0550  0.3171  0.0391
 4232W        W21079   9.666  17.692  12.103  0.1391  0.0009  0.0561
 4233W        W21080  11.700  14.754   3.626  0.1170  0.0203 -0.2749
 4234W        W21081   3.837  13.015   5.227  0.4921 -0.0146  0.0029
 4235W        W21082  14.659  17.035  12.000 -0.0795 -0.1808 -0.0130
 4236W        W21083  10.078  13.643  13.654 -0.3286  0.2714  0.0193
 4237W        W21084  14.607  18.168   0.273 -0.2134 -0.1096  0.0298
 4238W        W21085  14.101  10.800   1.163  0.0242 -0.0240  0.2801
 4239W        W21086   9.360   6.520  13.259 -0.0147  0.3932 -0.3630
 4240W        W21087   9.619   1.828   1.732  0.1903  0.2271  0.0972
 4241W        W21088  11.255  10.636  12.922 -0.1190 -0.0988 -0.0451
 4242W        W21089  12.516   8.455  11.843  0.1412  0.1012  0.0321
 4243W        W21090   6.505  17.215   2.569  0.2094 -0.0886 -0.0740
 4244W        W21091   9.673  10.205   1.044 -0.0926  0.2403 -0.0786
 4245W        W21092   6.564  11.161   2.769 -0.0227  0.1332  0.2646
 4246W        W21093  17.541   4.410  13.225 -0.1976 -0.0397 -0.0724
 4247W        W21094   2.502   1.600  14.557  0.1335  0.0120 -0.0387
 4248W        W21095  12.281  14.990   5.201 -0.1292 -0.1250 -0.1763
 4249W        W21096  17.272   8.861  12.952  0.1045  0.2379  0.0514
 4250W        W21097   3.245   7.612  16.007  0.3339 -0.1266 -0.0405
 4251W        W21098   6.439  17.059   6.072 -0.0758 -0.0056  0.0643
 4252W        W21099   1.582  13.049  15.863 -0.0368 -0.0035  0.0537
 4253W        W21100   2.057  12.807   4.960 -0.1809 -0.1702 -0.1933
 4254W        W21101  12.917   5.860   5.165  0.1302  0.1093  0.0708
 4255W        W21102  11.177   2.277   4.554 -0.2187  0.1289  0.0572
 4256W        W21103   6.733  15.395   2.505 -0.1984  0.2047 -0.0767
 4257W        W21104  13.707   1.885  12.503 -0.0770  0.0116  0.0680
 4258W        W21105  17.510   7.933   0.192  0.0257 -0.0603  0.0724
 4259W        W21106  13.450   0.896   3.800  0.0481  0.0455 -0.2709
 4260W        W21107   2.760  12.288   4.311 -0.0691  0.0892  0.2963
 4261W        W21108   1.407  10.747   2.764 -0.2022  0.1071 -0.0359
 4262W        W21109   3.604   4.586   2.977  0.0661  0.1250  0.0406
 4263W        W21110   1.296  13.172   2.281  0.2230  0.0754 -0.1328
 4264W        W21111  15.397  12.639   1.635 -0.2370  0.0380 -0.2999
 4265W        W21112   1.246   3.521   2.644 -0.1902  0.2179  0.3335
 4266W        W21113   9.082   8.781  16.557 -0.1896 -0.0863 -0.2123
 4267W        W21114   0.803  14.950   3.926  0.0200  0.3573 -0.4048
 4268W        W21115   4.103   6.705   5.813  0.1593  0.1009  0.0674
 4269W        W21116  11.659  14.982  11.301  0.0029 -0.0308  0.0939
 4270W        W21117   0.092   1.882   1.993 -0.2712 -0.0465  0.0115
 4271W        W21118  11.284   8.583  12.847 -0.1970  0.0937 -0.2487
 4272W        W21119   0.616  17.586   1.711  0.1168  0.0269 -0.2202
 4273W        W21120  10.084  14.023   0.652 -0.1220  0.0614  0.2468
 4274W        W21121   0.401   8.980   1.793  0.2401 -0.5283 -0.1307
 4275W        W21122   6.188  12.512  14.834  0.0544  0.2976  0.0817
 4276W        W21123  12.350   6.373   4.040  0.1897  0.0502  0.0631
 4277W        W21124   6.376  13.249   0.892  0.2300  0.0720 -0.3320
 4278W        W21125   7.626   1.913  16.203 -0.1849 -0.1799  0.3788
 4279W        W21126   3.962  15.823   0.298 -0.1872  0.0402 -0.0151
 4280W        W21127   6.648   7.548   5.738  0.1496 -0.1437 -0.1569
 4281W        W21128   1.927  15.978  14.153  0.2856 -0.3589  0.2488
 4282W        W21129   1.761  12.223  14.696 -0.0770 -0.3020 -0.2238
 4283W        W21130   5.612  12.942   2.839 -0.3077 -0.2546  0.2693
 4284W        W21131   0.462  16.876   5.594 -0.1584 -0.0113  0.2255
 4285W        W21132   4.964   9.671  16.517  0.1170 -0.1585 -0.0995
 4286W        W21133   4.406   0.551   0.768 -0.1054 -0.1878 -0.3603
 4287W        W21134   0.842  16.785   2.625 -0.0496  0.0344 -0.4045
 4288W        W21135   2.064   4.256  12.788 -0.2244  0.0941 -0.0189
 4289W        W21136   8.896   7.454   3.733  0.0376  0.1637  0.4665
 4290W        W21137  12.045  12.338   4.082 -0.1861  0.1210 -0.0993
 4291W        W21138   2.964  13.725   2.506 -0.0203  0.2825  0.0981
 4292W        W21139  16.229  15.363   0.127  0.2156 -0.2353 -0.2070
 4293W        W21140   9.716  12.532   5.035 -0.0468 -0.1628  0.1990
 4294W        W21141  11.158   3.731   2.960  0.0802  0.1070 -0.1599
 4295W        W21142  14.014   8.927   5.718  0.1268 -0.0536  0.1656
 4296W        W21143   2.566  16.962  15.647 -0.1476  0.2321 -0.1244
 4297W        W21144   4.830   0.513  12.955  0.0755 -0.2621 -0.0950
 4298W        W21145   0.914  11.379   1.543 -0.3267 -0.1931  0.2270
 4299W        W21146   9.853   6.339   0.757  0.0264  0.2544 -0.1057
 4300W        W21147   4.203  10.696   4.395  0.4763 -0.1054  0.0210
 4301W        W21148   0.641  17.679   0.369 -0.1459  0.1243 -0.0388
 4302W        W21149   8.407  10.653   2.542 -0.1301 -0.0998  0.2764
 4303W        W21150  15.929  16.033  14.579 -0.2708  0.1855 -0.0819
 4304W        W21151   3.711   4.159  14.438  0.0975  0.0860  0.0230
 4305W        W21152  13.337  17.212   2.278  0.2413 -0.0263 -0.1097
 4306W        W21153   5.921   3.788  11.303  0.2577  0.1886 -0.0817
 4307W        W21154   5.081   4.399  14.565 -0.0474  0.0987 -0.4528
 4308W        W21155  15.490   1.633  16.481  0.0212  0.0206  0.0384
 4309W        W21156   1.069   1.620   2.340  0.0499  0.2478 -0.0765
 4310W        W21157   1.224   8.070   0.774 -0.1360 -0.3032  0.0338
 4311W        W21158  11.478  11.930   3.652  0.1886 -0.0013  0.2107
 4312W        W21159  14.584   7.821  13.033 -0.0129 -0.3245  0.0595
 4313W        W21160  17.534   8.608  16.348  0.2930 -0.1756 -0.1098
 4314W        W21161  14.767  11.659  14.759 -0.3123 -0.1422  0.0169
 4315W        W21162   6.500  12.200  14.597  0.3994 -0.1203  0.2114
 4316W        W21163  16.853  10.578  11.709 -0.1489  0.2184  0.2488
 4317W        W21164  10.287   8.073   3.079  0.0597  0.2215 -0.0057
 4318W        W21165   9.581   4.359   1.980  0.0999  0.1343 -0.1350
 4319W        W21166   7.132   4.576  14.207 -0.1471  0.0112  0.0876
 4320W        W21167  10.836  15.520   4.817 -0.0376 -0.2118  0.0710
 4321W        W21168   5.451  14.770  16.133 -0.0192 -0.0143 -0.2401
 4322W        W21169   6.130  15.913  14.448 -0.0729  0.1272  0.2430
 4323W        W21170   9.219   5.323  10.124  0.4509 -0.3098  0.2816
 4324W        W21171   7.254  12.900   3.837 -0.1113  0.1641  0.1225
 4325W        W21172   5.709  11.113  12.977 -0.0697 -0.0157 -0.0565
 4326W        W21173   1.583   0.021  14.055  0.1541  0.0467 -0.0354
 4327W        W21174  18.027   5.240  15.309  0.0724  0.0050 -0.0447
 4328W        W21175   4.823  14.430   5.603  0.0741 -0.1769  0.6110
 4329W        W21176  11.759  16.810   5.735 -0.1894  0.1940  0.1726
 4330W        W21177   3.320   9.189  13.931  0.0585 -0.0657  0.3300
 4331W        W21178   6.454  14.298   3.461  0.2043 -0.0203  0.0450
 4332W        W21179  17.340   7.608   4.738 -0.4424 -0.0269 -0.0486
 4333W        W21180   4.385   9.509   3.337 -0.1497  0.0944  0.1638
 4334W        W21181   0.987   9.648   1.546 -0.2719 -0.0155 -0.0566
 4335W        W21182  17.291   2.623  15.126 -0.4419  0.1338 -0.3097
 4336W        W21183  14.916   9.568   2.687  0.1370  0.1953  0.2722
 4337W        W21184  15.987  12.718   3.020  0.1650  0.0794  0.3062
 4338W        W21185   0.674   8.748  15.423 -0.4661  0.3311  0.4064
 4339W        W21186   4.815  16.832   4.002 -0.0758 -0.3128 -0.1680
 4340W        W21187  10.847  13.805  15.732 -0.3280 -0.3682  0.1707
 4341W        W21188  16.769   5.938   3.830  0.1886 -0.2455  0.1028
 4342W        W21189  15.597   6.361  15.228 -0.0585 -0.0450 -0.4894
 4343W        W21190  11.580   6.952  14.227 -0.2661 -0.3268 -0.0700
 4344W        W21191   5.702   5.355   4.240 -0.4054  0.0163  0.2006
 4345W        W21192  14.973  10.471  14.833 -0.4108 -0.0035  0.0953
 4346W        W21193  15.874  11.436  14.759  0.1031  0.3992  0.2475
 4347W        W21194   3.980  15.955  14.737 -0.0809  0.3523 -0.0312
 4348W        W21195   6.588   9.007  11.955 -0.1036 -0.2092 -0.0324
 4349W        W21196  12.041  17.995   4.713  0.2130  0.4096  0.0270
 4350W        W21197   0.249  11.682   4.176  0.0322 -0.0029 -0.0191
 4351W        W21198   5.004  15.994  14.018  0.0305 -0.1564 -0.0236
 4352W        W21199   5.131  15.353   4.581 -0.2482  0.0233 -0.0240
 4353W        W21200   4.289   0.549  14.728 -0.1552  0.0294  0.0754
 4354W        W21201  13.724  16.237  13.877 -0.4319  0.1533  0.1140
 4355W        W21202   4.537  14.080   5.933 -0.3744 -0.2448  0.5779
 4356W        W21203  10.485   4.255  14.710 -0.0537  0.2000 -0.2784
 4357W        W21204   6.660  14.639  13.922  0.3629 -0.0098  0.1785
 4358W        W21205   6.767  15.770   5.684  0.3897  0.0697  0.1980
 4359W        W21206   3.043   8.805  16.490  0.3375 -0.0867  0.2636
 4360W        W21207  11.009   1.600   2.229  0.0942  0.1153  0.0163
 4361W        W21208  17.816  15.421   6.175 -0.0083 -0.3730 -0.2042
 4362W        W21209   6.491   1.661   0.335  0.1023 -0.0310  0.2404
 4363W        W21210  18.142  14.377   4.488  0.1517 -0.1850 -0.0482
 4364W        W21211   2.781   0.365  16.581  0.3259  0.2811 -0.2098
 4365W        W21212  12.052  13.408   2.396  0.2261  0.0048 -0.1284
 4366W        W21213   8.638   8.087  11.422  0.2751 -0.1020  0.1548
 4367W        W21214  17.424   2.908  12.818 -0.1442  0.0492  0.1100
 4368W        W21215   2.716  16.519  15.249  0.0554 -0.0716 -0.3312
 4369W        W21216  16.977   7.169   3.042  0.0778 -0.1461 -0.2433
 4370W        W21217  10.200  17.905  16.517  0.1770 -0.0247 -0.1443
 4371W        W21218   2.229   6.789  14.972 -0.0683  0.2815  0.1890
 4372W        W21219   8.599  13.935   3.677  0.1939  0.2565  0.0354
 4373W        W21220  15.879  11.740   5.205 -0.0650  0.1324  0.2480
 4374W        W21221   6.342  12.803  13.284  0.1060 -0.0758 -0.0142
 4375W        W21222   8.976  17.178  12.404  0.0117 -0.0989 -0.4108
 4376W        W21223   2.684  10.195   2.967  0.2311  0.0807  0.2718
 4377W        W21224   3.840   5.855   4.249  0.0170  0.2056 -0.0060
 4378W        W21225  14.613   3.226   2.201 -0.0402  0.5636 -0.0422
 4379W        W21226  15.459   7.829  15.694  0.0517  0.0446 -0.0114
 4380W        W21227   4.243  14.040  15.729 -0.1710 -0.1323  0.0246
 4381W        W21228  12.947   8.179  13.776  0.0157 -0.1352  0.0579
 4382W        W21229   9.771   4.548  14.363 -0.1083 -0.2256  0.0965
 4383W        W21230  16.081   8.296   5.559 -0.0332  0.2246 -0.1341
 4384W        W21231   8.191   4.047  11.787 -0.2524 -0.1268  0.0459
 4385W        W21232  14.062   8.630  14.056  0.1610  0.1729  0.0868
 4386W        W21233   2.546   5.066  15.281 -0.2439 -0.2112 -0.1792
 4387W        W21234   4.669   0.589  13.849  0.0323  0.0234  0.1536
 4388W        W21235   5.618  17.938  12.894 -0.3883 -0.0701  0.1170
 4389W        W21236   0.365   0.986  13.999  0.1085 -0.1656  0.2674
 4390W        W21237  10.343   5.205   1.521  0.0082  0.0997 -0.2990
 4391W        W21238   3.687   4.368  13.617 -0.0253  0.1687 -0.1489
 4392W        W21239  12.172  12.621  11.268  0.0821  0.0365 -0.3227
 4393W        W21240  16.837   1.593  12.690 -0.0998 -0.1024  0.2111
 4394W        W21241   9.999   8.931   2.562  0.1303 -0.0058  0.0003
 4395W        W21242   2.319  15.419  15.781 -0.0126 -0.1405 -0.0788
 4396W        W21243   7.467   0.643   0.771  0.2376  0.1335  0.1649
 4397W        W21244  17.791  13.856  14.609  0.2919  0.1655  0.0279
 4398W        W21245  11.584  13.175  14.803 -0.0514  0.0569  0.1162
 4399W        W21246   1.743  16.873   2.170  0.2176  0.0079 -0.0278
 4400W        W21247   6.686   6.970   3.373 -0.0837  0.3103  0.1339
 4401W        W21248   8.516   2.920  15.085  0.0804  0.2081  0.0227
 4402W        W21249  10.418   6.617   3.119  0.1196 -0.0882 -0.0064
 4403W        W21250   8.705   8.501   0.064  0.0251 -0.0320  0.0654
 4404W        W21251  15.909   3.086   1.945  0.1430 -0.0179 -0.1783
 4405W        W21252   0.965  14.847   3.248  0.0724 -0.1631  0.0272
 4406W        W21253  10.541  16.768  16.314  0.2092 -0.2573  0.0481
 4407W        W21254   8.472   4.125  12.868  0.2087  0.0748  0.1045
 4408W        W21255  12.598   2.871  11.441 -0.2414  0.0240 -0.0148
 4409W        W21256   7.602   7.161  11.749  0.0176 -0.0721  0.1041
 4410W        W21257  14.066  13.654   5.465  0.2422 -0.2224 -0.1645
 4411W        W21258  15.989  14.850  14.343  0.0975  0.3607 -0.5282
 4412W        W21259   7.457   7.958   3.543  0.2147  0.0862 -0.1701
 4413W        W21260   6.387  14.211  13.729 -0.0812 -0.0009  0.2292
 4414W        W21261   4.396   7.613   2.510  0.2676  0.1107  0.1950
 4415W        W21262  13.341  10.666   0.289  0.2263 -0.0552 -0.0690
 4416W        W21263   4.775  11.294   1.313 -0.1728 -0.0964 -0.0528
 4417W        W21264  12.991   7.341   5.880 -0.0335  0.1851  0.2204
 4418W        W21265   5.019  15.689   3.444  0.1104 -0.1775  0.2632
 4419W        W21266  15.216  16.705   1.990  0.0655  0.2128 -0.3443
 4420W        W21267   4.081   9.794  14.046  0.4463  0.3534 -0.2263
 4421W        W21268   5.462   9.493   2.075 -0.3357 -0.0094  0.1883
 4422W        W21269  14.192  10.532  11.555 -0.1493 -0.3184  0.2577
 4423W        W21270  13.000   9.943   0.970  0.0333 -0.0298 -0.1314
 4424W        W21271   2.490   3.777  13.742 -0.2365  0.0249 -0.2522
 4425W        W21272   6.441   3.949   5.681 -0.0481 -0.0176 -0.0166
 4426W        W21273   9.182   6.403  11.504 -0.2788 -0.2064  0.0263
 4427W        W21274  10.428  17.557   5.548 -0.1915 -0.0946 -0.2304
 4428W        W21275   1.874  14.200  14.321  0.0646  0.2218 -0.1501
 4429W        W21276   4.842   2.757  13.774 -0.0079 -0.0242  0.0725
 4430W        W21277   7.673  17.150  13.175 -0.0119  0.0319 -0.0799
 4431W        W21278  18.031   1.062   2.364  0.2115  0.1163  0.2005
 4432W        W21279   1.709   9.216   3.199 -0.0754  0.2105  0.1319
 4433W        W21280  12.595   6.966   0.058  0.0441  0.2580  0.0688
 4434W        W21281   4.405  18.060   1.780 -0.3786 -0.1926  0.1008
 4435W        W21282   1.609  15.734  13.536  0.0296 -0.1281 -0.0608
 4436W        W21283   0.187   0.895   0.842 -0.0175 -0.1090 -0.0511
 4437W        W21284   2.528  13.151  11.899 -0.0580 -0.0655 -0.0012
 4438W        W21285   6.242   7.211  11.761  0.0018 -0.2761  0.0710
 4439W        W21286   8.093   2.505   1.753  0.0655 -0.2500 -0.0297
 4440W        W21287   4.371   7.363  10.728  0.0727  0.0089 -0.3552
 4441W        W21288   1.564   4.313  11.870  0.1613  0.0295  0.2074
 4442W        W21289  14.035  13.952  15.222 -0.0581 -0.4013  0.2868
 4443W        W21290   4.657  15.590  11.947 -0.0483  0.4937 -0.1429
 4444W        W21291   2.911  15.569  15.121  0.2267  0.0912  0.2037
 4445W        W21292   8.446  11.097   5.190 -0.1912 -0.0465 -0.1065
 4446W        W21293   4.146   4.790   1.588  0.0937 -0.1542  0.2673
 4447W        W21294   8.601   0.826  13.871  0.0486  0.1756  0.0368
 4448W        W21295   4.738   7.589   1.157 -0.1991 -0.1649 -0.5121
 4449W        W21296   4.889   2.521   0.251 -0.0386  0.0220  0.0470
 4450W        W21297   9.847   2.623   0.031  0.1480  0.2747 -0.0600
 4451W        W21298  13.092   7.343   3.589 -0.0360  0.0061  0.1683
 4452W        W21299  18.120  16.873  14.954 -0.2464  0.0164  0.0588
 4453W        W21300  14.655   9.894   0.351  0.4034 -0.1013 -0.0059
 4454W        W21301   3.722   8.731  12.489  0.1321 -0.0024  0.0495
 4455W        W21302  13.115   5.544  13.336  0.0716 -0.2163 -0.0546
 4456W        W21303   8.973   5.200  13.542 -0.1441  0.1066  0.1471
 4457W        W21304  17.851  15.475  16.105 -0.1181  0.0494  0.0125
 4458W        W21305  17.107   7.350  11.411 -0.0992  0.1368 -0.0897
 4459W        W21306  16.725   0.459  13.691  0.2314 -0.2607  0.1682
 4460W        W21307   5.587  10.762  13.290 -0.0449 -0.0607  0.1368
 4461W        W21308   3.917   3.425  14.804  0.0682 -0.0231 -0.2071
 4462W        W21309   2.060   8.933   3.524  0.1220  0.0736 -0.1677
 4463W        W21310   5.987   4.813  14.163  0.1386  0.1134 -0.0140
 4464W        W21311   3.287   8.811  14.725 -0.3025 -0.1396  0.0756
 4465W        W21312   3.725  17.849   3.362  0.1273 -0.1821  0.1278
 4466W        W21313   8.710  13.439   5.107  0.4319  0.2257 -0.1712
 4467W        W21314   3.159  13.813   0.028 -0.0188  0.1382  0.1353
 4468W        W21315   1.437   1.517   4.207 -0.2204 -0.0008 -0.0222
 4469W        W21316  12.757   8.607   0.734 -0.3760 -0.4697  0.0992
 4470W        W21317   9.346   3.231  14.712 -0.1182  0.0541  0.1911
 4471W        W21318  15.736  11.475   3.428 -0.0735  0.2936  0.1124
 4472W        W21319  13.757  13.538  14.181 -0.0509 -0.3290 -0.5644
 4473W        W21320  12.708  12.603   6.152 -0.2026  0.3874  0.2658
 4474W        W21321  15.626   9.391  12.965 -0.0878  0.3393  0.1045
 4475W        W21322   8.551  11.478   1.658  0.0651  0.0608  0.1789
 4476W        W21323   2.614   6.011  13.783  0.1885  0.2905  0.1809
 4477W        W21324   8.600   2.952   5.362  0.2416  0.2366  0.1305
 4478W        W21325   3.845   7.812   2.575 -0.0128 -0.2419  0.1123
 4479W        W21326   0.667   5.255   2.391 -0.3811  0.0182 -0.1131
 4480W        W21327   1.555  16.180  13.356 -0.1398  0.1404  0.1310
 4481W        W21328  12.648   7.156  14.562  0.1136 -0.0156 -0.0909
 4482W        W21329   0.055   5.689  15.368 -0.2433 -0.1937 -0.1475
 4483W        W21330  16.238   8.138   2.881  0.1195  0.2435 -0.2105
 4484W        W21331  10.765   8.335  15.631 -0.3237 -0.0250  0.1475
 4485W        W21332   2.261   2.542  15.597  0.0482 -0.0351 -0.0646
 4486W        W21333   2.883   4.322   4.560 -0.1742  0.0183 -0.1190
 4487W        W21334   9.740  16.065  12.551 -0.3071  0.0251  0.2355
 4488W        W21335  12.361   2.000   5.235  0.0154  0.2435 -0.0942
 4489W        W21336  10.685   6.834  14.112  0.0413  0.1510 -0.1504
 4490W        W21337  14.148   9.133   5.040 -0.1094  0.3007 -0.0569
 4491W        W21338   5.153  11.550   4.450 -0.2078  0.0170  0.4231
 4492W        W21339   2.738  17.086   2.587  0.0874 -0.0869 -0.1644
 4493W        W21340   5.765   3.205  15.875  0.1867 -0.1673 -0.4257
 4494W        W21341  17.579  17.890   2.378  0.0160  0.1058  0.1052
 4495W        W21342  17.420   6.091  12.815 -0.2079  0.0317  0.6217
 4496W        W21343   4.420   1.750   0.654 -0.1141  0.3082 -0.0411
 4497W        W21344   1.169   3.445  14.218 -0.0696 -0.1645 -0.1350
 4498W        W21345  13.248  12.701  14.269  0.1139 -0.0129 -0.1567
 4499W        W21346  13.063  17.938   0.992  0.0300  0.1020 -0.0016
 4500W        W21347   9.214  12.668   2.047  0.0696 -0.3312 -0.1778
 4501W        W21348  12.729  11.244   2.243  0.0519 -0.0482  0.0401
 4502W        W21349   0.130   8.343  12.727  0.1606 -0.2117  0.0778
 4503W        W21350   9.995  14.746  15.390 -0.0352  0.0362 -0.4207
 4504W        W21351  10.814   6.806  16.215  0.0830 -0.1674  0.0140
 4505W        W21352  10.428  16.401  11.910 -0.1500  0.1620 -0.0851
 4506W        W21353   1.346   9.279  12.863  0.2456  0.1095 -0.2082
 4507W        W21354   3.778   0.112  15.778 -0.3664 -0.1564  0.2104
 4508W        W21355  10.227   5.509   5.069 -0.1741 -0.0030  0.2371
 4509W        W21356   2.811   8.723   0.906 -0.0206 -0.0489  0.4092
 4510W        W21357  15.868   9.962  16.179  0.0003 -0.1834 -0.1023
 4511W        W21358  10.794   9.893   0.651  0.3386 -0.2080  0.1235
 4512W        W21359  17.105   7.582  14.456  0.2278  0.2175  0.0912
 4513W        W21360   2.218   2.598   3.828  0.0328 -0.1709  0.1608
 4514W        W21361  16.203  10.817   5.718  0.2770 -0.1419  0.1013
 4515W        W21362  14.872   9.101  12.242  0.0344  0.0240 -0.2452
 4516W        W21363   8.502  12.436  13.452 -0.0375 -0.3743  0.1477
 4517W        W21364  16.091   3.176   1.038 -0.3054  0.1100  0.1410
 4518W        W21365   3.840   2.352  11.836  0.0488 -0.0735  0.2723
 4519W        W21366  17.992  14.885  16.290 -0.1512 -0.0063  0.0845
 4520W        W21367  17.040   4.692   3.592 -0.1410 -0.1493  0.0930
 4521W        W21368  10.695   8.981  14.069  0.1958 -0.0929 -0.0545
 4522W        W21369  13.712  17.623   4.793  0.1743 -0.1834  0.2695
 4523W        W21370  14.274   6.875  14.713 -0.1475  0.1619  0.0265
 4524W        W21371   4.433   5.185   3.883  0.0821 -0.3832 -0.2044
 4525W        W21372   2.586   5.633   3.448 -0.2668  0.0491  0.3999
 4526W        W21373  15.767  10.586   0.924 -0.1853 -0.0762  0.1569
 4527W        W21374  11.079   7.480   4.193 -0.0660 -0.0000 -0.0975
 4528W        W21375  12.801  17.365   3.442 -0.0662 -0.2199  0.2152
 4529W        W21376  13.563  10.809  15.559  0.0378  0.2859  0.0062
 4530W        W21377   0.988  11.105   6.636  0.1693  0.0852  0.1022
 4531W        W21378   6.193  17.318  13.489  0.0716 -0.0355 -0.0998
 4532W        W21379   5.691  13.136  16.186  0.0275  0.2771  0.2972
 4533W        W21380   5.433   1.729   0.924  0.0941  0.0147 -0.5558
 4534W        W21381  10.222   1.351   3.885  0.0847 -0.1502  0.1482
 4535W        W21382   5.737   0.313  14.718 -0.0477  0.2099  0.0552
 4536W        W21383   7.444  10.809   0.529 -0.1394 -0.2008  0.3010
 4537W        W21384  16.536  13.351   2.863  0.0352 -0.1645 -0.1235
 4538W        W21385   0.904   0.754  16.201 -0.0322  0.0447 -0.2668
 4539W        W21386   7.892   6.867  13.779 -0.0724 -0.3474  0.1713
 4540W        W21387  17.154   8.197  15.819 -0.1233 -0.0387 -0.0527
 4541W        W21388  10.759  16.619   0.451 -0.1474  0.0914  0.0389
 4542W        W21389  17.861   4.407   1.099 -0.1572 -0.3549  0.1714
 4543W        W21390   3.268  11.233   3.598  0.0577 -0.0717 -0.0296
 4544W        W21391  15.716  10.099   3.353 -0.0926  0.1266 -0.1292
 4545W        W21392   6.957   4.370   0.546 -0.0729  0.1132 -0.4117
 4546W        W21393  12.492  11.509   1.031 -0.1537 -0.0848 -0.1798
 4547W        W21394   6.406  11.438  13.459 -0.3542  0.0842  0.2474
 4548W        W21395   7.699   6.965   2.926  0.0409  0.1052  0.0850
 4549W        W21396   3.293   4.564   2.150  0.0906  0.1078  0.0239
 4550W        W21397  14.740   4.836   1.315  0.0210  0.2123  0.2017
 4551W        W21398   3.404  11.135   2.828 -0.2716 -0.2261 -0.0814
 4552W        W21399   4.165   2.562   2.278  0.0977 -0.0421 -0.4973
 4553W        W21400  14.440   2.060   0.361  0.3329  0.3796 -0.0899
 4554W        W21401  17.427  11.143   5.938 -0.0590 -0.1713  0.4444
 4555W        W21402  13.974  14.403  14.230  0.1417  0.1509 -0.1869
 4556W        W21403   7.127   5.236   3.052 -0.4301 -0.0485  0.1371
 4557W        W21404  11.820   5.996   4.754  0.2888 -0.1717  0.0090
 4558W        W21405  12.456   6.060   0.854  0.0133  0.1110 -0.1778
 4559W        W21406   6.196  11.504   1.811  0.1980 -0.0175 -0.0193
 4560W        W21407  10.165  16.093  11.571  0.0038 -0.2883 -0.1523
 4561W        W21408   7.288   4.575   5.357 -0.3049  0.0660  0.3584
 4562W        W21409   6.210   0.082   3.541 -0.0656 -0.1813 -0.1580
 4563W        W21410   6.236   9.959   3.591 -0.2620  0.0839  0.0662
 4564W        W21411   6.583   9.680   1.421 -0.1675 -0.0708 -0.2031
 4565W        W21412   5.274  16.060  15.763 -0.0042  0.0546 -0.0962
 4566W        W21413  14.300  15.901  16.189  0.1467  0.1504 -0.1045
 4567W        W21414   6.383   4.094   2.582 -0.1780 -0.2451  0.2857
 4568W        W21415   9.399   3.523  13.752  0.1571 -0.3751  0.1548
 4569W        W21416  12.900   5.476   3.406  0.1115  0.0596 -0.1984
 4570W        W21417   5.766   6.321  16.216 -0.2728 -0.0444  0.1590
 4571W        W21418   2.841  16.050   6.526  0.2427  0.2130  0.0535
 4572W        W21419  14.180  11.176  14.105 -0.1327 -0.0486 -0.0395
 4573W        W21420   3.868  10.745  15.256 -0.0294  0.0284  0.1571
 4574W        W21421   6.199  16.711  15.734  0.1509  0.2416  0.0569
 4575W        W21422  10.280  16.908   4.658  0.3199 -0.0350 -0.1349
 4576W        W21423   7.040   3.808  15.802 -0.0591 -0.1084 -0.0445
 4577W        W21424  15.010  11.685  13.359  0.1708 -0.3801  0.0124
 4578W        W21425   7.185  10.016  13.050 -0.1891 -0.0150  0.2551
 4579W        W21426  13.872   5.229  15.159 -0.2527 -0.0165  0.1930
 4580W        W21427   1.460   8.737   4.663 -0.2289 -0.0550 -0.2530
 4581W        W21428   4.537   3.948   0.295 -0.2227  0.2353 -0.0919
 4582W        W21429   9.471  15.242  12.953  0.4914 -0.4779 -0.2944
 4583W        W21430   3.974  13.355   3.799  0.0330  0.1569 -0.0084
 4584W        W21431   7.824   2.628   2.702  0.0919  0.1242 -0.1203
 4585W        W21432  11.386  16.112   4.200 -0.0860 -0.1964 -0.1123
 4586W        W21433  12.477  10.274  14.259  0.2290  0.0542  0.1969
 4587W        W21434   0.993   4.638  11.187 -0.0794  0.3781 -0.5009
 4588W        W21435  13.565   8.917  16.589  0.2703 -0.1373  0.2532
 4589W        W21436   2.306  15.953   3.524  0.1734 -0.0277 -0.2333
 4590W        W21437   9.477  13.822   1.531  0.2417 -0.0925  0.0251
 4591W        W21438   2.260   5.584   4.390  0.3069 -0.1218 -0.1247
 4592W        W21439   5.908   5.010   1.962 -0.2009  0.2227  0.1097
 4593W        W21440   6.228   6.239  11.766 -0.1900 -0.0008  0.4045
 4594W        W21441   8.030   3.663  14.450 -0.0566 -0.0669 -0.0658
 4595W        W21442   4.770  13.934  16.445 -0.2815 -0.1712 -0.1977
 4596W        W21443  11.141   9.517   5.459  0.0518 -0.2086 -0.1059
 4597W        W21444   3.612  12.866   5.736 -0.0209 -0.2245  0.1973
 4598W        W21445   8.758   5.839   5.943 -0.0045  0.0892  0.1224
 4599W        W21446   8.812  16.214   2.211 -0.2977 -0.0588 -0.0494
 4600W        W21447  15.929  17.747  12.194  0.0053 -0.0217 -0.2768
 4601W        W21448  11.394  15.006   5.915 -0.0167  0.0410 -0.4729
 4602W        W21449   5.279  17.636  14.599  0.3796  0.2120  0.0303
 4603W        W21450   4.319   1.735   4.931  0.0334 -0.1076  0.2365
 4604W        W21451   9.992   6.956  15.285  0.0227  0.0013 -0.0645
 4605W        W21452  16.090   5.443   4.489 -0.0423 -0.3247  0.0832
 4606W        W21453   6.115   3.140  12.582 -0.1037  0.1214 -0.3870
 4607W        W21454  15.603   0.194   1.132  0.0176  0.0335 -0.1062
 4608W        W21455  13.148  16.012   1.750 -0.1771  0.3308 -0.1619
 4609W        W21456  11.478  14.837  16.263 -0.0525 -0.0910  0.3273
 4610W        W21457   2.062  13.922   2.249  0.1433 -0.1454 -0.1424
 4611W        W21458   3.522  10.679   2.665 -0.3799 -0.1256 -0.0375
 4612W        W21459   7.384  17.890  11.866 -0.4078 -0.0165  0.1929
 4613W        W21460  12.931   0.497   3.865 -0.0039 -0.0606  0.0539
 4614W        W21461   9.153   8.685   3.590 -0.3105  0.2492  0.0025
 4615W        W21462   9.712  17.569  12.744 -0.1854 -0.0576  0.3570
 4616W        W21463   4.095   4.276  14.762 -0.4450  0.6483 -0.1599
 4617W        W21464   6.109   1.433   0.745 -0.3770 -0.3810 -0.1155
 4618W        W21465   4.031  18.163   1.444 -0.3784  0.2648 -0.1496
 4619W        W21466   9.643  13.786   3.838  0.1251 -0.2464  0.0457
 4620W        W21467  17.090  17.067   5.256 -0.3189  0.2454 -0.1566
 4621W        W21468  12.922   4.433  13.910 -0.3040  0.2311  0.0735
 4622W        W21469   1.068  15.162   2.537  0.0168  0.0025 -0.0257
 4623W        W21470   8.350  15.386  16.364  0.3013 -0.0896  0.1832
 4624W        W21471  11.116  13.359  16.381 -0.2484  0.0092  0.0637
 4625W        W21472  13.278   5.374   0.248  0.1348 -0.0084  0.0870
 4626W        W21473  12.911   8.961  14.743 -0.2953 -0.2650  0.0242
 4627W        W21474   2.251   5.012   2.998  0.0004 -0.2430 -0.1185
 4628W        W21475   9.421   2.984   2.504  0.1849  0.1355  0.0145
 4629W        W21476   7.507  14.769  15.605  0.0231 -0.1885 -0.2557
 4630W        W21477  15.366  13.901   4.186 -0.0309 -0.1413 -0.1088
 4631W        W21478  15.779  16.557  12.907 -0.1276 -0.1060 -0.1181
 4632W        W21479   4.619   1.568  14.857 -0.1782 -0.1940 -0.2072
 4633W        W21480  13.837  15.305   5.224 -0.1634 -0.0888 -0.2278
 4634W        W21481   3.175  17.233  12.039  0.0525 -0.2086 -0.0044
 4635W        W21482   5.943   1.002  15.502  0.2412 -0.1297 -0.2291
 4636W        W21483  15.409  11.641   5.505 -0.1566 -0.0591  0.0465
 4637W        W21484   7.807   4.315  11.631 -0.0969 -0.1768  0.0948
 4638W        W21485   6.308  14.883   0.770 -0.0516  0.0395  0.2752
 4639W        W21486   4.155   3.006   3.421  0.1471 -0.1291 -0.2263
 4640W        W21487   5.916  17.033   2.473  0.0282 -0.0747  0.0404
 4641W        W21488   0.683  17.434  12.692 -0.0221 -0.0801 -0.1920
 4642W        W21489  16.076   2.674  13.848 -0.1948  0.1404  0.3308
 4643W        W21490   3.153   9.243   5.513  0.0875  0.2656  0.2564
 4644W        W21491   1.387   4.839  13.104  0.2035  0.2366  0.1994
 4645W        W21492   2.769  11.677   4.470 -0.1069  0.3123 -0.0347
 4646W        W21493  11.192   3.421  15.885  0.1152  0.0539 -0.0662
 4647W        W21494   8.723  11.286   2.068 -0.1931  0.5159 -0.4026
 4648W        W21495  17.543  16.274  11.511  0.3314  0.0705  0.0197
 4649W        W21496   7.112   5.704  13.536 -0.0802 -0.2117  0.0567
 4650W        W21497  13.711   2.687   4.842  0.0067  0.0207 -0.0090
 4651W        W21498  15.008   2.534  14.831 -0.3789  0.2197 -0.0996
 4652W        W21499   1.754   1.813   1.247  0.1484 -0.1023  0.4407
 4653W        W21500  17.954   0.347  14.111 -0.1177 -0.1046  0.0898
 4654W        W21501  16.519  12.699   4.295  0.0722 -0.0801  0.2852
 4655W        W21502   0.107   5.749  11.752  0.0136  0.2298 -0.2054
 4656W        W21503  15.877  10.291   4.994 -0.4040  0.2603  0.0018
 4657W        W21504  15.012  11.748   0.752  0.0123  0.3339 -0.2932
 4658W        W21505   0.947   5.946   1.243  0.0213 -0.0299  0.0675
 4659W        W21506   7.794   5.655   0.146  0.3364 -0.1597 -0.0420
 4660W        W21507   0.699   5.220  15.455  0.3189 -0.0392 -0.1454
 4661W        W21508   8.480  10.980  16.191  0.0330  0.1390 -0.1133
 4662W        W21509   3.398   6.724  14.885  0.0746  0.1606 -0.0787
 4663W        W21510   6.711  15.917  14.904 -0.1854  0.2548  0.0877
 4664W        W21511  11.145   0.766   3.645  0.0503 -0.0259  0.2078
 4665W        W21512   3.734   1.082   1.897 -0.1222 -0.4087 -0.0593
 4666W        W21513  11.242   4.838  16.451  0.0182 -0.0841 -0.1983
 4667W        W21514   6.682   7.802   1.846  0.1234 -0.2230 -0.0335
 4668W        W21515  13.569   1.371  15.486  0.3777 -0.1597 -0.1454
 4669W        W21516   6.204  15.241   3.605  0.1036  0.2364  0.1586
 4670W        W21517  14.866  17.687   0.099 -0.3505 -0.0977 -0.3422
 4671W        W21518  17.941   3.268   0.708 -0.2175  0.2040  0.1310
 4672W        W21519   1.821  17.552  12.934 -0.0501 -0.0371 -0.1120
 4673W        W21520   0.576   8.560   0.410  0.2372  0.1057 -0.2986
 4674W        W21521  18.085  16.546   5.132 -0.0244  0.0728  0.0398
 4675W        W21522  11.506   0.531   2.159 -0.1262  0.2226 -0.2049
 4676W        W21523   8.603  15.396   0.234  0.3879 -0.1146 -0.4491
 4677W        W21524   6.223   0.485   0.220  0.1386  0.2707  0.1880
 4678W        W21525   1.923   1.204  11.413 -0.1369 -0.0907 -0.3489
 4679W        W21526  15.725   9.076  11.624  0.0609  0.2174 -0.0575
 4680W        W21527  11.867   0.699  15.342  0.1813  0.3318 -0.0706
 4681W        W21528   5.450   9.669  12.469  0.0892 -0.0846  0.2699
 4682W        W21529  13.152   0.986   0.621  0.0624  0.0714 -0.0709
 4683W        W21530   2.884  10.427   2.440  0.2104  0.1494  0.1110
 4684W        W21531  13.880  17.086  15.842  0.1143 -0.1391  0.0538
 4685W        W21532   7.754   8.959   1.628  0.0827  0.4111 -0.4645
 4686W        W21533  14.996  16.787  16.325 -0.0066 -0.0270 -0.4039
 4687W        W21534  10.596  12.093   0.997  0.0709  0.1484 -0.2042
 4688W        W21535   3.146   3.393   0.003 -0.1326 -0.1094  0.3156
 4689W        W21536   2.964   5.449   1.602 -0.1242 -0.1849 -0.1015
 4690W        W21537  17.400   7.703   1.609  0.1365 -0.1482 -0.2476
 4691W        W21538   8.847   7.294   1.430 -0.2519 -0.1922 -0.5039
 4692W        W21539  14.169  15.926   2.298 -0.2600 -0.4153 -0.0536
 4693W        W21540  17.069  15.488   1.871 -0.1763  0.0819 -0.1031
 4694W        W21541   0.947  16.277  14.392 -0.1602  0.5110  0.0663
 4695W        W21542   1.037  17.771   3.291  0.1899  0.0634  0.0610
 4696W        W21543   9.912   8.560   2.225  0.0941  0.0847  0.0784
 4697W        W21544  18.097   7.215  16.566  0.0354  0.1038  0.0470
 4698W        W21545   5.593   9.234  10.974 -0.0328 -0.2782 -0.2170
 4699W        W21546   2.749  12.860  13.054 -0.3994 -0.0883  0.2021
 4700W        W21547  17.404  14.528  12.717  0.2982 -0.1884 -0.0294
 4701W        W21548  17.477  13.694   4.741  0.0294  0.4317 -0.0570
 4702W        W21549   1.927   9.114  12.940 -0.1670  0.1463  0.1370
 4703W        W21550  16.311  12.271  16.609  0.0338  0.1723  0.1138
 4704W        W21551  16.868   6.390  15.486  0.2912 -0.2095 -0.1468
 4705W        W21552   4.091   4.307  12.611 -0.1279  0.2646  0.0519
 4706W        W21553   3.365   0.315  11.962 -0.0018 -0.0044 -0.0519
 4707W        W21554   6.602  15.318   1.351  0.2390  0.1798 -0.0801
 4708W        W21555  14.841  11.366   4.321  0.2284  0.1373  0.1481
 4709W        W21556   6.651   7.879   5.344 -0.2553 -0.0271 -0.0018
 4710W        W21557  10.949  10.156   4.353  0.2327 -0.1407  0.4508
 4711W        W21558  12.180   9.836   4.154  0.1575  0.0777 -0.0844
 4712W        W21559   7.482   0.448   1.529  0.0953 -0.2427  0.3084
 4713W        W21560  14.629  15.877   1.501 -0.0456  0.0960  0.0469
 4714W        W21561  12.793   3.690  10.954  0.0638  0.0764 -0.0531
 4715W        W21562   5.591   7.685  16.335  0.0775 -0.0324  0.2535
 4716W        W21563  10.778   8.655   3.113 -0.0722 -0.3425  0.1754
 4717W        W21564   3.406   2.446   5.734 -0.2415  0.0261  0.0405
 4718W        W21565  13.018  12.691  12.888 -0.0804 -0.2371  0.0275
 4719W        W21566  12.594   0.939   3.753 -0.0538 -0.1396  0.0463
 4720W        W21567   7.366  17.811  15.562  0.0999  0.1958  0.0623
 4721W        W21568  18.068   4.577  12.319 -0.5575 -0.1381  0.2298
 4722W        W21569  17.377   4.252  16.111 -0.2531  0.2720 -0.4214
 4723W        W21570   5.738   8.481  15.553 -0.1205  0.1901  0.2615
 4724W        W21571   1.733   6.619  14.762 -0.3052 -0.0521  0.3215
 4725W        W21572  14.166   5.667  16.357  0.2026 -0.0571 -0.0675
 4726W        W21573   9.464  14.742  14.768 -0.1263 -0.1160 -0.0908
 4727W        W21574  14.806   6.940   0.608  0.2349  0.0082  0.2569
 4728W        W21575   0.336  16.919  15.450 -0.1047  0.1721  0.2135
 4729W        W21576  13.262   6.356  11.546 -0.2385 -0.0661  0.1212
 4730W        W21577   7.208   8.787   3.613 -0.1418 -0.0308 -0.2731
 4731W        W21578   3.840   6.209   0.790 -0.3344  0.0690 -0.0942
 4732W        W21579   4.351  12.143  12.451 -0.0656  0.1306 -0.0470
 4733W        W21580   6.955  13.691  16.343  0.2479 -0.0927  0.0557
 4734W        W21581  10.217  12.361  13.659  0.1286 -0.1840  0.0574
 4735W        W21582   3.736  11.405   1.110  0.0712 -0.0223  0.0319
 4736W        W21583   3.135   8.290  13.740 -0.4224  0.0223  0.0546
 4737W        W21584   2.120  16.150  16.404  0.2674  0.1198 -0.3531
 4738W        W21585   9.016   4.424  11.120 -0.0959  0.0383 -0.1281
 4739W        W21586  10.500  11.414  14.645  0.1228  0.1783 -0.0875
 4740W        W21587  17.279   1.837  16.223 -0.0889 -0.1579  0.2253
 4741W        W21588   2.242  12.664  16.447  0.0739 -0.0834  0.0938
 4742W        W21589   1.115   7.363  15.637 -0.1356  0.3152  0.1683
 4743W        W21590   2.355   8.242  12.382 -0.1616 -0.4394 -0.1701
 4744W        W21591   6.231  10.426  11.874 -0.3005  0.0158  0.0686
 4745W        W21592  10.272  16.578  14.534 -0.0484 -0.3253  0.1347
 4746W        W21593  12.244  10.884   3.191  0.1315 -0.0249  0.3060
 4747W        W21594   4.118  15.210   3.622  0.0378 -0.1252  0.4297
 4748W        W21595   9.444   8.650  15.165  0.1228  0.1758 -0.1543
 4749W        W21596  14.617  10.849  11.610  0.0491 -0.3631  0.0146
 4750W        W21597   2.240  14.488   4.794 -0.0487  0.3142 -0.0189
 4751W        W21598  16.600   3.858  12.558 -0.0838 -0.1098 -0.1399
 4752W        W21599  17.931   7.082  14.174  0.2300 -0.4100 -0.2677
 4753W        W21600  15.353   8.255   2.986 -0.2196  0.1523  0.1328
 4754W        W21601  15.534  12.400   3.023  0.1200 -0.1666 -0.0737
 4755W        W21602  15.300   3.084  13.697 -0.2735 -0.4631  0.0325
 4756W        W21603  15.058  14.568   5.214 -0.3261  0.1405 -0.3404
 4757W        W21604   7.445   3.673   0.719  0.1550 -0.1493  0.0900
 4758W        W21605   6.089  16.742   0.926  0.0692 -0.1284  0.1903
 4759W        W21606  13.844  18.084  11.312 -0.1848 -0.0481 -0.0296
 4760W        W21607   6.959   2.881   5.218 -0.1891 -0.0786 -0.1694
 4761W        W21608   0.518  13.750  14.533  0.0436 -0.0814  0.2624
 4762W        W21609   7.037   4.636   1.023  0.2015  0.0933  0.1232
 4763W        W21610   5.651  10.338   1.793 -0.1738  0.1002  0.1928
 4764W        W21611  18.099   4.205   0.603  0.0003 -0.0371 -0.1744
 4765W        W21612  12.202  12.779  12.505  0.2211  0.2173 -0.0645
 4766W        W21613  10.972  10.018  15.599 -0.1109  0.2354  0.1953
 4767W        W21614   6.589   9.915   4.112 -0.2124 -0.1732  0.3261
 4768W        W21615   2.604  12.566  12.659 -0.2823  0.0938 -0.3292
 4769W        W21616  13.044   0.955  12.453  0.0251 -0.0308  0.2193
 4770W        W21617  17.322  13.311  15.179 -0.1014 -0.2924 -0.0213
 4771W        W21618   7.935  12.092  14.924 -0.4244  0.0364  0.2657
 4772W        W21619  14.077  10.685  12.443  0.5195 -0.3617 -0.1207
 4773W        W21620   5.717  18.092  16.485 -0.2616 -0.2563 -0.1804
 4774W        W21621  11.091   0.945  12.118 -0.0002 -0.1454  0.1674
 4775W        W21622  12.932  14.745   2.124  0.0244 -0.1483  0.3377
 4776W        W21623   7.168  13.341   3.549  0.4159  0.0541 -0.1819
 4777W        W21624  12.027   4.132  14.908 -0.3551  0.1653 -0.0444
 4778W        W21625  17.355   6.501   0.165  0.2400 -0.2647  0.0440
 4779W        W21626  11.606  12.399   3.857 -0.0575  0.2146 -0.2098
 4780W        W21627  15.871   6.044   2.542 -0.2365 -0.2271 -0.0969
 4781W        W21628  16.125   4.532   4.810  0.1114  0.2206  0.1359
 4782W        W21629   9.140   4.324  11.601 -0.1312 -0.0028 -0.0632
 4783W        W21630   8.197   6.117   2.733 -0.2978 -0.3069  0.3129
 4784W        W21631   6.217  17.217   2.128 -0.0193 -0.0328  0.2464
 4785W        W21632   4.410  16.440  11.690  0.0603 -0.1518 -0.2327
 4786W        W21633   0.168   6.684   4.373 -0.0361 -0.0441 -0.1738
 4787W        W21634   0.067  15.190   0.396  0.0890  0.0922  0.1723
 4788W        W21635  10.807   0.975   1.096 -0.1110 -0.2038 -0.3654
 4789W        W21636   9.760   2.416   2.797  0.0733  0.0693 -0.0294
 4790W        W21637   8.303   9.153   0.583  0.3075  0.2546  0.1682
 4791W        W21638  11.267   3.439  13.562 -0.2272 -0.1301  0.2269
 4792W        W21639   9.281  11.465  13.930 -0.0138 -0.0762  0.1157
 4793W        W21640   8.853   3.008  12.275 -0.0367  0.1130 -0.1695
 4794W        W21641  10.053   0.869  13.968  0.4647  0.2362  0.1199
 4795W        W21642   2.283  16.849   2.480 -0.0037  0.1185  0.1117
 4796W        W21643   7.850   0.763   1.685 -0.0134  0.1418 -0.0305
 4797W        W21644  16.843  15.354  14.677  0.1481 -0.0602 -0.0923
 4798W        W21645   0.243  12.282  13.406 -0.0013  0.1457  0.0904
 4799W        W21646  16.644  10.523   0.851 -0.0733  0.0530 -0.1343
 4800W        W21647   2.483   7.107  13.828  0.1424  0.2577  0.3342
 4801W        W21648   5.153  12.750   3.245  0.0826 -0.0025 -0.0237
 4802W        W21649   1.173  11.103   0.695 -0.0444 -0.1058  0.2301
 4803W        W21650   2.853   5.323  12.063  0.0579  0.1062  0.1484
 4804W        W21651  11.868  15.425  13.164  0.0486  0.0807  0.0094
 4805W        W21652   7.777   9.666  12.487 -0.0034  0.0851  0.0057
 4806W        W21653   3.066   4.498   2.617 -0.1852 -0.1250 -0.2548
 4807W        W21654  10.658   9.636  15.727 -0.3420 -0.0075 -0.1697
 4808W        W21655  14.001  12.327  13.819 -0.0547  0.1659  0.0409
 4809W        W21656  13.787   8.319  15.866  0.3422  0.3092 -0.0692
 4810W        W21657   6.849  17.559  13.602  0.3547 -0.0188  0.1732
 4811W        W21658  13.964  17.672  15.207  0.1201 -0.0063 -0.2721
 4812W        W21659  10.661  11.175  12.190 -0.3141 -0.0406 -0.2312
 4813W        W21660   2.052  11.849  15.823  0.1483  0.0820 -0.1085
 4814W        W21661   1.962   3.834   4.940  0.2922  0.0368 -0.0027
 4815W        W21662   5.244  11.174  11.804  0.3312  0.3812  0.1037
 4816W        W21663  13.440  13.885  13.393 -0.1275  0.1279  0.0826
 4817W        W21664  13.112  11.222  14.704 -0.1076  0.2526 -0.2086
 4818W        W21665  11.121  16.315   0.961  0.0330 -0.2243  0.0104
 4819W        W21666   2.314   8.115  14.216  0.1218  0.0277  0.3734
 4820W        W21667  16.645   9.383  16.498 -0.1931 -0.2659 -0.1534
 4821W        W21668  12.194  11.406   4.154  0.2418 -0.0239 -0.1455
 4822W        W21669  17.447  16.484   4.605 -0.2182 -0.1295  0.4861
 4823W        W21670   1.241  15.218  14.300 -0.1676 -0.3110  0.3234
 4824W        W21671  12.300   9.106  14.830 -0.2001 -0.1940  0.0434
 4825W        W21672  13.991   3.595  11.858  0.0227  0.2919  0.2551
 4826W        W21673   7.869   7.234  15.994  0.0658  0.0923 -0.1384
 4827W        W21674  10.323   3.584   0.976 -0.3123  0.0671  0.0732
 4828W        W21675   3.226  16.931   1.964  0.0104 -0.1555 -0.1066
 4829W        W21676   1.893   0.499   2.543  0.0403  0.0532  0.1913
 4830W        W21677  11.670  14.153  12.594  0.2629 -0.2057 -0.1506
 4831W        W21678  11.172   2.749   4.476 -0.2432  0.0829 -0.1150
 4832W        W21679   8.003   8.284  14.150 -0.5030 -0.1326 -0.0573
 4833W        W21680  13.918  16.124   1.899 -0.1758 -0.1004  0.0962
 4834W        W21681   8.480   4.763  12.755 -0.0628  0.0328  0.2436
 4835W        W21682   7.574  16.962   3.814 -0.1257  0.2292  0.1546
 4836W        W21683   7.207   5.958   3.216 -0.0410 -0.0693  0.1264
 4837W        W21684  12.415   7.430  16.424 -0.1998 -0.0841 -0.2669
 4838W        W21685  12.667  12.349   1.335 -0.1362  0.0652 -0.2609
 4839W        W21686  13.751   4.107  15.543 -0.2617 -0.0080  0.1111
 4840W        W21687   5.681   4.735  15.193  0.0451 -0.1363  0.0437
 4841W        W21688   4.026   2.516   6.234  0.0965 -0.0835 -0.0682
 4842W        W21689   6.664   7.039  11.481 -0.2372 -0.3474 -0.1741
 4843W        W21690  15.341   4.215   4.619  0.2334 -0.0041 -0.2994
 4844W        W21691  17.369  16.665  11.708  0.1117  0.1897  0.1552
 4845W        W21692   6.492  14.288  10.767 -0.0945 -0.0352 -0.1933
 4846W        W21693   3.024  15.627   2.176  0.2541  0.3523  0.3800
 4847W        W21694   9.070   5.149  12.914 -0.0499  0.0699  0.1136
 4848W        W21695  16.029   9.576  15.267  0.1767 -0.3261 -0.1763
 4849W        W21696   3.126   7.387  14.303 -0.1167  0.1447 -0.1533
 4850W        W21697  13.508  10.629   2.066 -0.1328  0.2840 -0.1865
 4851W        W21698   1.945   0.791   5.005  0.2163  0.1183 -0.5342
 4852W        W21699   9.267  10.702   0.069 -0.1490  0.2183 -0.0880
 4853W        W21700   7.995   9.995  14.313 -0.0595 -0.2259 -0.1796
 4854W        W21701   8.387   8.182  14.490 -0.0592 -0.2308 -0.1312
 4855W        W21702   0.587  11.792   0.301  0.1799 -0.2381 -0.0815
 4856W        W21703   1.508   7.757  14.539 -0.0017  0.1256 -0.2296
 4857W        W21704   8.710  13.601  14.973  0.1415 -0.0599 -0.0091
 4858W        W21705  13.493  10.650   2.691  0.2270 -0.1096 -0.0006
 4859W        W21706  17.973  10.120   0.997 -0.0046 -0.2530  0.2507
 4860W        W21707  17.801  13.816   3.763 -0.0210 -0.2170  0.2760
 4861W        W21708   1.787  14.703  14.434 -0.3693 -0.0081  0.0366
 4862W        W21709  14.847   6.806  11.262 -0.0665  0.0665 -0.0914
 4863W        W21710  12.355   3.755   1.552  0.3763 -0.2701 -0.2290
 4864W        W21711   3.339  12.089  13.450  0.1131 -0.3990 -0.1546
 4865W        W21712  16.284   5.293  13.089 -0.1206  0.1234 -0.0669
 4866W        W21713  13.395   4.723   0.669 -0.0304 -0.2197 -0.0029
 4867W        W21714   1.820   9.044   3.993  0.0570  0.1922  0.1924
 4868W        W21715  17.509   4.420  15.012  0.1458  0.0422  0.1807
 4869W        W21716   0.081   8.234   4.705  0.0462  0.0250  0.1921
 4870W        W21717   1.313  14.821   1.077  0.2722 -0.2124  0.1169
 4871W        W21718   4.975   2.632  12.548 -0.1851  0.2133  0.1275
 4872W        W21719   4.987   3.475  14.305 -0.1740 -0.2283  0.2696
 4873W        W21720   8.039  11.932  16.407 -0.0096  0.2483 -0.2051
 4874W        W21721  17.236   8.460  12.568  0.2554  0.1826  0.0634
 4875W        W21722   7.504   9.364   1.047 -0.1690  0.1148  0.2162
 4876W        W21723  15.921   5.353  11.208 -0.0875  0.2525 -0.0708
 4877W        W21724  14.687   7.562   2.481 -0.3618 -0.0691 -0.0211
 4878W        W21725   8.608  17.769   2.875  0.0090 -0.1284 -0.0251
 4879W        W21726   1.115  13.566  13.322  0.2162  0.2546  0.2051
 4880W        W21727  16.778  17.790   3.610  0.0891 -0.1100 -0.1184
 4881W        W21728   2.184   2.925   5.141  0.0231 -0.0577 -0.1256
 4882W        W21729   1.213  11.316  14.888 -0.1905 -0.1301  0.2237
 4883W        W21730   8.146   0.546  15.470 -0.1860  0.5484  0.0282
 4884W        W21731   9.549  16.268  16.387 -0.0447  0.1065  0.2254
 4885W        W21732  14.811   5.632   3.800  0.3149 -0.3146 -0.1939
 4886W        W21733   8.349  12.659  12.469  0.1644  0.1214  0.0931
 4887W        W21734   3.238   1.190   1.589 -0.2322 -0.0303  0.0892
 4888W        W21735   2.190  15.485  12.889 -0.0484  0.1882 -0.1802
 4889W        W21736   8.106  13.411   4.937 -0.1468  0.0133 -0.0500
 4890W        W21737  12.256  13.228  16.091  0.0000  0.2881 -0.2648
 4891W        W21738   6.126   6.674   0.359 -0.2866 -0.0736 -0.4158
 4892W        W21739   1.206   6.473   2.218 -0.0582 -0.1989  0.1595
 4893W        W21740  10.159   4.018   3.836  0.3194 -0.2283  0.1600
 4894W        W21741  15.628   5.319  14.112 -0.0503  0.2279 -0.0870
 4895W        W21742   8.103   5.710  15.172  0.0751 -0.3313  0.0553
 4896W        W21743  12.231   3.786   3.168  0.2761 -0.2366 -0.1803
 4897W        W21744  10.535   7.735  11.352  0.0528  0.0774 -0.4187
 4898W        W21745   6.393  12.222  15.250  0.2501  0.2317  0.0484
 4899W        W21746   1.271  14.704   0.218  0.1342 -0.0716  0.1432
 4900W        W21747   3.617  10.144   3.862 -0.0473 -0.2234  0.0533
 4901W        W21748   1.124  15.903   5.143  0.1513  0.0961  0.0651
 4902W        W21749   1.579  12.397   2.989 -0.3268 -0.1127  0.0965
 4903W        W21750  16.574  15.690  16.597  0.1049 -0.0492  0.1488
 4904W        W21751  16.594  12.574   1.547  0.2882  0.2858  0.0639
 4905W        W21752  14.859   3.048   5.374 -0.1253  0.0198  0.2061
 4906W        W21753   6.519  15.329   0.869 -0.0721  0.0710  0.0288
 4907W        W21754   2.975  15.469   3.045  0.1357 -0.1387  0.0197
 4908W        W21755  15.168   3.027  14.201  0.0959  0.0314  0.0421
 4909W        W21756  12.567   3.476   4.028  0.0338 -0.1594  0.2568
 4910W        W21757  16.929  14.326   0.813  0.0512 -0.2565  0.4141
 4911W        W21758   1.735   8.614   6.350  0.0672 -0.2575 -0.1440
 4912W        W21759  18.118   8.789   0.897  0.0822 -0.3926  0.1266
 4913W        W21760  17.322  15.767   5.010 -0.0987  0.2287 -0.0129
 4914W        W21761  10.108   8.878   3.678  0.1490 -0.2347  0.1287
 4915W        W21762  17.929   3.069  14.637 -0.2629  0.2000  0.1001
 4916W        W21763  13.507   5.241   2.473 -0.0672  0.1245 -0.4335
 4917W        W21764  17.418  14.421   5.283  0.1326 -0.3512 -0.2181
 4918W        W21765   5.140   6.893   3.380 -0.0239 -0.2864  0.1203
 4919W        W21766  11.152   6.094  15.134  0.2522 -0.0146 -0.0461
 4920W        W21767  13.260   5.490  12.468  0.0101 -0.1420  0.3320
 4921W        W21768  11.817  11.169  14.794  0.0543 -0.1272  0.1961
 4922W        W21769  17.682   9.528  15.959  0.3382  0.2822 -0.0586
 4923W        W21770   9.217   7.798   2.144  0.2299 -0.0362  0.2837
 4924W        W21771   2.467   2.445   3.390 -0.1370  0.0650  0.0216
 4925W        W21772  16.044   8.048  14.442  0.2290 -0.1508 -0.0666
 4926W        W21773  10.278   9.558  12.017  0.0183 -0.0919 -0.1997
 4927W        W21774  18.085   7.348  11.653 -0.0911  0.1680  0.0009
 4928W        W21775   2.247  17.938  14.553  0.0741  0.0324  0.1478
 4929W        W21776  10.473   1.177  11.586 -0.3153 -0.2554  0.0220
 4930W        W21777  11.221  13.406   3.953  0.0813  0.0404 -0.0308
 4931W        W21778   3.360  11.677  13.736 -0.1541 -0.0792  0.2229
 4932W        W21779  13.346   7.973  12.094  0.0227 -0.1000 -0.1173
 4933W        W21780  10.450   3.141   3.304  0.0271  0.1925  0.1498
 4934W        W21781   1.508  15.519   0.927 -0.0236  0.0516  0.1316
 4935W        W21782   1.072   5.007  12.667  0.1716 -0.1767  0.1128
 4936W        W21783   3.089   0.914  12.122  0.0394 -0.0999 -0.2852
 4937W        W21784   2.361   6.917   2.388 -0.0181  0.2985  0.1191
 4938W        W21785  12.464   9.657  12.303  0.1494 -0.0429 -0.0584
 4939W        W21786  17.768   4.801   1.463  0.1236  0.0544 -0.0091
 4940W        W21787  10.407   2.665   3.493  0.0959  0.0081 -0.3419
 4941W        W21788  17.105  12.143  12.324  0.3499 -0.0135 -0.1812
 4942W        W21789  16.331  10.244  16.602  0.1327 -0.2148  0.3012
 4943W        W21790   1.813   8.900   5.575 -0.2769 -0.2275 -0.0444
 4944W        W21791   2.128  11.624   3.641  0.0074 -0.1009  0.1128
 4945W        W21792   6.196  10.385  13.985 -0.0963 -0.1645 -0.4884
 4946W        W21793   7.669   7.573   1.467 -0.2584  0.2188  0.0369
 4947W        W21794   0.893   9.095  15.733  0.2244  0.1669  0.2217
 4948W        W21795  13.672  14.156   4.426 -0.0737  0.1126 -0.2244
 4949W        W21796   5.041  13.765  13.098  0.2358 -0.0348 -0.0444
 4950W        W21797   3.837   8.728  14.910  0.3709  0.0505 -0.1936
 4951W        W21798  15.648   8.267  13.015  0.0148 -0.0324  0.2788
 4952W        W21799  10.590   7.659   3.317 -0.0934  0.1516  0.0080
 4953W        W21800   2.093  10.039  14.337 -0.0877 -0.0347 -0.1093
 4954W        W21801  15.127  15.269   1.986 -0.2750 -0.2891  0.0749
 4955W        W21802  13.061   2.425   2.791 -0.3910 -0.0984 -0.3186
 4956W        W21803  14.515  14.746   0.760 -0.1292 -0.0621  0.1060
 4957W        W21804   3.348  12.333  12.504 -0.4829  0.1070 -0.0899
 4958W        W21805   2.364   1.436   4.828  0.2671 -0.1221  0.1853
 4959W        W21806  12.597  10.841   5.047 -0.0676 -0.1999  0.0511
 4960W        W21807   3.347  16.308  13.225 -0.4568  0.3615  0.3320
 4961W        W21808  10.591   7.777   1.130 -0.2764  0.0040 -0.3156
 4962W        W21809  11.423   1.751   1.508  0.2105 -0.2095 -0.2301
 4963W        W21810   2.096  13.994  12.475 -0.2999 -0.0555  0.0853
 4964W        W21811   2.916  14.587   1.079  0.2127 -0.0977  0.0746
 4965W        W21812   2.899  10.775   0.576  0.1506 -0.1618 -0.0485
 4966W        W21813   2.454   5.174  16.357 -0.0182  0.0677 -0.3127
 4967W        W21814   1.545   5.651   0.629  0.2011  0.0259  0.0165
 4968W        W21815   8.225   0.112   4.931 -0.1167 -0.2132  0.0793
 4969W        W21816   7.417   6.371   4.076 -0.2432  0.1963 -0.0557
 4970W        W21817  14.226   1.093  16.258  0.0515 -0.2489 -0.3859
 4971W        W21818   4.707   7.081   0.940  0.0699  0.1904  0.0504
 4972W        W21819   3.960   3.282   1.151 -0.2647 -0.2215  0.0709
 4973W        W21820  14.683   3.244  14.289 -0.2889 -0.1107 -0.0400
 4974W        W21821  13.339   3.036  11.811  0.4598  0.2147  0.0674
 4975W        W21822   1.373   1.661  13.179 -0.2302 -0.2433  0.0415
 4976W        W21823  12.329   0.604   3.486  0.0948 -0.0457 -0.0023
 4977W        W21824   3.046   8.236   0.087 -0.1451 -0.0577 -0.2017
 4978W        W21825  13.376  13.480  12.703  0.1288  0.0738 -0.1788
 4979W        W21826  16.136  10.506   5.361  0.2472 -0.1236 -0.2307
 4980W        W21827   7.132  17.722   1.702  0.0170 -0.1938 -0.1250
 4981W        W21828  13.404  13.380   2.739 -0.2184 -0.3060 -0.0696
 4982W        W21829  16.104  14.945  12.815 -0.3500 -0.0945  0.2800
 4983W        W21830  17.251  10.373   1.662 -0.0874 -0.3242  0.2910
 4984W        W21831  11.089   2.625   5.924 -0.1536  0.0642 -0.2279
 4985W        W21832  11.334   9.765   3.503 -0.4175 -0.1624 -0.1518
 4986W        W21833   0.775  10.084   2.492 -0.0678  0.0528  0.2125
 4987W        W21834  11.050   4.243   0.169 -0.1346  0.1838 -0.1737
 4988W        W21835  15.128   3.826   0.158 -0.1526  0.1218 -0.3174
 4989W        W21836   3.566   8.468   1.251  0.0845 -0.0225 -0.3516
 4990W        W21837   4.551  16.370   3.822  0.0900  0.0888 -0.1299
 4991W        W21838   8.395  18.092  14.866  0.3047  0.0011  0.0856
 4992W        W21839   2.007   1.990  12.266 -0.3014  0.1121  0.1603
 4993W        W21840  14.954  11.763   3.624  0.0313 -0.1870  0.3479
 4994W        W21841  13.753  17.857  16.061  0.2189  0.2057  0.1707
 4995W        W21842   7.653   3.868   5.055  0.0383 -0.0692  0.1513
 4996W        W21843   6.104  10.179   3.157  0.0833 -0.1584 -0.0993
 4997W        W21844   4.581   7.447  14.178  0.0697  0.1933 -0.0971
 4998W        W21845  12.627  11.110   2.883 -0.1384  0.0440  0.0588
 4999W        W21846  17.215   4.904  14.967  0.3199 -0.0772  0.1557
 5000W        W21847   2.200   4.850   4.297  0.0711  0.0053 -0.0923
 5001W        W21848   2.108  14.545   3.866 -0.0283  0.1140 -0.1708
 5002W        W21849   8.941   3.342  11.302  0.2453  0.0465 -0.1667
 5003W        W21850  12.004   2.582  16.545 -0.1588  0.1395 -0.0406
 5004W        W21851  15.944  15.094  16.221 -0.1092 -0.2412 -0.1796
 5005W        W21852  14.763   9.464  15.554 -0.2076 -0.1466  0.1062
 5006W        W21853  17.323   4.939  13.493  0.1367  0.2440 -0.0145
 5007W        W21854  14.275   7.117   5.692  0.2707  0.0936  0.0235
 5008W        W21855   6.648   3.853   3.879 -0.0223  0.2217  0.1516
 5009W        W21856   5.721   3.555  13.402 -0.2626 -0.2353 -0.0559
 5010W        W21857   1.524   8.062   3.628  0.2298  0.1866  0.2500
 5011W        W21858   7.350   1.864   0.719 -0.0642 -0.1352  0.2520
 5012W        W21859  11.634  17.144  14.043  0.2137 -0.1265 -0.3006
 5013W        W21860  11.635  14.941  13.940 -0.0382  0.2564 -0.2413
 5014W        W21861   2.508  11.974   3.536 -0.1416 -0.0361  0.0528
 5015W        W21862   0.416  13.316  13.895  0.4120  0.3041 -0.3015
 5016W        W21863  14.780   7.011  16.471 -0.2308 -0.2504  0.0415
 5017W        W21864   2.913  16.850   0.407  0.5552 -0.2030 -0.0750
 5018W        W21865   3.024   4.987   3.931  0.1018  0.1224 -0.1007
 5019W        W21866   0.809   8.907  13.973 -0.1913  0.0720 -0.3935
 5020W        W21867   3.175  15.513   3.494  0.1618  0.0548 -0.0230
 5021W        W21868  12.450  17.842  13.269 -0.0173 -0.2326  0.0860
 5022W        W21869   4.023   2.732  16.171 -0.0924 -0.0164 -0.2269
 5023W        W21870   9.623   5.852  12.109  0.0032  0.0688 -0.0758
 5024W        W21871   6.889   8.493  16.093 -0.0113 -0.0393  0.0238
 5025W        W21872  15.084   0.007   1.334  0.0631 -0.1083 -0.0978
 5026W        W21873   8.072  12.453   0.914 -0.4749  0.1112  0.0043
 5027W        W21874  14.156  10.351  12.062  0.0708  0.0538  0.5417
 5028W        W21875  15.774   8.711   0.050 -0.1119  0.3078 -0.0333
 5029W        W21876  11.775   1.376   1.668 -0.3299 -0.0166 -0.1940
 5030W        W21877   9.196  12.033   2.718  0.1243  0.0704 -0.0621
 5031W        W21878   6.087   3.593  15.801  0.0584 -0.0479  0.2024
 5032W        W21879  13.176  13.902   0.912  0.2735 -0.0348  0.3297
 5033W        W21880   5.737   5.183  11.646 -0.0642  0.1118  0.2252
 5034W        W21881  11.525  11.693   2.065  0.1698 -0.1399 -0.1637
 5035W        W21882   6.747   9.964  13.235 -0.1170 -0.0879  0.0306
 5036W        W21883   3.151   5.852  15.301 -0.0739 -0.0670  0.0988
 5037W        W21884  17.888  17.373   1.849 -0.2026  0.0864  0.2645
 5038W        W21885   3.250  13.248   2.158 -0.0215 -0.2070 -0.0459
 5039W        W21886   8.822   4.791   3.698  0.0105 -0.2647 -0.3416
 5040W        W21887   4.204  10.523  16.209 -0.3684 -0.1574 -0.1726
 5041W        W21888  17.847  13.243  15.173 -0.0791 -0.1342 -0.0958
 5042W        W21889   4.914   4.112  14.963  0.2328 -0.1115  0.1332
 5043W        W21890   7.001  12.105   1.865  0.0210 -0.0609  0.0887
 5044W        W21891   5.264   0.474   3.292 -0.3158  0.3401 -0.0274
 5045W        W21892   0.659   0.451   1.964 -0.0192 -0.0789 -0.0527
 5046W        W21893   7.127  13.209   6.041 -0.1399  0.2385  0.0456
 5047W        W21894   2.129   0.053   1.708  0.0218  0.1123 -0.0132
 5048W        W21895   0.929  14.022   4.207  0.0141 -0.2320  0.1479
 5049W        W21896   1.932   2.969   3.922  0.0173  0.1589 -0.2246
 5050W        W21897  15.068  10.008   0.045 -0.1936  0.0445 -0.1976
 5051W        W21898  14.779   4.181  15.028 -0.0290 -0.0665 -0.0092
 5052W        W21899  14.145  10.394  13.633  0.3032  0.0466  0.2196
 5053W        W21900  17.902  14.920   3.688  0.2937 -0.0076 -0.2536
 5054W        W21901  17.781   5.253  13.482  0.1993  0.0362 -0.0730
 5055W        W21902  17.514   2.009   3.075  0.0454 -0.0743  0.2703
 5056W        W21903  10.015   0.735   2.939 -0.1227  0.2946 -0.1319
 5057W        W21904   8.414  16.030  12.873  0.0772  0.1007 -0.0600
 5058W        W21905  18.027  11.008   0.669 -0.0524 -0.2285  0.1637
 5059W        W21906   6.387   5.421  12.405 -0.3866 -0.1632  0.0759
 5060W        W21907  12.078   2.573   3.572  0.1186  0.2443 -0.1592
 5061W        W21908  12.108   9.141   5.348  0.2211  0.1740 -0.4755
 5062W        W21909   0.607  12.280   5.787  0.1418 -0.1975  0.0277
 5063W        W21910   6.683   4.063  15.486  0.1586 -0.2396 -0.0436
 5064W        W21911  15.790   2.575   1.757  0.1080  0.0501  0.1498
 5065W        W21912  13.591   8.667  14.114 -0.1487  0.0222 -0.1933
 5066W        W21913   2.952  14.108   4.229  0.0519  0.0580  0.2982
 5067W        W21914  11.800   1.743  13.105  0.1670  0.2209 -0.2500
 5068W        W21915   8.888  16.574   1.304  0.0307  0.2979  0.2647
 5069W        W21916   5.159   5.742  16.531 -0.1234 -0.1004 -0.2218
 5070W        W21917   7.444  17.773  13.523  0.1852 -0.1415  0.2694
 5071W        W21918  12.681  12.719  16.331  0.2874  0.1720 -0.3510
 5072W        W21919   5.875   9.513  16.211 -0.1560  0.1731 -0.1142
 5073W        W21920   6.643  17.748   1.795 -0.2240 -0.1792 -0.1574
 5074W        W21921   3.710   2.787   3.632 -0.0712  0.0103 -0.2206
 5075W        W21922  16.381  16.471  15.317  0.2226 -0.2137  0.1111
 5076W        W21923   9.547  15.679  16.313 -0.0767  0.0598 -0.0083
 5077W        W21924   5.432   0.162   1.646 -0.1378  0.0799 -0.0760
 5078W        W21925   4.574   0.243   2.105  0.0070 -0.1076  0.1388
 5079W        W21926  15.987  16.464   4.701 -0.3122 -0.0788  0.4476
 5080W        W21927   2.850   3.813   0.173  0.2705  0.1939 -0.0589
 5081W        W21928   8.416  11.814   0.550 -0.2246  0.0887  0.0207
 5082W        W21929  10.954   0.752   4.107  0.1243  0.2421  0.0478
 5083W        W21930   7.456   1.205   0.935  0.0949  0.1428  0.2529
 5084W        W21931  12.101   4.085   0.651 -0.0593  0.0485  0.0111
 5085W        W21932   4.173   8.594  13.473  0.1626 -0.0756  0.1564
 5086W        W21933  15.228  16.441   0.458 -0.0554 -0.1516 -0.3156
 5087W        W21934  13.674   8.854  15.821 -0.3744 -0.0166  0.1189
 5088W        W21935  10.435  13.320  13.757  0.0196 -0.2769 -0.1827
 5089W        W21936  17.070   0.783  12.915  0.2144  0.1227 -0.1076
 5090W        W21937  12.310   2.410   0.296  0.1321  0.1642  0.0296
 5091W        W21938   2.994   8.541  12.871  0.0475 -0.0506  0.1980
 5092W        W21939  15.432   4.404   0.915  0.0065  0.1810  0.0401
 5093W        W21940  11.375  17.607  14.451  0.3082 -0.0949 -0.1037
 5094W        W21941  14.065   0.765   3.715  0.0957 -0.1569 -0.0205
 5095W        W21942   0.404   7.790  13.582 -0.1216  0.1175 -0.2102
 5096W        W21943   9.099   4.764  13.279  0.2862 -0.0927 -0.0612
 5097W        W21944   8.994   8.806   0.484 -0.3523 -0.1832 -0.1844
 5098W        W21945   3.421  10.952  12.812 -0.1559  0.1726  0.2897
 5099W        W21946   1.783  13.124  12.310 -0.1583  0.0210  0.0755
 5100W        W21947   8.219   1.640   0.029 -0.2321 -0.0910 -0.2468
 5101W        W21948  15.039  10.851   0.068 -0.1286 -0.1224  0.1306
 5102W        W21949   0.284  17.802   5.362 -0.1651 -0.0727  0.0350
 5103W        W21950  17.527  15.676   2.513  0.0278  0.1885  0.0814
 5104W        W21951  14.234   8.930   0.006 -0.0601  0.3644  0.1328
 5105W        W21952  18.050   0.412  12.849  0.0022 -0.1864  0.0649
 5106W        W21953   3.036  10.491   3.114 -0.0734 -0.3660  0.1289
 5107W        W21954  16.122   0.144   1.836  0.2637  0.0322 -0.2325
 5108W        W21955  15.158   1.101   4.177  0.1952 -0.3854  0.2237
 5109W        W21956  10.016   7.624   2.442  0.1528 -0.0988  0.5426
 5110W        W21957  18.018   3.158  14.057 -0.2368  0.0208  0.2122
 5111W        W21958   3.620   2.486  16.228 -0.3013  0.0359 -0.0242
 5112W        W21959  12.150  17.673  12.465 -0.4597  0.2850  0.0360
 5113W        W21960   8.501  15.649   1.104  0.0273  0.0684  0.1904
 5114W        W21961  14.920  13.808  15.099 -0.2187 -0.1035 -0.0601
 5115W        W21962   6.844   6.116   4.030  0.0177 -0.1390  0.3372
 5116W        W21963  12.068   3.865  14.391 -0.2316  0.0359 -0.3314
 5117W        W21964   5.175   5.041   0.447  0.0718 -0.1354 -0.1392
 5118W        W21965  15.259  11.348   1.497  0.2094 -0.2562 -0.0096
 5119W        W21966   8.643  14.445   1.384 -0.2083 -0.0579 -0.0672
 5120W        W21967  16.446   4.196   2.572 -0.0052 -0.0806  0.0247
 5121W        W21968  17.603   4.165   3.856 -0.0997 -0.1202 -0.0048
 5122W        W21969  10.557   8.894   1.827  0.0417 -0.1825 -0.3073
 5123W        W21970   3.607   7.952  15.038  0.0339 -0.2912 -0.1430
 5124W        W21971  14.595   3.688   2.857 -0.1021  0.1774 -0.2857
 5125W        W21972   8.380   9.160  11.778  0.2128 -0.1747 -0.0160
 5126W        W21973   1.221   9.067  15.304  0.2514  0.0778 -0.2324
 5127W        W21974   3.270   1.195   1.058 -0.1415 -0.0062  0.0076
 5128W        W21975  15.185   7.402  16.487 -0.1658  0.1278  0.0226
 5129W        W21976   8.498  13.324   4.581 -0.0821  0.3188 -0.2874
 5130W        W21977  13.204  13.526   0.019 -0.0052 -0.2400 -0.1251
 5131W        W21978   9.812  13.455  15.724 -0.0036  0.2444  0.0882
 5132W        W21979   7.083   3.874  12.701  0.2794  0.1266  0.0141
 5133W        W21980  13.841  13.188  12.726  0.0877  0.1104  0.0548
 5134W        W21981   0.430  15.584   3.229  0.0628 -0.0408  0.0874
 5135W        W21982   7.569   7.486   3.139 -0.0951  0.2863  0.1811
 5136W        W21983  11.556  17.156  16.304 -0.0309 -0.1117 -0.3131
 5137W        W21984  16.917  17.575   1.588  0.3669 -0.0137  0.1941
 5138W        W21985   2.983  15.758   0.124  0.0153 -0.0775 -0.2515
 5139W        W21986  12.654  15.265  15.546 -0.0029  0.0488  0.0560
 5140W        W21987  14.189  16.740  16.036 -0.1644 -0.0546 -0.3357
 5141W        W21988   3.773   8.758   5.040  0.0880 -0.3218 -0.1897
 5142W        W21989  16.265   3.736  16.613 -0.0371  0.3314 -0.1675
 5143W        W21990  14.223   4.579  14.513 -0.0442  0.4078  0.0726
 5144W        W21991  11.185  13.440   2.867 -0.3372 -0.0356 -0.0131
 5145W        W21992   4.637  12.195   4.327 -0.1041  0.0467 -0.0822
 5146W        W21993   4.175   2.018  16.399  0.1540 -0.2587 -0.1231
 5147W        W21994  15.456  15.421  15.437 -0.0019 -0.1201 -0.0333
 5148W        W21995  10.139   9.594   4.026  0.1953  0.0501 -0.1871
 5149W        W21996   1.186  12.586   5.542  0.1464  0.2574  0.1671
 5150W        W21997  16.130   8.732   5.728 -0.0425  0.0180 -0.0052
 5151W        W21998   5.717  10.786   3.340  0.2277 -0.1464 -0.0771
 5152W        W21999   7.446   3.055   2.725 -0.0336  0.2841 -0.1974
 5153W        W22000  12.490   8.471  13.237  0.0289  0.1439  0.2449
 5154W        W22001  16.070   7.650   3.657 -0.1651 -0.1952 -0.5123
 5155W        W22002   7.570   8.419   4.714  0.3688  0.1095  0.0315
 5156W        W22003  16.041   8.982   0.350 -0.0479 -0.0055  0.1679
 5157W        W22004   3.773  16.412  13.031  0.0303  0.0440 -0.0686
 5158W        W22005  11.885   3.432  11.882 -0.1563 -0.2576 -0.1374
 5159W        W22006   4.109  11.681  14.812  0.1517  0.1598  0.3159
 5160W        W22007  16.436  16.691  11.666 -0.2192  0.1329 -0.2755
 5161W        W22008  10.441  12.622   5.567 -0.2097  0.1403  0.1898
 5162W        W22009  12.313  17.787   3.956  0.0206 -0.1126 -0.0644
 5163W        W22010   8.472   5.652  11.782  0.1088  0.1339 -0.1493
 5164W        W22011   5.839  14.225  14.706  0.0926  0.1109 -0.4136
 5165W        W22012  11.283   8.571  11.957 -0.2387  0.1789  0.0493
 5166W        W22013   6.528  11.196  15.000 -0.1086 -0.0596  0.2160
 5167W        W22014  14.274   3.968   0.705 -0.0651  0.2281 -0.1611
 5168W        W22015  15.908   6.051  15.443  0.0297 -0.2543 -0.2308
 5169W        W22016  14.576  14.092   2.108 -0.0802 -0.3654 -0.3196
 5170W        W22017   3.802   0.032   0.157  0.0103 -0.5258  0.0501
 5171W        W22018   2.437   8.763  12.804 -0.3764  0.1000 -0.1592
 5172W        W22019   1.262   6.980   0.986 -0.2039  0.1872  0.1769
 5173W        W22020  10.497   2.192  15.119 -0.0447 -0.1521  0.0631
 5174W        W22021  17.394   4.810   4.400 -0.2949 -0.2387 -0.3347
 5175W        W22022  11.705   8.330   3.201  0.0865  0.5344 -0.0684
 5176W        W22023  17.984   0.575   0.914  0.2961  0.1216  0.1122
 5177W        W22024  10.871   7.738  14.755  0.1345 -0.0763 -0.3141
 5178W        W22025  17.428   0.526  13.264 -0.0840 -0.2699  0.1509
 5179W        W22026   3.387   7.869   0.152 -0.2677  0.0569  0.0022
 5180W        W22027  12.000   6.141  11.854 -0.1201  0.2389  0.1339
 5181W        W22028   1.513   7.538  12.029  0.3947 -0.0189 -0.1455
 5182W        W22029   2.671   3.379   2.319 -0.2255 -0.0437  0.1597
 5183W        W22030   9.284  10.461  15.262  0.0605 -0.1624 -0.0318
 5184W        W22031  14.129  15.461   2.266  0.0523  0.1173 -0.1426
 5185W        W22032   7.109   6.380  16.433  0.1582 -0.0685  0.1647
 5186W        W22033   3.798   1.957  14.928  0.0932 -0.1122  0.0387
 5187W        W22034   7.468  17.913   5.379  0.4778  0.1187  0.1687
 5188W        W22035  15.095  13.106   4.096 -0.1687 -0.0361 -0.1874
 5189W        W22036  15.107   9.950   5.245 -0.1316  0.2202  0.1145
 5190W        W22037   1.912   9.501   1.807  0.2607  0.2775 -0.0441
 5191W        W22038   9.098   8.220  12.234  0.0123  0.1227  0.0319
 5192W        W22039   1.824   1.987   2.897 -0.2506  0.1161 -0.0328
 5193W        W22040   7.270  12.205   0.522 -0.0752 -0.0161  0.1589
 5194W        W22041   5.655  14.379   2.474  0.0813 -0.1944 -0.0855
 5195W        W22042   6.351   1.173  12.188  0.0816  0.1797  0.0242
 5196W        W22043  14.339  12.209  12.287 -0.0803  0.0976  0.0889
 5197W        W22044   0.630   9.384  12.373  0.0974  0.0151 -0.0521
 5198W        W22045  17.090  10.412  11.169 -0.0453 -0.1389 -0.1462
 5199W        W22046   4.037  14.991  14.521 -0.1270 -0.1388 -0.1019
 5200W        W22047   9.637   6.428   4.548 -0.0165  0.4240  0.1471
 5201W        W22048   3.807   0.057   5.458 -0.0571 -0.0035  0.4352
 5202W        W22049   1.086  12.047   5.757 -0.2834  0.2068 -0.0136
 5203W        W22050   0.842   5.556   4.083  0.3174  0.1239  0.0965
 5204W        W22051   5.750  15.770   0.672 -0.2304  0.3312 -0.1668
 5205W        W22052  15.703   3.848   6.336  0.2110  0.3155 -0.2663
 5206W        W22053   9.738   5.483   3.029  0.2063 -0.3334  0.1309
 5207W        W22054   4.387  12.692   4.185  0.2524  0.2635 -0.0658
 5208W        W22055   5.261  12.910   0.781 -0.1128  0.1991  0.0798
 5209W        W22056  15.481   3.662   4.854 -0.1444  0.0405  0.2926
 5210W        W22057   7.361  12.237  14.861 -0.0927 -0.1346 -0.2407
 5211W        W22058   0.678  11.468  14.063 -0.1032  0.0085 -0.1319
 5212W        W22059   4.331   4.180   4.669  0.1927  0.0151 -0.1989
 5213W        W22060  12.005   9.935   0.758  0.2984 -0.0562  0.2405
 5214W        W22061   1.608   6.511   0.022  0.2353 -0.0097 -0.0078
 5215W        W22062  13.245  15.370   3.344  0.0655  0.0081  0.2251
 5216W        W22063   2.517  11.556   4.904 -0.4345 -0.0624  0.2315
 5217W        W22064   5.403   2.159   4.404  0.2763  0.1689  0.1119
 5218W        W22065   9.728  14.271   1.377  0.0352 -0.0474  0.1513
 5219W        W22066   6.601   9.547  15.330  0.0792  0.2049 -0.0188
 5220W        W22067  15.387  15.425  12.744  0.0250 -0.0978 -0.0895
 5221W        W22068   2.165   0.206  13.107 -0.0375  0.1193  0.1935
 5222W        W22069  12.884   4.557   4.599  0.0975 -0.0403  0.1367
 5223W        W22070  17.345  15.025  15.938 -0.3404  0.1286 -0.1420
 5224W        W22071   8.341   2.058   1.967  0.3232  0.2316  0.0508
 5225W        W22072   3.218  12.858   0.084 -0.1444 -0.0732 -0.3995
 5226W        W22073   8.661   9.893  14.682  0.0833  0.0387 -0.4463
 5227W        W22074   7.973  15.942  11.923  0.1179  0.0958 -0.0500
 5228W        W22075   2.136  13.117   0.010 -0.1548 -0.4107  0.0255
 5229W        W22076  15.186  12.278   1.983 -0.2037 -0.2841 -0.3463
 5230W        W22077  16.110   2.071   3.900 -0.0037 -0.0525  0.1909
 5231W        W22078   4.116  14.662  14.945 -0.1699 -0.0220 -0.2041
 5232W        W22079   4.900   2.008  11.847 -0.3327 -0.0199 -0.0093
 5233W        W22080   8.895  13.023   0.141 -0.0681  0.1535  0.5235
 5234W        W22081   8.283  12.782  13.762  0.0450 -0.0322  0.0650
 5235W        W22082  11.075   9.065   4.561  0.0985  0.1246  0.0998
 5236W        W22083  11.622   5.157  14.430 -0.2316 -0.2875  0.0151
 5237W        W22084   9.181  14.600   4.702 -0.0279  0.1652  0.0153
 5238W        W22085   4.878  17.420   4.552  0.0260  0.2655  0.3238
 5239W        W22086   4.923  14.106   0.337  0.1743 -0.2784  0.2794
 5240W        W22087   4.561  10.223  16.030 -0.0127 -0.0549  0.1335
 5241W        W22088   4.151   1.285  15.831  0.3070  0.1086 -0.0075
 5242W        W22089  16.295   1.915  15.467  0.0471 -0.0857 -0.2508
 5243W        W22090  17.382   5.401   4.102 -0.2494  0.0362  0.3555
 5244W        W22091  15.746   6.551   0.504  0.0762  0.0369  0.4069
 5245W        W22092  16.132  15.809   5.394 -0.1315  0.1358  0.1051
 5246W        W22093   8.441   6.767  14.376  0.1309 -0.2782 -0.2092
 5247W        W22094  16.479   2.866  15.269 -0.2302  0.0185 -0.1495
 5248W        W22095  14.334  16.129  13.711 -0.0210  0.0397 -0.2131
 5249W        W22096  14.107   3.822  15.814  0.3245 -0.1343 -0.4111
 5250W        W22097  15.867  10.041   1.651  0.2768 -0.1097 -0.1183
 5251W        W22098   1.747  16.407  12.009  0.0462 -0.0068  0.4825
 5252W        W22099  10.392   6.373  14.147  0.1539  0.0770 -0.1504
 5253W        W22100   5.130   2.241  15.764  0.1805 -0.1950 -0.0509
 5254W        W22101   5.043  18.123   0.146 -0.0717 -0.1563  0.2677
 5255W        W22102  16.680   3.343  15.087 -0.0064  0.2485  0.2688
 5256W        W22103   7.000   5.165   3.700  0.1107  0.2385  0.0907
 5257W        W22104   5.518  14.279   4.076 -0.0953  0.0948 -0.3141
 5258W        W22105   0.611  16.028   4.867 -0.0431 -0.0965 -0.2703
 5259W        W22106   2.480   6.861  12.661  0.2398  0.2106 -0.0185
 5260W        W22107   6.100  13.321   1.768 -0.1049 -0.2348  0.0934
 5261W        W22108   4.942   2.489   3.098  0.1568  0.1234 -0.1005
 5262W        W22109  12.345  11.087  13.417  0.0626 -0.1256 -0.2502
 5263W        W22110  16.381  16.933  15.169 -0.0440  0.0308 -0.3002
 5264W        W22111   2.044   6.494  15.749 -0.1547  0.0515  0.0997
 5265W        W22112   7.252   8.830  14.956  0.0696 -0.3471 -0.2200
 5266W        W22113   7.771  13.789   4.138 -0.1625 -0.1760  0.1321
 5267W        W22114  12.729  14.671  11.763  0.0596  0.0816 -0.2124
 5268W        W22115  11.247   2.430   3.503  0.1001 -0.0205 -0.2884
 5269W        W22116   6.153  13.545   1.305 -0.2443 -0.0603  0.0290
 5270W        W22117   4.344   8.401   3.515 -0.1182  0.1049  0.1022
 5271W        W22118  17.690   2.625   0.078 -0.1409  0.0547  0.0079
 5272W        W22119  11.626   5.569  14.091 -0.0945 -0.1024  0.0200
 5273W        W22120  10.453  17.074  13.434  0.0509 -0.1321 -0.1919
 5274W        W22121   4.888  14.936  16.491 -0.4198 -0.3274 -0.0288
 5275W        W22122   8.532   9.323  15.978  0.0706 -0.0990 -0.0928
 5276W        W22123  13.465   1.399  14.988  0.0095 -0.1017 -0.1071
 5277W        W22124  18.143  13.635   6.470 -0.0521 -0.0047  0.0515
 5278W        W22125  15.325  14.102  13.758 -0.0105 -0.0399  0.2145
 5279W        W22126  17.710   4.978  14.988  0.1662  0.0845 -0.0753
 5280W        W22127  11.359   4.243  13.115 -0.2460 -0.3203 -0.0768
 5281W        W22128  10.458  10.177  14.365 -0.0217  0.0241 -0.2067
 5282W        W22129  16.803  12.918  13.734  0.1536  0.0760  0.2183
 5283W        W22130  11.543   9.532  14.971  0.1129  0.2963  0.0737
 5284W        W22131   7.987   7.529   2.349  0.0535  0.0046 -0.1632
 5285W        W22132  17.661  17.055   5.417  0.4617  0.1162  0.3084
 5286W        W22133  15.302   4.422   3.246  0.0676  0.3139  0.0505
 5287W        W22134   2.561   5.779   1.147 -0.1011 -0.0947  0.0433
 5288W        W22135   1.675   6.358   3.292 -0.1693  0.0436 -0.0511
 5289W        W22136   2.908  13.188  14.419 -0.0927 -0.0284  0.1553
 5290W        W22137  15.089   1.690  14.548 -0.3377 -0.0613  0.0798
 5291W        W22138   9.214  15.404   3.647 -0.1507  0.0111 -0.3537
 5292W        W22139   8.004   2.765  12.915 -0.1862  0.0304 -0.0854
 5293W        W22140  13.990  15.373  14.097  0.0191  0.0152 -0.0816
 5294W        W22141   7.206  14.981   2.511 -0.0532  0.0654  0.0542
 5295W        W22142   1.790  11.683   5.970 -0.3164 -0.0563  0.0461
 5296W        W22143  13.966   5.121  12.619  0.0859 -0.1797  0.0101
 5297W        W22144  17.468  16.125  14.036 -0.0427  0.3225 -0.0620
 5298W        W22145   7.199   6.186  11.531 -0.0095 -0.1063 -0.1378
 5299W        W22146  16.854  11.399   2.303  0.0509 -0.1924  0.0707
 5300W        W22147  10.223   5.453  14.481 -0.1081 -0.1604  0.2420
 5301W        W22148   7.126   7.983  16.059  0.0151 -0.1715  0.5172
 5302W        W22149  13.407   3.189   1.517 -0.2708  0.2054 -0.2861
 5303W        W22150  10.864  13.313  11.871 -0.2094 -0.3562 -0.0749
 5304W        W22151   6.473  17.545  15.613 -0.1753 -0.0533  0.1834
 5305W        W22152  14.277   5.179   3.835 -0.1184  0.0930 -0.1447
 5306W        W22153   0.638  10.447   4.176  0.0981 -0.0049 -0.1093
 5307W        W22154  14.224   7.898   0.056  0.0684  0.0473  0.1299
 5308W        W22155   4.917   4.888  11.839  0.0714  0.1193 -0.3591
 5309W        W22156  12.897   1.746   4.043  0.0918 -0.0704 -0.1332
 5310W        W22157  10.880  12.250   3.435  0.1038 -0.0129  0.1290
 5311W        W22158  11.769   4.960   2.839  0.1031  0.1191  0.0919
 5312W        W22159   4.269  11.487  16.023  0.0302  0.2350  0.0286
 5313W        W22160   6.388  11.300   4.142  0.0587  0.1044 -0.1849
 5314W        W22161   9.605   7.578   4.762  0.1680 -0.2052 -0.0831
 5315W        W22162   8.257   5.502  11.328 -0.3932  0.1784  0.3301
 5316W        W22163   8.876  10.824   5.159 -0.3743 -0.1182  0.0665
 5317W        W22164  10.925   8.031   1.859 -0.2159  0.2597 -0.3712
 5318W        W22165   2.569   0.264  16.035 -0.2732  0.1592  0.0937
 5319W        W22166  11.747  11.384   5.889  0.0401  0.0731  0.0370
 5320W        W22167   2.778  17.667  10.996  0.1395  0.1233  0.0356
 5321W        W22168   5.932   2.076   3.595 -0.4091 -0.0830  0.0920
 5322W        W22169   9.657  13.253  12.411  0.0386  0.2061  0.1470
 5323W        W22170  15.912  12.187  13.248 -0.3470  0.4723 -0.0280
 5324W        W22171  12.340  12.978   5.419 -0.2383  0.2194  0.2122
 5325W        W22172  15.182   7.510   0.758  0.2347  0.0027  0.1308
 5326W        W22173  14.213  15.903   3.460 -0.1496  0.1202  0.1117
 5327W        W22174   3.489   4.934  12.578  0.1394 -0.2487  0.1260
 5328W        W22175   8.735   8.126   5.027 -0.2722 -0.0087  0.3319
 5329W        W22176   4.146   6.254  12.720 -0.0530  0.2240  0.2432
 5330W        W22177  10.436   2.116  13.726 -0.1326  0.2001  0.3635
 5331W        W22178  17.926  10.713  13.243  0.4637  0.2300  0.1205
 5332W        W22179  14.644  15.908  14.014 -0.3354 -0.3274  0.0779
 5333W        W22180   0.210  14.033   6.060  0.0364 -0.2376 -0.0035
 5334W        W22181   6.595   6.923  12.712  0.0194  0.0530  0.2107
 5335W        W22182  17.434   3.775  14.518 -0.2275 -0.0229  0.1229
 5336W        W22183  14.860   7.346   0.242 -0.0503  0.0115 -0.2141
 5337W        W22184  12.127  10.953   2.265 -0.2684  0.4439  0.0473
 5338W        W22185   0.800   5.928  16.574  0.0172 -0.0716 -0.1734
 5339W        W22186   9.277   1.870   0.417 -0.0689 -0.0907 -0.1007
 5340W        W22187   8.591  15.182   4.576  0.0009 -0.0751 -0.2403
 5341W        W22188   1.016  13.238  13.814  0.0231 -0.2583 -0.0393
 5342W        W22189   2.850  14.207   2.735  0.0453 -0.2434 -0.0441
 5343W        W22190  11.981  14.496  12.870  0.2797  0.0785  0.3911
 5344W        W22191  12.162   5.249  16.354  0.1029  0.1155  0.0172
 5345W        W22192  10.144  11.354   1.987 -0.3941  0.2010  0.0540
 5346W        W22193   0.574   1.978   5.354  0.4627 -0.4000  0.3100
 5347W        W22194  11.852  10.721   4.437 -0.1583 -0.1114  0.1968
 5348W        W22195  11.845   3.856   1.507 -0.0835 -0.2858  0.2040
 5349W        W22196  16.560  15.319   0.772  0.2609  0.0370  0.2350
 5350W        W22197  17.076   7.538   3.375  0.0242  0.0972 -0.1483
 5351W        W22198   2.351  13.048   2.579  0.3620 -0.2340 -0.1236
 5352W        W22199  13.721   5.706   0.480 -0.1599  0.1122 -0.2111
 5353W        W22200  16.094  11.355  15.559  0.0155 -0.1413  0.0486
 5354W        W22201   2.299   6.819  11.845  0.2539 -0.4941  0.0972
 5355W        W22202   7.850   3.027   1.437  0.0103 -0.0892 -0.0786
 5356W        W22203   5.437  12.300  14.223 -0.0341 -0.0159 -0.0479
 5357W        W22204   2.897   8.016  12.266 -0.1186  0.2100 -0.2303
 5358W        W22205  16.955   3.889   4.761 -0.2256  0.0375  0.1092
 5359W        W22206  17.558  11.922   0.843 -0.2454  0.2233 -0.0426
 5360W        W22207  15.146  15.413  14.651  0.0676  0.2922 -0.1809
 5361W        W22208   6.097  17.192  14.796  0.0078  0.0053  0.2387
 5362W        W22209  17.351   8.123   5.564 -0.2386 -0.0935  0.3531
 5363W        W22210  10.719   5.660  12.181  0.0491 -0.1818 -0.0637
 5364W        W22211  16.000   3.661   0.890  0.3914  0.1449  0.1458
 5365W        W22212  12.434   4.639  13.924  0.1251 -0.0846  0.0557
 5366W        W22213  10.326  10.238   2.355 -0.0300  0.0027 -0.0306
 5367W        W22214   2.834   1.608  13.069 -0.2227 -0.0735  0.0526
 5368W        W22215  11.302   1.923  13.207  0.2054  0.3491 -0.1160
 5369W        W22216  12.596  11.817  13.997 -0.1108 -0.1284  0.0009
 5370W        W22217   8.034  11.611   1.386 -0.2576  0.1091  0.0448
 5371W        W22218   0.729   0.845  15.459 -0.3466  0.1583  0.1052
 5372W        W22219   8.402  13.425  11.603  0.0356 -0.0758  0.0316
 5373W        W22220  14.557  15.634  12.540  0.1104 -0.2499 -0.0719
 5374W        W22221   1.309  10.633  15.348 -0.2530 -0.3163  0.1425
 5375W        W22222   8.212   2.927   2.824 -0.0578 -0.2615  0.0678
 5376W        W22223   4.747  12.596   4.589  0.4888  0.0856  0.0547
 5377W        W22224   1.401  13.635   2.983 -0.0207 -0.5885 -0.1018
 5378W        W22225  11.000   5.159  13.226 -0.1032  0.1227  0.2531
 5379W        W22226   6.584  13.026   2.536 -0.0025 -0.0921  0.0110
 5380W        W22227   7.702  13.627   4.993  0.2360  0.0757  0.1345
 5381W        W22228   5.015   4.830   0.031 -0.0638 -0.3113  0.0931
 5382W        W22229  11.880   3.545  12.575  0.1449  0.1598 -0.0518
 5383W        W22230   6.958   9.183   3.754 -0.0875 -0.0173 -0.1069
 5384W        W22231   9.207   5.315  15.753  0.5273  0.1374  0.2872
 5385W        W22232  18.002  13.987   2.809 -0.0132  0.1267  0.4389
 5386W        W22233  14.391  15.051  16.197 -0.0520  0.1016  0.0592
 5387W        W22234   9.994  13.256   1.048 -0.2786  0.1956 -0.4296
 5388W        W22235   8.757  16.180  16.030 -0.0858 -0.2834  0.0205
 5389W        W22236  11.201  16.475   4.880  0.3134  0.2784 -0.1062
 5390W        W22237  16.878   3.645  15.989 -0.0435 -0.1213 -0.1542
 5391W        W22238   5.613   5.385   1.789 -0.0705  0.0194  0.2143
 5392W        W22239   5.995   8.282   0.832  0.1161  0.1917  0.2143
 5393W        W22240  17.957  17.928  11.546 -0.2023 -0.2899  0.3917
 5394W        W22241   5.017  13.730  14.366  0.0465 -0.3866  0.1491
 5395W        W22242  14.368   3.989  12.992  0.0850  0.0396 -0.0775
 5396W        W22243  14.059  15.060   0.011 -0.0631  0.0395 -0.0573
 5397W        W22244   5.211   5.877   2.446 -0.1413  0.0351  0.0487
 5398W        W22245  14.595   9.607   6.021  0.1426 -0.0988 -0.4523
 5399W        W22246   0.323   8.937  14.982 -0.2622  0.0037 -0.2539
 5400W        W22247  10.512  13.312   0.862 -0.2737 -0.2120  0.1915
 5401W        W22248   2.968   0.919   3.754 -0.0398 -0.1102  0.0281
 5402W        W22249   3.048   3.268   3.252  0.3079 -0.1439 -0.1311
 5403W        W22250  10.044   9.153  11.661  0.2163 -0.1587  0.1208
 5404W        W22251  12.199   6.441   4.941  0.1252  0.3237 -0.2097
 5405W        W22252  10.997   0.426   1.963  0.2672  0.0745  0.1166
 5406W        W22253  17.068  15.873   4.364 -0.0969  0.0704  0.1079
 5407W        W22254  12.070   6.293  14.853  0.3150  0.2019  0.0647
 5408W        W22255   0.253  15.926  12.581  0.1345 -0.0765 -0.2083
 5409W        W22256  14.695  15.514  14.748  0.1970 -0.0837  0.0656
 5410W        W22257  12.019   9.623  14.746 -0.3179 -0.0866 -0.3882
 5411W        W22258   5.737   9.292  12.250  0.0340 -0.1665  0.0074
 5412W        W22259   6.021   7.652   2.824 -0.1255  0.0245  0.1133
 5413W        W22260  17.644   8.958  12.563  0.0907 -0.2441  0.2492
 5414W        W22261  10.414   6.755  13.321  0.3539 -0.4472  0.2610
 5415W        W22262   9.958   8.607  15.332 -0.0192  0.0266  0.1266
 5416W        W22263   8.442   3.649   4.970 -0.0478  0.3119  0.2321
 5417W        W22264  10.221  16.585  12.635 -0.0855 -0.1432  0.3053
 5418W        W22265   3.384   4.390  11.212  0.1121 -0.1301  0.4076
 5419W        W22266   6.124   0.604   1.250 -0.0645  0.0310  0.0964
 5420W        W22267  16.423  17.720   4.116  0.1672 -0.3412  0.0407
 5421W        W22268  17.305  17.938   0.479  0.0800 -0.1897 -0.2964
 5422W        W22269   9.922  13.222   4.190  0.3522 -0.0198 -0.1640
 5423W        W22270   0.733  16.282  16.003  0.1362  0.1323 -0.0923
 5424W        W22271  14.110   1.431  11.308 -0.4594  0.2301  0.2315
 5425W        W22272   9.951   6.963  13.312 -0.0804 -0.0878 -0.1627
 5426W        W22273  10.726   4.148  13.803  0.1129 -0.1670  0.1312
 5427W        W22274   2.241   3.323  14.019  0.1350  0.1624  0.0539
 5428W        W22275  11.881   0.282  14.487 -0.2078  0.1851 -0.0498
 5429W        W22276  11.189   0.246   3.798  0.0905  0.3570  0.2797
 5430W        W22277   0.162   6.483   0.364  0.0853  0.2499  0.1786
 5431W        W22278  15.492   6.563   3.209 -0.0601  0.2337  0.1826
 5432W        W22279   5.354  17.469   2.032  0.2924 -0.2458 -0.2068
 5433W        W22280   4.284   5.136   0.478 -0.3025 -0.1085  0.0767
 5434W        W22281  10.958  11.252  16.536  0.0399  0.0417  0.1581
 5435W        W22282  15.319   0.560  15.027 -0.1392 -0.2314  0.2215
 5436W        W22283  15.137   7.915   0.483 -0.4465  0.0827  0.0510
 5437W        W22284   3.231   1.057   5.396  0.0298  0.0110  0.2782
 5438W        W22285  15.479   1.604   1.406  0.4574  0.0783  0.0891
 5439W        W22286   7.496  10.912  15.189  0.0854 -0.1028 -0.0340
 5440W        W22287   6.428   0.264  16.351 -0.2468  0.1930  0.4175
 5441W        W22288   2.487  17.488  13.571  0.4819 -0.1003 -0.2282
 5442W        W22289   3.549  15.168   0.109  0.0829  0.0863 -0.2181
 5443W        W22290  10.808   1.145  12.490 -0.1104 -0.0333 -0.3458
 5444W        W22291   3.078   6.823   1.478  0.2928  0.2654  0.2962
 5445W        W22292   5.873   4.422   2.399 -0.2759  0.0180 -0.2137
 5446W        W22293   4.537   8.285   5.676  0.3081  0.0908  0.2293
 5447W        W22294   0.756  10.412   5.371  0.1295 -0.0422 -0.0086
 5448W        W22295   3.169  15.092   2.067  0.1830  0.1688 -0.0033
 5449W        W22296   5.925   7.411   3.443 -0.2974  0.0582  0.1519
 5450W        W22297  15.482  14.674   0.408 -0.1078  0.1279  0.1312
 5451W        W22298   2.695  11.806  16.404 -0.0651  0.0436 -0.0715
 5452W        W22299   6.059   6.694   4.606 -0.2699 -0.0235  0.2510
 5453W        W22300  14.134   8.880   1.868  0.0473 -0.2848 -0.2348
 5454W        W22301  12.476   9.883  12.753 -0.1747  0.0157  0.0329
 5455W        W22302   9.939   1.918  12.375  0.1656  0.0218  0.1334
 5456W        W22303   2.883  10.176  15.915  0.4271 -0.0786 -0.0445
 5457W        W22304   0.495   9.606   5.594  0.0297  0.1121 -0.0247
 5458W        W22305  10.122   8.748  14.434 -0.0829 -0.1302 -0.1098
 5459W        W22306   4.771   0.401  14.653  0.1870 -0.2536 -0.3195
 5460W        W22307   6.866  11.300  16.214 -0.0609  0.1278 -0.0771
 5461W        W22308  11.566   0.553   1.635 -0.0033 -0.1674 -0.0555
 5462W        W22309  14.368  11.750  11.551 -0.3079  0.3454  0.2101
 5463W        W22310  12.294   3.259  11.682 -0.3481  0.2320 -0.3445
 5464W        W22311   4.099   9.908   2.083 -0.3334 -0.3465  0.2443
 5465W        W22312  16.138   5.044  12.129  0.0850 -0.1720 -0.0791
 5466W        W22313   0.573  11.884   2.900 -0.1769 -0.0635  0.0718
 5467W        W22314  18.020   6.949   6.125 -0.0026 -0.1050  0.0830
 5468W        W22315   7.329   0.151  16.054 -0.0645  0.1669 -0.3042
 5469W        W22316   1.903  17.746   5.841  0.0685 -0.0573  0.0485
 5470W        W22317   1.995   8.259  16.173  0.2990  0.1695  0.0821
 5471W        W22318   0.028   1.260  14.358  0.0472 -0.3032  0.3391
 5472W        W22319  11.631  11.261  11.731  0.1882  0.0893 -0.0212
 5473W        W22320  18.122   9.789  14.877 -0.0931  0.0228  0.0085
 5474W        W22321   7.128  15.511  15.084 -0.0179 -0.0290  0.2040
 5475W        W22322   2.832   4.754  11.314 -0.3435 -0.0859  0.2321
 5476W        W22323  12.963   7.183   4.059 -0.2628  0.0593  0.1137
 5477W        W22324   7.253   1.733   2.446  0.2273 -0.2189 -0.3033
 5478W        W22325  10.373   9.790   0.925 -0.2353  0.1315 -0.2359
 5479W        W22326  11.163  11.385   1.146  0.1670  0.1059 -0.0847
 5480W        W22327   4.122   4.920   2.994 -0.1645  0.1103  0.0932
 5481W        W22328  11.208   9.876  12.452 -0.0860  0.0865 -0.0393
 5482W        W22329   8.280   0.472  14.911 -0.1994 -0.2149  0.0491
 5483W        W22330   7.831   2.090   4.177  0.2940  0.0108 -0.0642
 5484W        W22331   6.516   3.162  16.316 -0.0316 -0.1142  0.2955
 5485W        W22332   1.960   8.558   4.885 -0.2527 -0.1253  0.1320
 5486W        W22333   2.460   7.246  15.161 -0.3715 -0.0462 -0.0814
 5487W        W22334   1.256  14.220  15.494 -0.0281 -0.2568  0.2864
 5488W        W22335   1.681  13.589   0.220  0.1211  0.0374  0.0562
 5489W        W22336  14.982   3.971   2.947 -0.1198 -0.0230 -0.1262
 5490W        W22337  13.309   9.667   1.799  0.1165 -0.0929 -0.0411
 5491W        W22338   1.732   7.773   4.845 -0.4745 -0.2886  0.1823
 5492W        W22339   9.224  10.024  13.212 -0.0683 -0.2152 -0.0981
 5493W        W22340   4.511   0.666   4.339 -0.0595 -0.1038  0.1424
 5494W        W22341  18.124   2.266  11.719  0.3229  0.1553 -0.3042
 5495W        W22342   8.927   4.978   1.005  0.0487 -0.1498  0.0176
 5496W        W22343  17.821   7.056  16.071 -0.2496 -0.0746  0.0528
 5497W        W22344   4.294   5.622  14.679  0.0787  0.0207  0.0024
 5498W        W22345   9.025  17.311  13.302  0.0037 -0.1396 -0.1160
 5499W        W22346   0.370  10.824  13.004 -0.0264 -0.0114  0.1045
 5500W        W22347   6.684   6.352  11.555  0.6129  0.0714 -0.0098
 5501W        W22348   0.591   4.596   4.727  0.1206  0.0704  0.1596
 5502W        W22349  17.529  17.220  12.582 -0.0821  0.2060 -0.2967
 5503W        W22350   1.433  16.677  13.271 -0.1171  0.0629 -0.1416
 5504W        W22351  16.405  11.583   0.886  0.2058  0.0260 -0.0531
 5505W        W22352   0.371   2.580  11.355  0.2147  0.2730 -0.0324
 5506W        W22353   9.300   7.395   5.116  0.3681 -0.0269  0.1034
 5507W        W22354   4.827  17.676  15.491 -0.1287  0.0051 -0.2566
 5508W        W22355   9.191   8.371  11.404 -0.2532 -0.0950  0.1618
 5509W        W22356   1.670  18.143   6.117 -0.0124  0.0585 -0.1194
 5510W        W22357   9.821   0.336   2.631 -0.0095 -0.0321  0.0417
 5511W        W22358  18.129  16.986  14.273 -0.0175  0.0327 -0.1944
 5512W        W22359  11.306  11.939   2.522  0.1126 -0.2491  0.2015
 5513W        W22360  12.741  13.664  15.266 -0.1362 -0.0264 -0.2383
 5514W        W22361  14.984  10.974   1.316  0.3689 -0.1068 -0.2651
 5515W        W22362   1.245   1.666  11.685 -0.2674  0.2625  0.2217
 5516W        W22363  15.239  17.400   2.034  0.0790  0.0550 -0.0976
 5517W        W22364  13.281  10.896  12.064  0.0625  0.1426  0.0905
 5518W        W22365  14.943   3.672  14.698 -0.0203 -0.0291 -0.2417
 5519W        W22366  10.091   9.706  12.999  0.0742  0.1675 -0.0255
 5520W        W22367  15.261   9.881   3.806 -0.0179 -0.0699 -0.2650
 5521W        W22368  14.426   2.101  11.471 -0.2291  0.3878  0.2537
 5522W        W22369  17.105   2.508   3.602 -0.3853 -0.1434 -0.3647
 5523W        W22370  16.334   2.788   3.469 -0.1870 -0.0063  0.1879
 5524W        W22371   1.370  12.203   2.569 -0.0276  0.0395  0.0415
 5525W        W22372   7.488   6.817  13.539  0.0015 -0.2154  0.0749
 5526W        W22373  15.752  13.553   3.495  0.0232  0.0350 -0.0990
 5527W        W22374  14.880  13.015  13.497  0.2047 -0.1421 -0.2665
 5528W        W22375  10.357   6.041  12.032  0.0488 -0.1280 -0.0504
 5529W        W22376   3.056  16.499  12.448  0.0617  0.1399  0.0185
 5530W        W22377   2.321   2.786   2.877  0.0183 -0.1439  0.3378
 5531W        W22378   8.884  15.666  11.945  0.0568  0.3039 -0.0624
 5532W        W22379   8.554   5.333  14.480  0.1744 -0.0115  0.1738
 5533W        W22380   4.440   8.372   2.335 -0.3771  0.3167  0.1609
 5534W        W22381  10.202   8.193  12.609  0.1520 -0.0013  0.2431
 5535W        W22382   5.837  13.272   2.181  0.1764 -0.2307  0.3220
 5536W        W22383   7.603   1.490  12.626  0.1065 -0.1649  0.2164
 5537W        W22384  14.854   0.645  13.275  0.2063 -0.1153  0.0074
 5538W        W22385  10.026   4.232   1.660 -0.0767  0.0477  0.1250
 5539W        W22386   4.976   8.538  12.306 -0.0616 -0.3680 -0.0975
 5540W        W22387   6.475  13.106   3.099  0.1379  0.1727  0.1879
 5541W        W22388   1.933  13.182   0.985  0.0084  0.0709  0.0458
 5542W        W22389  12.794   7.962  13.331  0.1272 -0.0280  0.2314
 5543W        W22390   0.483  16.003  15.147 -0.0788 -0.1411  0.1390
 5544W        W22391  10.911  15.325   2.127 -0.1764  0.1441  0.1142
 5545W        W22392   0.718  15.866   2.259 -0.4342  0.0655  0.0070
 5546W        W22393  15.992   1.609  11.796  0.3382  0.2196  0.0516
 5547W        W22394  14.749   5.966  15.459  0.1873 -0.0781 -0.0552
 5548W        W22395   1.854   7.145   2.145  0.2494 -0.2695  0.1132
 5549W        W22396   6.354  15.184  12.090 -0.2271 -0.3060  0.0450
 5550W        W22397  14.157   0.768  11.975  0.0488  0.0152  0.1789
 5551W        W22398   1.879  17.950   0.285  0.1505  0.3032 -0.1809
 5552W        W22399   4.026  11.055  11.848 -0.1862 -0.2916  0.3702
 5553W        W22400   4.433   6.234  11.513  0.0980  0.2471  0.1475
 5554W        W22401   2.163  11.693  15.267 -0.0891 -0.1062 -0.4675
 5555W        W22402  13.969   4.003  12.705 -0.0090  0.0766 -0.0116
 5556W        W22403   6.946   2.434  13.222 -0.2083  0.2836 -0.1663
 5557W        W22404   3.508   3.776  15.868 -0.4994 -0.0553 -0.1999
 5558W        W22405  10.559   4.230   2.514 -0.3298  0.2035  0.0891
 5559W        W22406  15.736   0.442   3.190 -0.2438  0.2318  0.0852
 5560W        W22407   3.668   5.427   4.678 -0.1368  0.0168  0.1757
 5561W        W22408   1.080   4.471  12.727 -0.3674  0.0417 -0.1723
 5562W        W22409  17.313  16.918  13.441  0.1220 -0.1011  0.0256
 5563W        W22410  13.883  15.006   2.509 -0.1007  0.2730 -0.1044
 5564W        W22411  13.830   7.945  12.318  0.3266  0.0524 -0.0404
 5565W        W22412   0.518  16.971   3.133 -0.1127  0.0377 -0.3184
 5566W        W22413   4.805  13.439  14.006  0.0277 -0.1090 -0.1321
 5567W        W22414   6.385  13.769  16.549 -0.0387 -0.1003  0.1461
 5568W        W22415  11.492  11.015  15.636  0.1972  0.2442  0.1308
 5569W        W22416   0.498   2.643   1.525 -0.4083  0.0047  0.0717
 5570W        W22417   9.086   4.128  12.603 -0.2692  0.0502 -0.4081
 5571W        W22418  16.418   2.537   4.651 -0.1188 -0.1179  0.2912
 5572W        W22419  17.381  10.857  11.149 -0.3002  0.0658  0.1262
 5573W        W22420   3.553   3.447   1.385 -0.0429 -0.3303 -0.1435
 5574W        W22421  16.903  12.569  13.310 -0.0675  0.3317 -0.1814
 5575W        W22422   4.399   7.379   5.363  0.0907 -0.2136 -0.3772
 5576W        W22423   5.944   4.218  14.103  0.1475 -0.2438  0.1300
 5577W        W22424  13.570   7.199  15.110  0.2968 -0.1013  0.2971
 5578W        W22425  16.180  16.733  16.303  0.1414  0.0541  0.3399
 5579W        W22426   3.453   8.540   4.710 -0.0094  0.2821 -0.0559
 5580W        W22427   7.106  12.721   1.750  0.0271  0.1120 -0.0653
 5581W        W22428   4.442   7.800  14.476  0.4438  0.1606  0.1343
 5582W        W22429  11.217   4.282  13.953  0.1033 -0.2212 -0.3052
 5583W        W22430  15.752   4.798  11.158 -0.3582  0.2585 -0.1441
 5584W        W22431  13.087  10.385  13.705  0.2425 -0.1584 -0.0507
 5585W        W22432   6.738  17.283   4.250 -0.2033 -0.2467 -0.1104
 5586W        W22433   0.269  17.259   4.129 -0.2737  0.0943 -0.4924
 5587W        W22434   7.770  10.756  16.057  0.0133  0.0733 -0.1858
 5588W        W22435  13.764  10.778   4.650  0.0135  0.1261  0.2676
 5589W        W22436   6.109   7.693   1.027  0.0303 -0.0943 -0.3842
 5590W        W22437   3.296   4.537  13.824  0.3856 -0.2302 -0.0120
 5591W        W22438  11.017  14.546   4.848  0.3394  0.0683 -0.0785
 5592W        W22439   4.661   7.786   0.736  0.1777  0.2713 -0.0440
 5593W        W22440   3.949   0.355   4.557 -0.1726  0.2090 -0.1877
 5594W        W22441   5.482  15.276   4.196  0.3386  0.0411  0.3189
 5595W        W22442  17.114   7.617   0.364 -0.1431  0.1433  0.1145
 5596W        W22443   2.485  10.535   0.304 -0.0150  0.0662  0.1687
 5597W        W22444   2.160   0.252   0.905 -0.1605 -0.0707  0.0911
 5598W        W22445  14.636   3.369   3.476 -0.0955  0.0702 -0.0949
 5599W        W22446   0.983   6.719  15.728  0.1198 -0.0202  0.0992
 5600W        W22447  16.979   5.091   0.813 -0.1627 -0.2144  0.1405
 5601W        W22448   4.129  15.665   5.388  0.2607 -0.1590  0.0765
 5602W        W22449   1.849   6.852   3.236 -0.0404  0.1592  0.0941
 5603W        W22450  15.287   2.784   4.155 -0.1413 -0.0981  0.2226
 5604W        W22451   5.540  11.182   3.568 -0.0642  0.1241 -0.0109
 5605W        W22452  11.814   8.240  13.979 -0.0454  0.0501  0.2546
 5606W        W22453  10.726   5.837   4.800 -0.2792 -0.1928 -0.0935
 5607W        W22454  12.805   5.959   3.388 -0.2028 -0.0669  0.0851
 5608W        W22455   4.360   5.964  13.254 -0.2333 -0.3943  0.0889
 5609W        W22456   5.464   4.174   0.586  0.0102  0.4867 -0.0488
 5610W        W22457  13.179   9.267  15.147 -0.1299 -0.2214  0.1603
 5611W        W22458   5.180   7.622   5.371 -0.1893 -0.1713 -0.1975
 5612W        W22459   3.944   0.440   3.582  0.0419  0.0188 -0.2556
 5613W        W22460   9.546   0.968  16.166  0.0339  0.0585 -0.0898
 5614W        W22461   8.780  12.255   6.022 -0.0660 -0.3099  0.1959
 5615W        W22462   7.950   1.816  12.030  0.2032 -0.2624  0.3637
 5616W        W22463   0.828   0.980   4.524 -0.1023  0.2348  0.2750
 5617W        W22464  11.764  12.139   0.848 -0.1221 -0.0137  0.0417
 5618W        W22465   8.731   6.079  11.680 -0.0270 -0.1895 -0.2465
 5619W        W22466  16.590   8.117   1.334 -0.1483  0.0537  0.1684
 5620W        W22467   1.965  14.426   2.180  0.2610 -0.1040 -0.0942
 5621W        W22468   2.677   3.963  12.764 -0.1008 -0.0139 -0.0451
 5622W        W22469   7.862   1.839  15.211  0.0932 -0.0953  0.2714
 5623W        W22470   2.189   8.215   1.785 -0.0452 -0.1501 -0.0552
 5624W        W22471  10.610   2.417  11.649 -0.2259  0.3522 -0.1425
 5625W        W22472  15.070   7.851  16.618  0.1047  0.1868  0.0367
 5626W        W22473   6.472   1.564   1.088  0.5973  0.1612  0.1276
 5627W        W22474  11.007  17.740   0.751 -0.1357 -0.3243 -0.5051
 5628W        W22475   2.387  10.200   6.302  0.0199  0.1317  0.0984
 5629W        W22476   3.654  17.117  16.531  0.0438  0.2084  0.1150
 5630W        W22477   1.906  18.124   1.241 -0.0976 -0.3045  0.1942
 5631W        W22478  17.164  12.772  14.460 -0.0817  0.0411 -0.0880
 5632W        W22479   8.342  16.189   2.062 -0.0439  0.0538 -0.2657
 5633W        W22480   4.932  12.428   5.098 -0.0630 -0.3308  0.0383
 5634W        W22481   7.074   4.849   2.756 -0.1987 -0.1668 -0.0955
 5635W        W22482   6.962  17.256   4.698 -0.1145  0.0510  0.0806
 5636W        W22483   2.566   5.549   3.910  0.1948  0.0634  0.0933
 5637W        W22484  11.876   4.836  14.725  0.1720 -0.0001 -0.0691
 5638W        W22485  11.703  12.072  12.796  0.1753 -0.0579 -0.1472
 5639W        W22486  10.240  10.984  12.147 -0.0200  0.4853  0.1078
 5640W        W22487  17.582  15.865  13.570 -0.0292 -0.1265  0.0478
 5641W        W22488   3.823  15.168  13.950  0.0643 -0.2320  0.1313
 5642W        W22489  17.836   1.042   3.812  0.0182 -0.3036 -0.2514
 5643W        W22490  18.099   6.284   2.097 -0.0633 -0.0545  0.2846
 5644W        W22491   7.960   0.524   3.583  0.2462 -0.1656 -0.4011
 5645W        W22492   6.351  13.009   5.149 -0.2764  0.3012  0.3310
 5646W        W22493   0.279   4.244   1.005  0.0467  0.0142 -0.0881
 5647W        W22494  15.881   6.553  14.097  0.0997 -0.0250  0.2309
 5648W        W22495  15.296  13.566   2.050  0.0537 -0.2367  0.0723
 5649W        W22496  10.790  16.204  15.863 -0.0600  0.2103 -0.3893
 5650W        W22497   8.688   8.455   0.932  0.1110 -0.1465 -0.1684
 5651W        W22498  16.375   3.699   2.615 -0.0362 -0.1082  0.3598
 5652W        W22499   8.409  12.308   5.624 -0.2049 -0.1871 -0.0628
 5653W        W22500  10.862  15.312  11.153 -0.0875 -0.0521  0.0027
 5654W        W22501   2.496   1.312   1.774  0.4189  0.1767  0.2440
 5655W        W22502   3.985   7.324   2.680  0.0886 -0.1755 -0.2012
 5656W        W22503  14.864   9.642  14.362  0.1584 -0.0622 -0.0414
 5657W        W22504  16.206  12.540  12.483  0.2150 -0.1002 -0.1339
 5658W        W22505   9.239  12.217  15.265  0.2969  0.2006 -0.0190
 5659W        W22506   6.381   0.140   4.967 -0.0169  0.0381  0.2082
 5660W        W22507   7.415  13.127   1.609  0.0975  0.2024  0.0668
 5661W        W22508  12.838  14.150   2.896 -0.2946 -0.0092  0.0776
 5662W        W22509  14.444   9.779  15.339 -0.1850  0.0966  0.1663
 5663W        W22510   0.741  15.991   3.115  0.1141 -0.2433  0.1021
 5664W        W22511   6.568   2.399  14.328  0.1132 -0.0415  0.0535
 5665W        W22512   2.805  17.609  16.245 -0.0357 -0.2312 -0.1264
 5666W        W22513   3.880   7.390  15.810  0.0759  0.1454 -0.0872
 5667W        W22514   4.240  13.364   1.476 -0.0344 -0.0341  0.0711
 5668W        W22515  16.351   3.892  13.079  0.1088  0.4028  0.1621
 5669W        W22516   8.343   4.021  14.280 -0.1386 -0.1755  0.2445
 5670W        W22517  15.152   7.044  13.734 -0.0780  0.1373  0.2846
 5671W        W22518  12.101   1.169   3.295 -0.2953  0.1480  0.0169
 5672W        W22519   5.435   7.627  13.466 -0.1123 -0.1637  0.0463
 5673W        W22520  17.636  11.958  13.715  0.1529 -0.2422  0.0524
 5674W        W22521  15.575  15.616   1.381 -0.1334 -0.2483  0.3102
 5675W        W22522   6.670   4.174  16.402  0.4903 -0.0825  0.3016
 5676W        W22523  11.343  14.077   3.576  0.3087  0.1389  0.0049
 5677W        W22524  13.305   6.216   2.813  0.0062 -0.1640  0.3753
 5678W        W22525   7.572  12.752   2.016  0.0209 -0.3995 -0.3083
 5679W        W22526  12.449  15.867  12.647  0.0631  0.0765 -0.0286
 5680W        W22527  17.954  16.640   4.623 -0.0952  0.0553 -0.2396
 5681W        W22528  15.305   5.106   2.028 -0.2410 -0.2423  0.0450
 5682W        W22529  15.959  10.960   1.427 -0.0841  0.1077 -0.0607
 5683W        W22530  16.035  11.339   0.447  0.1908  0.1677 -0.0357
 5684W        W22531   2.134   3.649   3.498  0.1471  0.0505  0.0872
 5685W        W22532   9.537  14.759  13.026  0.1737 -0.0136  0.0049
 5686W        W22533  16.045  16.356  16.562  0.2171 -0.0645  0.4593
 5687W        W22534   9.891   5.771  16.108  0.0080 -0.0204 -0.0108
 5688W        W22535   0.959  13.838   0.183 -0.1839  0.2554  0.0707
 5689W        W22536   9.398   9.055  13.352 -0.0002 -0.0017 -0.0158
 5690W        W22537  15.767   1.192  13.076 -0.2673 -0.2848 -0.0380
 5691W        W22538  16.994   4.778  15.357 -0.1489  0.2546 -0.0882
 5692W        W22539   2.786   4.277  15.653  0.0375  0.1089 -0.0839
 5693W        W22540   5.487   6.991  12.098  0.1495 -0.4444 -0.1946
 5694W        W22541   0.530   5.852   3.740 -0.1862  0.2062 -0.0250
 5695W        W22542  15.538   5.803  15.039 -0.0148 -0.1324 -0.0627
 5696W        W22543  16.000   2.352   5.425 -0.1016  0.0461  0.0640
 5697W        W22544  14.712  13.023   0.580  0.1257 -0.0717  0.1608
 5698W        W22545   1.131  14.307   0.488  0.0238 -0.0590 -0.4026
 5699W        W22546   7.122  13.388   0.916 -0.0900  0.0241 -0.3180
 5700W        W22547  10.127   2.927   0.323 -0.1983  0.2210 -0.0366
 5701W        W22548   2.151   4.459  16.462  0.3100 -0.1095 -0.1254
 5702W        W22549   1.605  16.810  13.808 -0.0762 -0.1082  0.2503
 5703W        W22550   8.058  15.322   2.079 -0.1637  0.0784  0.0844
 5704W        W22551  16.571   2.707  11.476 -0.0701 -0.2322  0.3537
 5705W        W22552   9.234   2.068   4.275  0.0861  0.1330 -0.0935
 5706W        W22553   1.402   9.141  15.751 -0.3223  0.0214 -0.0542
 5707W        W22554  15.035  11.988   4.952  0.2347  0.0197  0.1602
 5708W        W22555   8.306  10.606   0.278  0.1105 -0.2516  0.1422
 5709W        W22556  17.638  15.478   3.678  0.2445  0.0527 -0.1354
 5710W        W22557   8.881  17.208   4.496  0.1497  0.0208 -0.0688
 5711W        W22558  11.832  11.828   4.002 -0.5013 -0.0050 -0.3964
 5712W        W22559   5.127   9.125   0.258 -0.3535 -0.0750 -0.1018
 5713W        W22560  13.991   3.263   5.470  0.1757 -0.1125 -0.3288
 5714W        W22561  14.705  17.637  13.875  0.3597 -0.1882  0.0197
 5715W        W22562   3.182   7.399   0.384 -0.2386 -0.0724 -0.0612
 5716W        W22563   6.951  10.168   4.321  0.0675  0.2339 -0.0459
 5717W        W22564   1.638  13.555   2.210 -0.1441 -0.0195  0.1081
 5718W        W22565  11.790  15.659   2.571  0.2555  0.1446 -0.0439
 5719W        W22566   9.613   4.964   2.319  0.0933  0.1003  0.1996
 5720W        W22567   0.120  11.575   3.113 -0.4757  0.1950  0.0828
 5721W        W22568   2.041   6.295   1.713  0.2083  0.0705 -0.0082
 5722W        W22569  12.303  17.247   3.317 -0.0284  0.0460 -0.0335
 5723W        W22570  10.157  10.431   0.824  0.0332 -0.1555  0.1363
 5724W        W22571   3.336   6.575  13.960  0.1280 -0.0127  0.2256
 5725W        W22572  14.785   3.183   2.718  0.1256 -0.1614 -0.0718
 5726W        W22573  11.220  12.094   0.193 -0.3232  0.4386  0.0403
 5727W        W22574   1.674   3.524   0.732 -0.1558  0.0587  0.0255
 5728W        W22575  17.905   0.231   5.822  0.1436  0.0245 -0.0280
 5729W        W22576   3.552  15.546   3.030  0.2997  0.0283 -0.2127
 5730W        W22577  11.398   8.131  15.783 -0.2100 -0.1286  0.0953
 5731W        W22578  17.277  12.574   2.718 -0.2916 -0.2433 -0.3932
 5732W        W22579   6.269   3.205   4.215 -0.1351  0.0109 -0.0741
 5733W        W22580  17.700   1.692   1.140  0.0373  0.0799  0.0139
 5734W        W22581   0.234   8.370   0.087 -0.1189 -0.2416  0.0366
 5735W        W22582   5.509  14.524   5.077  0.1814  0.1302 -0.0346
 5736W        W22583   7.925  12.721   1.374  0.1165 -0.0463 -0.1837
 5737W        W22584   5.317   8.419  15.742 -0.2667 -0.1427 -0.1284
 5738W        W22585   3.752   9.099   2.170 -0.2428  0.0684 -0.0207
 5739W        W22586   4.693   3.101  11.830 -0.0869 -0.1448  0.0980
 5740W        W22587   8.227  14.666   3.809 -0.2311  0.0683 -0.1090
 5741W        W22588  10.069   6.114  12.852 -0.2583 -0.0734 -0.3796
 5742W        W22589  13.015   0.878   3.476 -0.1062 -0.2264  0.0918
 5743W        W22590  17.662   2.243   1.790  0.1906 -0.1663  0.1801
 5744W        W22591   6.047   1.551   6.327 -0.2957  0.1908  0.0384
 5745W        W22592  15.950   6.057  11.595 -0.1080  0.2340 -0.3598
 5746W        W22593   3.585  13.241   0.061  0.0983  0.2935  0.2161
 5747W        W22594  13.296   7.135  11.896 -0.1555  0.0109  0.1078
 5748W        W22595  14.569  13.162  13.875 -0.1786 -0.2774  0.1120
 5749W        W22596  14.315   7.302   1.206  0.1164  0.0006  0.0839
 5750W        W22597   9.114  13.262  14.959  0.2740  0.0248  0.1510
 5751W        W22598   6.971   7.622  16.538  0.0483  0.0429  0.1183
 5752W        W22599  14.218   1.164  13.695 -0.0731 -0.0779  0.0326
 5753W        W22600  10.616  11.322   4.564  0.0405 -0.1765  0.0296
 5754W        W22601   7.822   8.704   3.794  0.3681 -0.1446 -0.0346
 5755W        W22602  10.348  15.682  13.888 -0.3416  0.0901 -0.4916
 5756W        W22603  11.754   4.941   4.982  0.4023  0.2665 -0.4357
 5757W        W22604   7.713   6.125   0.371  0.0173  0.0907 -0.0914
 5758W        W22605  16.150   7.777  14.901  0.1913  0.0108  0.0013
 5759W        W22606  17.918   1.349   0.185 -0.3194  0.1733 -0.0711
 5760W        W22607   8.155  11.562   5.200  0.1899  0.3243 -0.2079
 5761W        W22608  16.744   2.751   1.183  0.1923 -0.1779  0.2098
 5762W        W22609  15.566  16.511  13.983  0.0724 -0.0159  0.0475
 5763W        W22610   9.219   6.029  13.390  0.2167 -0.1017 -0.0587
 5764W        W22611   0.166   8.588   1.257 -0.2434  0.5061  0.1347
 5765W        W22612   2.072   7.063  13.552  0.0159 -0.1042  0.3832
 5766W        W22613   6.970   9.040  14.027 -0.2772 -0.0170 -0.2654
 5767W        W22614   9.902   4.691   3.023  0.4090 -0.1639  0.0332
 5768W        W22615   3.012  17.303   2.236 -0.0122  0.1788  0.0332
 5769W        W22616   8.558   0.073  12.582 -0.2267  0.2208 -0.0184
 5770W        W22617  14.591  11.791   5.155  0.3710  0.0851 -0.1147
 5771W        W22618   3.522   1.479   2.829 -0.1783  0.1377  0.1992
 5772W        W22619   9.924  17.614   2.474  0.0580 -0.3171  0.1883
 5773W        W22620   9.036  10.839  12.080  0.0986  0.0001  0.3533
 5774W        W22621   2.983  16.231   0.333 -0.2537 -0.0146  0.0246
 5775W        W22622  10.647  10.987  13.135 -0.1928  0.1996 -0.1273
 5776W        W22623   8.318   9.939  13.312  0.1700 -0.2234  0.1502
 5777W        W22624  15.148   6.100  11.830 -0.0159  0.0040  0.1497
 5778W        W22625   9.968   7.154  12.455 -0.1251 -0.1064  0.2854
 5779W        W22626  17.807  10.229  13.674 -0.1287  0.0249  0.0274
 5780W        W22627   1.114   8.679  15.729  0.0405  0.0785  0.2517
 5781W        W22628  17.597   6.861   3.838  0.0945  0.0043 -0.1782
 5782W        W22629  10.936   4.948   4.313  0.1254 -0.3804  0.1053
 5783W        W22630  12.637  13.513   4.745  0.2666 -0.0565  0.0224
 5784W        W22631  13.937   9.664  15.422 -0.1490 -0.2834 -0.0477
 5785W        W22632  11.737   7.756  14.145 -0.0254  0.2835  0.1680
 5786W        W22633  17.969   0.433   1.579  0.3806  0.0121 -0.1349
 5787W        W22634   8.556   0.824  12.828 -0.4469 -0.0939 -0.1822
 5788W        W22635  15.091   4.161   2.463 -0.0879 -0.1876  0.1892
 5789W        W22636   4.555  16.221  13.958 -0.1797  0.0951  0.1642
 5790W        W22637   1.838  14.264   4.360 -0.1167  0.3211  0.0520
 5791W        W22638   7.217  14.262  15.579  0.0141  0.0999  0.4494
 5792W        W22639   9.816   3.613   5.162  0.1629  0.0409 -0.1731
 5793W        W22640  10.910   6.739  11.326 -0.1788 -0.0897  0.0111
 5794W        W22641   2.043  15.248  16.235 -0.0146 -0.2696 -0.1052
 5795W        W22642   1.358  17.879   4.461 -0.0494  0.1649 -0.1325
 5796W        W22643   5.598   9.223   0.596 -0.2347 -0.0253  0.0999
 5797W        W22644   8.092   0.152   4.029  0.3479  0.1507 -0.0713
 5798W        W22645  11.894  11.660   1.777 -0.3055 -0.3966  0.0953
 5799W        W22646  13.695  11.209   2.862 -0.0135 -0.0647 -0.3002
 5800W        W22647  14.651   4.389  16.094  0.1597  0.2098  0.0752
 5801W        W22648  12.230  14.540  13.752 -0.4208 -0.0421  0.2810
 5802W        W22649  12.504  16.447  15.089  0.3470 -0.0124  0.2331
 5803W        W22650  11.217   6.007   3.276  0.3345 -0.1726  0.2526
 5804W        W22651   6.280  10.607   1.122  0.0726  0.0240 -0.1880
 5805W        W22652  14.762   4.819  14.116 -0.3028  0.1720  0.0315
 5806W        W22653  17.236  15.991   2.948  0.2775  0.2133  0.1879
 5807W        W22654   3.936  12.544  15.715 -0.0254 -0.0104  0.0141
 5808W        W22655   7.282  11.345  13.869  0.2120  0.0399 -0.3015
 5809W        W22656   4.191  11.118   0.644 -0.3973 -0.0075  0.4203
 5810W        W22657  10.068  11.042   3.252 -0.3120 -0.3203  0.4376
 5811W        W22658   0.094  12.900  14.578  0.0449  0.0204  0.1088
 5812W        W22659   7.349  12.334  14.273 -0.2852 -0.0510  0.0037
 5813W        W22660   7.542   7.664   0.303  0.2741 -0.4300  0.2388
 5814W        W22661   2.578  15.398   4.864  0.2528  0.0308 -0.0711
 5815W        W22662   7.349   1.110   0.025 -0.3056 -0.2507 -0.2513
 5816W        W22663   6.694   6.823   5.039 -0.0697  0.1614  0.1705
 5817W        W22664   4.975  15.478   1.938  0.0418  0.0876 -0.0513
 5818W        W22665   5.710   9.770  14.231  0.1022  0.0117 -0.1977
 5819W        W22666   4.395   8.428   5.252 -0.0652  0.2284 -0.3395
 5820W        W22667  18.139   0.909  14.771 -0.1304 -0.2578 -0.3264
 5821W        W22668   2.342  11.248  13.617 -0.1597 -0.0063 -0.0516
 5822W        W22669   0.186   5.809  12.542 -0.0338  0.0114 -0.0157
 5823W        W22670   2.917   7.385   1.313 -0.1331  0.1298  0.0110
 5824W        W22671   6.506   7.250  12.246 -0.3355 -0.2346  0.3627
 5825W        W22672   5.394   7.106  16.537 -0.0081  0.0196 -0.1083
 5826W        W22673  13.105   3.357   1.068  0.2089  0.0280  0.0398
 5827W        W22674   0.042  13.285   6.061  0.0113  0.2447 -0.0346
 5828W        W22675   4.959  15.947  12.231  0.4075 -0.1027 -0.2796
 5829W        W22676  16.816   8.674  15.870 -0.0651  0.2178 -0.3012
 5830W        W22677  14.790   4.702  15.073 -0.0913 -0.0978 -0.0587
 5831W        W22678  12.984   7.925  15.607  0.1964 -0.3630 -0.0670
 5832W        W22679   8.119  10.757   1.302 -0.1303 -0.0872 -0.0770
 5833W        W22680  11.330   6.957  11.020 -0.2273  0.0257 -0.2170
 5834W        W22681  11.421  16.444   2.368  0.1324 -0.3503  0.0723
 5835W        W22682   0.456   0.469   2.896  0.0063  0.0043 -0.1602
 5836W        W22683  17.326   7.212   1.748  0.2092 -0.1714  0.2073
 5837W        W22684   3.300  13.816  16.185  0.2249  0.1193  0.1735
 5838W        W22685  13.280   2.269  14.840 -0.1162 -0.3739  0.0682
 5839W        W22686  10.760  17.383  12.576 -0.1840 -0.0623 -0.0911
 5840W        W22687  13.657  16.288  12.941 -0.2648 -0.0355  0.0767
 5841W        W22688  12.310  11.354   1.940 -0.0012 -0.0704 -0.1714
 5842W        W22689   8.077   6.411  11.322  0.0646 -0.0988 -0.0991
 5843W        W22690  14.533   8.186  15.840  0.0715  0.3638  0.1026
 5844W        W22691   4.392  14.092   5.365  0.0105 -0.0213 -0.2864
 5845W        W22692  14.204   8.050   5.133 -0.0131 -0.1484 -0.3110
 5846W        W22693   7.686  16.102   2.146  0.1469  0.0376  0.4870
 5847W        W22694  11.068  10.159   3.160  0.0448 -0.1397  0.0868
 5848W        W22695  12.893  12.876  12.450  0.1534  0.1048 -0.0105
 5849W        W22696   9.454  10.886  12.897  0.3024  0.1193 -0.1539
 5850W        W22697   3.042  16.301   5.817 -0.0333 -0.2765  0.0433
 5851W        W22698   1.119   5.201  11.384  0.1317  0.2388 -0.0841
 5852W        W22699  17.789   0.619  14.550  0.0540 -0.3098 -0.2062
 5853W        W22700  16.248   6.949   1.884 -0.0376 -0.0940  0.0412
 5854W        W22701   5.779   0.789   2.259  0.1415 -0.0171 -0.2220
 5855W        W22702  17.405  11.079  13.341  0.0902  0.0620 -0.1124
 5856W        W22703  11.747  17.261   2.679  0.0744 -0.2203  0.0352
 5857W        W22704   4.494   0.811  11.303 -0.1335  0.0353  0.0510
 5858W        W22705  13.209   3.515  16.495  0.0121 -0.3671 -0.6594
 5859W        W22706  15.489   4.596   4.298  0.2293 -0.1291 -0.2537
 5860W        W22707  11.993   8.070   2.936 -0.0555 -0.0025 -0.0928
 5861W        W22708  10.301   7.980   2.574  0.1474 -0.1328 -0.3978
 5862W        W22709   8.419   1.362   0.968  0.2790  0.2450 -0.0485
 5863W        W22710   2.652   7.415   4.765 -0.0076  0.2145  0.0173
 5864W        W22711  13.231   5.145   1.846 -0.0397  0.1946 -0.1601
 5865W        W22712   5.794  10.996  11.938  0.2659  0.2382 -0.7619
 5866W        W22713   6.945   3.942  11.705  0.3240  0.3473 -0.0520
 5867W        W22714  10.577  11.145  11.621 -0.0340 -0.0225  0.3829
 5868W        W22715  10.154   4.809   0.226  0.0420 -0.2446  0.1437
 5869W        W22716   8.527   9.523  12.097  0.2791 -0.1283 -0.2369
 5870W        W22717  12.980   4.311  14.446 -0.1816 -0.2463 -0.1935
 5871W        W22718  13.082   7.666  13.672  0.3172  0.1211  0.2443
 5872W        W22719   3.353   3.762   1.890  0.2531 -0.0924  0.0271
 5873W        W22720   7.238   5.110   5.507  0.1326 -0.3048 -0.0085
 5874W        W22721  11.207  13.678   0.232  0.1371 -0.0436  0.2374
 5875W        W22722   9.278  12.627   0.934  0.0288 -0.0702 -0.0222
 5876W        W22723  10.697   6.855  11.739 -0.1046 -0.0536 -0.1281
 5877W        W22724   3.093   2.003  13.926 -0.0290  0.0147  0.1886
 5878W        W22725   3.198  16.975   2.485  0.0513  0.2050  0.0626
 5879W        W22726   9.683   1.424   5.710  0.3379 -0.1490  0.1111
 5880W        W22727  10.857  10.966   4.792 -0.0207  0.1173 -0.1162
 5881W        W22728   3.277  10.934   0.837  0.0122 -0.1443  0.0720
 5882W        W22729   0.306   2.215  16.603 -0.0962 -0.1474 -0.1246
 5883W        W22730   9.083   1.288  16.100 -0.3219  0.2330 -0.2985
 5884W        W22731  13.904  16.726  13.593  0.0761 -0.0745  0.0085
 5885W        W22732  17.483   1.586   3.397  0.0877 -0.3532 -0.0908
 5886W        W22733   3.208  10.418  16.200  0.1078 -0.1877 -0.0828
 5887W        W22734   2.040  16.438   2.912 -0.0391 -0.1586  0.1225
 5888W        W22735   6.615  14.481   2.480  0.0416 -0.0766  0.1371
 5889W        W22736  16.553  17.166   2.194  0.0546  0.0506 -0.0087
 5890W        W22737  15.573  17.740   2.229 -0.4323  0.1030 -0.1888
 5891W        W22738  12.190   4.967  15.849 -0.0778 -0.0342 -0.1831
 5892W        W22739   3.240   6.153  13.162 -0.0910  0.2046 -0.2040
 5893W        W22740  13.027   1.857   1.396 -0.1229 -0.0161 -0.2843
 5894W        W22741  12.186   5.764   1.159 -0.3919  0.1222  0.0898
 5895W        W22742   8.491  10.071   1.208  0.0652 -0.0540 -0.2460
 5896W        W22743  18.092  13.473  16.315  0.1153 -0.0759 -0.1372
 5897W        W22744  10.248   8.381   0.518  0.0068  0.0318 -0.3493
 5898W        W22745   1.135   8.468  13.829 -0.0982  0.1297 -0.0690
 5899W        W22746  10.220   8.217  11.119  0.2632 -0.1189  0.0624
 5900W        W22747   8.599  11.432  12.635 -0.1248 -0.0210  0.0146
 5901W        W22748   4.624   6.593   4.265 -0.0175 -0.2590  0.3007
 5902W        W22749  10.599   0.277   5.924 -0.0456  0.1306 -0.0622
 5903W        W22750  17.348  11.210  15.366  0.0969 -0.3904 -0.0117
 5904W        W22751   0.776  17.271  15.971  0.0785  0.1823  0.1361
 5905W        W22752  13.081   5.434  11.879  0.2071  0.2738  0.1470
 5906W        W22753  15.774  11.813   2.969  0.1429 -0.1642 -0.2097
 5907W        W22754  17.898   0.621   4.438 -0.1211 -0.1814  0.1459
 5908W        W22755   6.358   3.132   1.557 -0.4174  0.0839  0.0074
 5909W        W22756   8.672  12.236  13.867  0.1345  0.0272 -0.0318
 5910W        W22757   8.931  13.278   4.277 -0.2361 -0.0701  0.1483
 5911W        W22758  16.394   0.408  14.067  0.1627 -0.1355 -0.1895
 5912W        W22759  13.132   5.952  11.855  0.1176 -0.0207 -0.0486
 5913W        W22760   4.127   5.265  15.345  0.2382 -0.1791 -0.0018
 5914W        W22761   0.477  10.679   0.059  0.1288 -0.1579 -0.2025
 5915W        W22762  15.589   1.299   3.631 -0.0079 -0.0472 -0.0389
 5916W        W22763   8.621   7.304  12.104 -0.1256 -0.0782 -0.3488
 5917W        W22764  13.932   5.765  13.450 -0.1393  0.0717 -0.1035
 5918W        W22765  14.822  17.362   4.492  0.0118  0.0861 -0.1181
 5919W        W22766  16.056  16.805   0.670  0.2415  0.3925  0.0118
 5920W        W22767  13.244  14.960  11.420  0.1268 -0.1899  0.0842
 5921W        W22768  14.431   6.957   5.079 -0.4099 -0.1301  0.0219
 5922W        W22769  11.503   4.135   0.584 -0.1186 -0.0276  0.0629
 5923W        W22770  12.845  17.295  16.374 -0.0587 -0.1787  0.0865
 5924W        W22771   9.039   6.968   4.860  0.0455  0.0913 -0.6120
 5925W        W22772   7.402  10.257   4.964 -0.0138 -0.1648 -0.0158
 5926W        W22773   6.036   5.819   4.350 -0.1360 -0.1509  0.0045
 5927W        W22774  14.815  13.167   4.486 -0.1639 -0.2323  0.0240
 5928W        W22775  16.265  16.587   3.511  0.0128  0.0167  0.1003
 5929W        W22776   4.028  17.529   0.824 -0.2552 -0.1777  0.1857
 5930W        W22777  12.641   0.171  15.291  0.1937 -0.2939  0.1325
 5931W        W22778   1.532   1.337  12.318 -0.1294 -0.2016 -0.0725
 5932W        W22779  13.720   2.765   2.027 -0.1495  0.0068  0.1331
 5933W        W22780   0.288   6.024   3.209  0.2733 -0.3915 -0.1836
 5934W        W22781  10.713  14.955   1.288  0.0714 -0.2182 -0.2815
 5935W        W22782   1.801   0.136   3.193 -0.0660  0.1165 -0.1154
 5936W        W22783   6.443  11.296  14.068  0.1774 -0.0544  0.0204
 5937W        W22784   9.401   1.199   1.820  0.1767 -0.4318  0.0265
 5938W        W22785  18.038   7.027   0.393 -0.0136 -0.2177  0.2108
 5939W        W22786   7.486  15.062   0.083 -0.3477  0.2206  0.3066
 5940W        W22787   8.242  15.900  13.982 -0.0271  0.0887  0.2966
 5941W        W22788  13.853   1.235   3.574 -0.0481 -0.0130  0.0428
 5942W        W22789  10.156  12.708   4.202  0.0104  0.1763 -0.1398
 5943W        W22790   6.801   5.298  13.695 -0.0724  0.3159  0.0506
 5944W        W22791   3.862   5.067  14.427 -0.1069 -0.0645  0.1381
 5945W        W22792  17.985   7.745   1.616 -0.0355  0.0074  0.0523
 5946W        W22793   5.864   0.642   5.533 -0.0297 -0.0811  0.1770
 5947W        W22794  11.169  16.593  12.429 -0.1494 -0.0004  0.0819
 5948W        W22795   7.718  14.912  13.163  0.0434 -0.0874 -0.0787
 5949W        W22796   0.919   7.848   2.353  0.1650 -0.1960 -0.4218
 5950W        W22797   4.510  17.063   2.245  0.0757 -0.0827  0.0998
 5951W        W22798   7.020   7.660   1.482 -0.2739  0.2292 -0.1489
 5952W        W22799   7.844   9.519  15.000  0.2362  0.0092  0.1919
 5953W        W22800   7.348   7.291   0.068  0.0229 -0.1860 -0.2355
 5954W        W22801  12.564  14.003  15.648 -0.2543  0.1581  0.1293
 5955W        W22802   7.061   6.664  13.325 -0.1697 -0.2525 -0.0453
 5956W        W22803  16.735   6.761  12.697 -0.1352 -0.1438  0.0373
 5957W        W22804  15.843  16.992  14.418 -0.1277 -0.3124  0.0931
 5958W        W22805   4.303  13.408   3.318 -0.1822 -0.0124 -0.1780
 5959W        W22806  12.347   9.322  13.505  0.0036 -0.0471  0.1607
 5960W        W22807   8.434   4.040   3.827 -0.0193  0.2109  0.0722
 5961W        W22808  15.496   5.268   0.347  0.0250 -0.0095 -0.0785
 5962W        W22809   6.655   1.032  15.338  0.0786  0.1551  0.1250
 5963W        W22810  10.332  15.667  12.874 -0.3717  0.0490  0.0862
 5964W        W22811   6.087  16.496  13.179 -0.0052 -0.2110  0.0294
 5965W        W22812  12.739   0.646  13.464  0.0110  0.0572 -0.1661
 5966W        W22813  10.729  14.757  14.676 -0.0693 -0.1802 -0.0111
 5967W        W22814  14.661  13.631  16.476 -0.0638 -0.0956  0.2199
 5968W        W22815   2.824  10.088  14.821  0.0573 -0.1964 -0.2729
 5969W        W22816   4.927  16.747   2.285 -0.2173  0.0462  0.0229
 5970W        W22817  12.130  10.407   4.131 -0.1503  0.1120 -0.2751
 5971W        W22818   2.561  11.104  15.973  0.0489 -0.0831  0.0063
 5972W        W22819   4.681   4.937  12.760 -0.1907 -0.1360 -0.0731
 5973W        W22820   1.428  12.073   3.483  0.0481  0.2516  0.1442
 5974W        W22821   1.017  15.579  16.573 -0.2336  0.0696  0.2402
 5975W        W22822   1.972   1.387   6.157  0.1501  0.0035  0.0257
 5976W        W22823  11.496   7.827  15.405 -0.1777 -0.1215 -0.2822
 5977W        W22824   3.501   7.703  11.770 -0.1148  0.0032 -0.0048
 5978W        W22825  17.790  11.015   3.830  0.3249 -0.0897 -0.2486
 5979W        W22826  10.147  15.926   0.217 -0.0112 -0.3519  0.0777
 5980W        W22827  15.334  15.849  12.038  0.2040 -0.0891 -0.1654
 5981W        W22828   5.779  10.213  11.811  0.0816 -0.1175 -0.1948
 5982W        W22829   1.119  16.046   2.625  0.0506 -0.1376 -0.2569
 5983W        W22830  10.710   3.317   4.970  0.0509 -0.2434 -0.0582
 5984W        W22831   6.173  12.868   6.012  0.2515  0.1216 -0.1191
 5985W        W22832  17.318   2.481  14.221 -0.1057  0.4641  0.3046
 5986W        W22833  11.091   5.219  12.133  0.1767 -0.2117 -0.0521
 5987W        W22834  15.804  16.486   0.986  0.1420  0.3549 -0.3032
 5988W        W22835   7.371   9.769   4.707 -0.0101  0.0205  0.2978
 5989W        W22836   0.551  14.260   1.134  0.1267  0.1443 -0.1430
 5990W        W22837  12.611   4.228   1.396  0.3129 -0.0686  0.1329
 5991W        W22838   0.562  17.097  12.272  0.0594  0.1157 -0.0729
 5992W        W22839  17.402  15.717   0.459  0.0297 -0.0058 -0.0585
 5993W        W22840   6.084   9.107  15.951  0.1345  0.0052 -0.1502
 5994W        W22841   9.923  10.626   1.259  0.0975 -0.1235  0.0461
 5995W        W22842  18.028   7.895   0.946  0.0968 -0.0551  0.1375
 5996W        W22843  17.846  17.106   3.624 -0.0704 -0.2638 -0.3010
 5997W        W22844   1.141  16.072  14.784  0.1691  0.1327  0.3621
 5998W        W22845  18.035  13.996  16.412  0.1923 -0.0908 -0.3246
 5999W        W22846  12.754   5.260  16.043 -0.0893  0.0156 -0.0677
 6000W        W22847   9.165   1.417   3.304 -0.1549 -0.0658  0.1665
 6001W        W22848  12.087   1.386  13.994  0.1379 -0.0583 -0.0021
 6002W        W22849   0.243  16.513  15.071  0.1575 -0.0497  0.4192
 6003W        W22850   5.073   1.498   5.350 -0.2519  0.2200  0.2273
 6004W        W22851  12.120   0.227  14.991  0.3056 -0.0536 -0.5131
 6005W        W22852   9.060   7.342  13.285  0.0463 -0.0796  0.0245
 6006W        W22853   9.268  12.644  13.467  0.1059  0.1596 -0.1032
 6007W        W22854  16.960   2.463   4.081 -0.7750 -0.0702 -0.2545
 6008W        W22855   9.822  15.878   5.670  0.0422  0.1127  0.2153
 6009W        W22856  17.258  16.282   4.199  0.3361 -0.3103 -0.3052
 6010W        W22857   6.554  11.902  16.612  0.1900 -0.2047 -0.1287
 6011W        W22858   4.702   3.047  12.739 -0.1325  0.0835 -0.2361
 6012W        W22859   6.717  16.202   2.072  0.4261  0.2174  0.1191
 6013W        W22860   7.562  15.602  15.876  0.1216  0.1095 -0.1548
 6014W        W22861  14.091  11.359   0.605 -0.1947  0.0717  0.1907
 6015W        W22862  16.313   1.636   0.147 -0.1506  0.1769 -0.0446
 6016W        W22863  15.590  13.525   4.009  0.0551 -0.0730  0.2252
 6017W        W22864  15.371  16.838  13.604 -0.0359  0.1707  0.0175
 6018W        W22865  11.173  16.239  14.240  0.1080  0.0345 -0.0672
 6019W        W22866  15.290   9.378  14.665 -0.1939  0.0324  0.1325
 6020W        W22867  17.075  17.798   4.007 -0.2827 -0.0979 -0.1720
 6021W        W22868  12.553   6.352  14.657  0.0115 -0.1085  0.1135
 6022W        W22869   6.121   8.655  13.600  0.0423  0.1749  0.0330
 6023W        W22870  13.898   4.976  11.573  0.2448 -0.0401  0.3668
 6024W        W22871  13.267  12.549  11.587 -0.1914  0.0039 -0.0710
 6025W        W22872  13.227   1.759  11.802 -0.3889  0.2530  0.0292
 6026W        W22873  15.289   4.942   3.008 -0.0368  0.0768 -0.0300
 6027W        W22874  11.609  11.700  16.595  0.1234  0.0632  0.0942
 6028W        W22875  15.321   2.257   0.955 -0.5219  0.1289  0.2339
 6029W        W22876   7.937  15.896  15.557  0.0345  0.0181 -0.0154
 6030W        W22877   3.424   7.375   1.443  0.1930 -0.0442 -0.1372
 6031W        W22878   0.834  17.286   4.030  0.0312 -0.1852  0.1256
 6032W        W22879  16.015  15.687  12.188  0.0495  0.1123  0.2033
 6033W        W22880   4.739  14.648  13.731 -0.1023 -0.1825 -0.2111
 6034W        W22881  13.098  17.944  15.931 -0.0184 -0.0851  0.1222
 6035W        W22882  16.357   1.466  15.202 -0.1649 -0.1141  0.0453
 6036W        W22883  12.316  14.981  13.537  0.1446  0.0255 -0.0182
 6037W        W22884  12.013   7.747  13.705 -0.1856  0.1387 -0.0496
 6038W        W22885  17.402   9.064  16.495  0.0043  0.1717  0.0786
 6039W        W22886   8.668   4.413  12.459  0.1864 -0.3545 -0.1374
 6040W        W22887   2.201   7.662   0.887  0.2256  0.1892  0.2834
 6041W        W22888  12.160   3.701   5.109 -0.0334  0.0953 -0.1015
 6042W        W22889   3.578  12.326   4.648  0.0201 -0.2574 -0.3441
 6043W        W22890  15.500   0.044   3.568  0.3270  0.3729 -0.3535
 6044W        W22891  16.945  14.671   1.647  0.0524 -0.2633  0.2895
 6045W        W22892   6.779   6.067   3.536 -0.1581 -0.1476  0.0864
 6046W        W22893   1.627   5.664   1.153  0.2448  0.1798  0.1233
 6047W        W22894   0.405  16.814  14.107 -0.1633 -0.2012  0.4044
 6048W        W22895  15.963   8.918  11.192 -0.1805  0.1007  0.0340
 6049W        W22896   5.186  15.559  15.531 -0.0474 -0.1849 -0.1908
 6050W        W22897   6.266  13.481  15.773  0.0067 -0.1248 -0.1020
 6051W        W22898   2.111   5.701   3.639  0.1560  0.2053 -0.1115
 6052W        W22899  10.441  15.715  16.312  0.0406 -0.3517 -0.3102
 6053W        W22900  15.594  11.383  16.155 -0.0109 -0.0303  0.0733
 6054W        W22901   1.240   6.234   3.167  0.1156 -0.0153 -0.1772
 6055W        W22902   5.973  14.499   5.248  0.0435 -0.3448 -0.2260
 6056W        W22903  16.536   9.898   6.151 -0.2028 -0.0360 -0.0339
 6057W        W22904  14.613  10.538  13.316  0.0815  0.1907  0.1977
 6058W        W22905   1.743   3.951  12.563 -0.0725  0.0115  0.0554
 6059W        W22906  10.794   0.985  15.063  0.1661  0.3824 -0.0211
 6060W        W22907   2.476   7.685  12.497  0.0065  0.0219 -0.0101
 6061W        W22908  17.333   9.824   3.042  0.2346 -0.0432 -0.1151
 6062W        W22909   9.623  12.748  12.175  0.1310  0.0848  0.1260
 6063W        W22910  13.960   4.239   1.603  0.1169  0.0618  0.0800
 6064W        W22911   8.625   4.836   1.528 -0.0089 -0.2787  0.2169
 6065W        W22912   5.865  12.554  14.064  0.2095 -0.0220  0.3108
 6066W        W22913   9.618   5.744  13.531 -0.0277 -0.1890 -0.0571
 6067W        W22914  17.708   5.790  15.208 -0.0150  0.0609  0.1381
 6068W        W22915  11.155   0.061  14.407  0.5233 -0.1592 -0.0813
 6069W        W22916   5.860   3.287   0.180  0.0501  0.0270 -0.1138
 6070W        W22917  17.962  14.359  15.228 -0.1817  0.0980  0.1089
 6071W        W22918   5.098  13.600   1.631  0.0867  0.1013  0.4018
 6072W        W22919  16.849  15.883   2.111 -0.2772  0.0518  0.3555
 6073W        W22920   6.732   0.586   0.012 -0.2102  0.1135  0.0192
 6074W        W22921   5.083  12.888  16.514 -0.0568  0.1112 -0.0409
 6075W        W22922  11.330  11.257  14.653  0.1322  0.1294 -0.0319
 6076W        W22923  12.245   1.604   3.094  0.2216 -0.0941  0.0101
 6077W        W22924  13.775   3.253   5.029 -0.1708  0.0542  0.1869
 6078W        W22925  16.268   3.113  15.634 -0.0503 -0.3852 -0.2067
 6079W        W22926  13.852   9.933   1.956  0.0463 -0.1389  0.0644
 6080W        W22927  14.311   0.337   0.521 -0.0450 -0.1899 -0.2218
 6081W        W22928  11.199  10.876   1.642  0.1041  0.0192  0.3509
 6082W        W22929   6.949   0.330  11.822  0.3635  0.0585  0.1269
 6083W        W22930   6.106   3.980   6.091 -0.1580 -0.0295  0.0398
 6084W        W22931   6.647   0.995   5.462  0.1794 -0.1575 -0.0735
 6085W        W22932   1.397  14.524   4.450 -0.0830  0.0466 -0.1019
 6086W        W22933  16.679   7.592   2.260  0.0061 -0.2765  0.0454
 6087W        W22934  13.124   0.522   1.181 -0.0147  0.0826 -0.0233
 6088W        W22935  15.830  10.034  12.861  0.1380  0.2453 -0.2057
 6089W        W22936   8.740   3.808  15.763  0.0741  0.1705  0.2354
 6090W        W22937  10.659  14.306   1.752  0.0432  0.2085  0.4303
 6091W        W22938  14.033   5.137   1.172 -0.0940 -0.0497  0.2209
 6092W        W22939   4.264  16.652  14.071  0.0021 -0.2117 -0.0912
 6093W        W22940  15.247   1.369  11.505  0.1167 -0.0160  0.1364
 6094W        W22941   0.747  11.612  13.536 -0.0882 -0.0111 -0.2452
 6095W        W22942  13.436   2.234   0.384 -0.1066  0.6121 -0.3317
 6096W        W22943  13.642   4.970   2.061  0.2169  0.0973  0.0249
 6097W        W22944  14.815   6.760   5.429  0.0062 -0.0013  0.0611
 6098W        W22945  16.206   5.099   1.547  0.3841 -0.0208  0.0201
 6099W        W22946   0.361   4.706   5.194 -0.1938 -0.1308  0.2926
 6100W        W22947   7.380   0.169   2.836 -0.2223 -0.1309 -0.0077
 6101W        W22948  17.444   7.224  10.634 -0.1109 -0.0413  0.0689
 6102W        W22949  16.102  12.256  11.637 -0.2040 -0.1072 -0.0387
 6103W        W22950   1.462  13.913  14.876 -0.3152  0.0938 -0.2356
 6104W        W22951   0.246  12.103   0.527  0.0984  0.1003 -0.0183
 6105W        W22952  11.700  15.183   4.968  0.1763  0.1437  0.1035
 6106W        W22953   1.624  17.258   5.607 -0.0229  0.2141  0.0613
 6107W        W22954   1.440  17.258  14.558 -0.0580 -0.0717 -0.2023
 6108W        W22955   6.902   6.129   4.980 -0.0441 -0.0314  0.0159
 6109W        W22956  17.769  17.932   4.662  0.2799 -0.0903  0.1328
 6110W        W22957  15.955   5.649   0.682  0.2762 -0.0165 -0.1345
 6111W        W22958  17.236  14.994   5.334 -0.1231 -0.1621 -0.3395
 6112W        W22959  16.916   5.716   4.712  0.2723  0.2350  0.1794
 6113W        W22960  13.078  13.043   0.104  0.0330 -0.2756  0.0481
 6114W        W22961  16.193   8.553   0.068  0.0247 -0.0480  0.1295
 6115W        W22962  16.925  12.103   4.963  0.0480 -0.1136 -0.0236
 6116W        W22963   1.114  17.854  16.586  0.1029  0.1844  0.1614
 6117W        W22964   2.471  13.432  14.220 -0.1466  0.1505  0.0236
 6118W        W22965  13.603  14.693  12.960  0.1377  0.1507 -0.1762
 6119W        W22966  17.839   8.187  13.999 -0.1607  0.2718  0.0851
 6120W        W22967   0.660   4.724  15.430  0.1648 -0.2998  0.1452
 6121W        W22968   4.593   2.808  14.722  0.0308 -0.0160  0.1048
 6122W        W22969  17.501  16.008   5.535 -0.0726 -0.0597 -0.0410
 6123W        W22970  13.941   8.939   4.631 -0.1857 -0.0487 -0.2141
 6124W        W22971  14.596   9.640   4.429  0.0768 -0.0035  0.2428
 6125W        W22972   9.466  13.299  13.974 -0.1848  0.0215  0.0893
 6126W        W22973   9.968  18.105   4.508  0.0180 -0.0295  0.1811
 6127W        W22974   1.922   7.258  15.118 -0.2958 -0.0157  0.2834
 6128W        W22975  13.862  11.955   3.161 -0.3128 -0.3102  0.3820
 6129W        W22976  14.668   8.415   0.677 -0.0933 -0.1104 -0.1729
 6130W        W22977  11.929   6.400  11.053 -0.1945  0.1947 -0.0561
 6131W        W22978   9.625  15.219   0.809 -0.2446 -0.1092  0.0408
 6132W        W22979   5.729  15.950  15.991 -0.0675  0.1486 -0.1196
 6133W        W22980   1.364  17.892   0.420 -0.1463 -0.4038  0.0831
 6134W        W22981   9.917   9.538  12.596 -0.2909 -0.2082 -0.2490
 6135W        W22982   3.198  10.172   1.418 -0.2278 -0.2694 -0.1768
 6136W        W22983   2.341   7.301  11.787 -0.0865  0.0288  0.1254
 6137W        W22984  14.106  12.397   1.629 -0.0955  0.0246 -0.1247
 6138W        W22985   2.538   1.750   1.434  0.2068 -0.0079  0.2093
 6139W        W22986   0.375  16.897   1.371 -0.2905 -0.1148  0.0883
 6140W        W22987  13.466   7.884  13.944 -0.3465  0.0843  0.1455
 6141W        W22988  17.920  16.201  13.840  0.1851  0.1222 -0.1684
 6142W        W22989  13.318  15.957  14.411  0.1505  0.0293 -0.0078
 6143W        W22990   3.059  13.918  14.925  0.3094  0.0428 -0.3725
 6144W        W22991  17.513   0.440   2.092  0.1124  0.0134  0.1804
 6145W        W22992   9.293   3.696  11.411  0.2705 -0.2130  0.0184
 6146W        W22993   8.528   3.778   5.497 -0.0682  0.1628 -0.0490
 6147W        W22994  17.507  11.439   4.851 -0.3471  0.1095  0.1300
 6148W        W22995   8.652  17.895   1.806  0.0379  0.0440  0.3608
 6149W        W22996  11.886   9.220   3.527 -0.2100 -0.4087  0.1140
 6150W        W22997  14.206  12.177  11.419 -0.0969  0.1195  0.1034
 6151W        W22998  15.136   4.676   2.342  0.1315 -0.0842 -0.1808
 6152W        W22999  14.562   4.731  15.666  0.2349 -0.0846  0.2261
 6153W        W23000  15.951   2.968   3.709  0.1219 -0.0493 -0.0174
 6154W        W23001   6.994  10.664   2.351  0.2662 -0.1612 -0.0952
 6155W        W23002   5.064  16.445  15.187 -0.2244 -0.0320  0.0180
 6156W        W23003  11.770   0.355   1.062 -0.0731 -0.1644 -0.0285
 6157W        W23004   6.476  17.052  12.318 -0.1534  0.0327  0.2179
 6158W        W23005  13.939   8.882  12.855 -0.2691  0.2453  0.0985
 6159W        W23006   7.996   5.905  16.351  0.1794 -0.2476  0.0041
 6160W        W23007   9.171  13.879   3.779  0.0999  0.1019 -0.0989
 6161W        W23008   7.542   5.995   4.436 -0.0871 -0.0088 -0.3937
 6162W        W23009  13.235   3.534  13.957  0.0126 -0.4159  0.0667
 6163W        W23010   9.805   2.193   3.276  0.1405 -0.2143  0.0149
 6164W        W23011  10.075   5.509  15.670  0.1665 -0.0492 -0.0181
 6165W        W23012   2.066   1.230   0.238 -0.0474  0.0167  0.0342
 6166W        W23013  10.254  10.479  12.675  0.2500 -0.1719 -0.0767
 6167W        W23014   9.976   3.910  14.948 -0.0778 -0.0385  0.0172
 6168W        W23015   8.273   9.993  16.583  0.0517 -0.4574 -0.1102
 6169W        W23016  11.931  14.574   0.860 -0.0759  0.1451  0.0605
 6170W        W23017  17.280   2.035   3.475  0.1437  0.0200  0.1768
 6171W        W23018  17.515   4.469  11.757  0.1740  0.3052  0.0427
 6172W        W23019   4.056  11.719   3.806 -0.0765  0.1333 -0.0153
 6173W        W23020   3.645   7.797   3.078  0.0948  0.2088 -0.0155
 6174W        W23021   9.621  15.214  14.206  0.1283  0.3749 -0.0004
 6175W        W23022   3.015   6.059   1.197  0.1690 -0.0378 -0.1651
 6176W        W23023  13.354  12.601   1.819  0.1272 -0.1380  0.3876
 6177W        W23024   3.058   4.012   0.631 -0.0082 -0.2588 -0.2067
 6178W        W23025   1.779  13.071  13.419 -0.0271  0.2469  0.0592
 6179W        W23026   6.107   3.517  13.719 -0.1617  0.0541 -0.1837
 6180W        W23027  13.597  10.087  15.683 -0.0998  0.2829 -0.5291
 6181W        W23028   0.730   1.506  15.745 -0.1880 -0.2277 -0.2105
 6182W        W23029   4.284   3.280   4.205  0.0485  0.0368 -0.2861
 6183W        W23030  11.324   8.090  14.137  0.0633  0.3501  0.2445
 6184W        W23031  11.361  10.353  14.673 -0.3365  0.2959 -0.2048
 6185W        W23032  16.649   1.216   1.905  0.2008  0.1156 -0.2609
 6186W        W23033   9.159   6.823   0.118  0.0400  0.2059 -0.0341
 6187W        W23034  17.631  13.572   1.135  0.0670 -0.0415 -0.2506
 6188W        W23035  14.983  16.126   0.756 -0.1104  0.2623 -0.0779
 6189W        W23036   1.716  12.117   2.218 -0.0549  0.0054 -0.1271
 6190W        W23037   1.293   3.090   3.340 -0.0474 -0.0737 -0.0864
 6191W        W23038   5.673   9.273  15.074 -0.3222 -0.0232 -0.3785
 6192W        W23039   0.543  11.283  13.207  0.0417 -0.0917 -0.0935
 6193W        W23040   3.779  12.715   0.042  0.1713  0.0995  0.0777
 6194W        W23041   6.305  13.213   0.279  0.3731 -0.0173  0.4808
 6195W        W23042   3.568  16.435  14.763  0.4995  0.1201  0.2733
 6196W        W23043  14.872  16.384   2.119  0.1093 -0.2047  0.2730
 6197W        W23044  14.081  10.351   5.052 -0.0178 -0.0557 -0.0896
 6198W        W23045  10.179  14.398  16.229  0.1263 -0.2606 -0.4528
 6199W        W23046  13.925   4.907  12.127 -0.0274  0.0296 -0.1849
 6200W        W23047  15.104   1.983   2.087 -0.1228  0.0888 -0.1040
 6201W        W23048  12.306   4.270   3.380  0.0285  0.0622 -0.2031
 6202W        W23049   4.732   4.724   0.402 -0.1038  0.1215 -0.0133
 6203W        W23050   6.032   4.001   0.344  0.0543 -0.0046 -0.3189
 6204W        W23051   1.379  10.667   3.679  0.0302 -0.1286  0.1073
 6205W        W23052  17.771  16.268   1.258  0.1261  0.2300  0.2218
 6206W        W23053  17.698   6.327  14.420 -0.3817 -0.1461 -0.2500
 6207W        W23054   6.822   4.295   4.004  0.0670 -0.1185 -0.0690
 6208W        W23055   0.201   4.432  15.505 -0.1060  0.2498  0.2848
 6209W        W23056   7.099  15.659  14.604 -0.0972 -0.0471  0.0295
 6210W        W23057   9.398   3.465   1.986 -0.2263  0.0528 -0.0147
 6211W        W23058  16.533   2.175  11.447  0.0712  0.4295 -0.2220
 6212W        W23059   5.178   9.071   1.752  0.0148 -0.0415  0.0097
 6213W        W23060  13.181   5.451  14.951  0.0829 -0.0021  0.0127
 6214W        W23061   7.908  10.981  12.416 -0.0013 -0.0200 -0.1278
 6215W        W23062   3.598   9.057   3.104 -0.0680  0.1077 -0.1210
 6216W        W23063  11.367   5.642  15.052  0.2530 -0.3555 -0.1985
 6217W        W23064  17.428   4.475   5.324  0.0909 -0.2268  0.1364
 6218W        W23065   6.317  13.183   4.251  0.1199 -0.1246 -0.2217
 6219W        W23066   0.955   6.648  12.896  0.1347 -0.0628  0.1415
 6220W        W23067   2.297   8.784   4.126  0.0233  0.1703 -0.0166
 6221W        W23068   9.004  11.010  13.137  0.1031  0.1165 -0.1539
 6222W        W23069  13.894   0.558  15.156 -0.0576 -0.1430  0.0791
 6223W        W23070  13.191   5.831   3.766  0.2994 -0.2071  0.3292
 6224W        W23071  14.543   5.973  12.842 -0.0199  0.1426 -0.0344
 6225W        W23072   6.619  13.134  14.464  0.0450  0.0167 -0.2219
 6226W        W23073   4.820   3.642   1.861 -0.1275  0.0788 -0.1480
 6227W        W23074  17.845  10.912   4.734 -0.1547  0.1311  0.0411
 6228W        W23075  11.830   3.268  11.415  0.2735 -0.1254 -0.0744
 6229W        W23076  14.356  14.851   3.743  0.0161 -0.1459  0.1083
 6230W        W23077   4.672   7.123   4.648  0.1394  0.0863 -0.2170
 6231W        W23078   7.514   5.195   2.709  0.2692 -0.0273  0.0774
 6232W        W23079   8.305  13.633   1.749 -0.0350 -0.1293 -0.0554
 6233W        W23080  13.936   5.452   3.387 -0.0268  0.3022 -0.0887
 6234W        W23081   6.727   3.390   5.830  0.1959  0.1830  0.1011
 6235W        W23082   4.702   3.535   0.530  0.2129 -0.0508 -0.1175
 6236W        W23083   7.060   6.717  15.977 -0.1908 -0.1784  0.0592
 6237W        W23084  11.741  12.773   2.806  0.1576 -0.1675 -0.0161
 6238W        W23085  12.257  13.369  11.673  0.4439  0.0329 -0.1590
 6239W        W23086  16.847   9.099   6.157 -0.3585  0.0378 -0.1120
 6240W        W23087  17.887   8.042   5.085  0.2964 -0.1406  0.0657
 6241W        W23088   3.961   1.205   4.096  0.0185 -0.0551 -0.1376
 6242W        W23089  11.293   9.342   4.207  0.2087 -0.0844  0.1733
 6243W        W23090   0.541   7.700   5.417  0.0582 -0.0146 -0.0385
 6244W        W23091  14.940  11.201  12.594  0.1746  0.0278  0.0606
 6245W        W23092   7.896   9.867  11.658  0.1949 -0.3347  0.1236
 6246W        W23093  13.982   8.443   5.818  0.1658  0.0939  0.1161
 6247W        W23094   4.403   5.282  13.527 -0.0741 -0.1035  0.5266
 6248W        W23095  14.622  12.399  15.536  0.1083  0.2560 -0.1563
 6249W        W23096   7.234  16.739   2.620  0.3148 -0.0078  0.0079
 6250W        W23097   6.206   6.736  13.989  0.2418 -0.1480  0.2336
 6251W        W23098   6.827   2.844  12.965  0.1673 -0.1556  0.1226
 6252W        W23099   2.079   3.667  13.444  0.0485 -0.0488 -0.4122
 6253W        W23100  13.675   1.420   1.294 -0.0640  0.1990  0.0797
 6254W        W23101  16.792   9.103  16.109  0.2482  0.0535  0.0770
 6255W        W23102  16.028   8.160   5.064 -0.0847 -0.0742 -0.2639
 6256W        W23103  10.516  10.837  14.898  0.1429  0.0352  0.0297
 6257W        W23104   2.152  14.761   4.368  0.2524  0.4379  0.0279
 6258W        W23105   6.407   9.549   2.320 -0.3022  0.1024 -0.1426
 6259W        W23106   5.900   6.172   4.016  0.0020 -0.0715 -0.0873
 6260W        W23107  15.685   2.578   0.707 -0.1842 -0.0345 -0.2196
 6261W        W23108   2.802   8.941  13.755 -0.2315  0.2995  0.2775
 6262W        W23109  15.025  15.646  11.672 -0.1612  0.3594 -0.1436
 6263W        W23110  15.070   9.355   4.350 -0.0467 -0.1831  0.1526
 6264W        W23111  11.611   3.017  11.906  0.0331  0.0698 -0.1170
 6265W        W23112   3.389  10.559  13.960 -0.3032  0.0635 -0.2813
 6266W        W23113  10.489   7.944  15.749  0.1733 -0.0459  0.0546
 6267W        W23114   3.746   4.969  15.222 -0.0798 -0.0417  0.0347
 6268W        W23115  11.865  11.967  15.712 -0.1420  0.0559 -0.1928
 6269W        W23116   3.457   4.148   2.751  0.3745 -0.0455  0.0292
 6270W        W23117   8.647   0.161   2.070 -0.1991 -0.0068  0.0393
 6271W        W23118  14.971  15.453  15.742 -0.1152  0.3431 -0.1842
 6272W        W23119   6.698  14.344   5.270 -0.2836 -0.2514  0.0250
 6273W        W23120  15.897   6.350   3.289  0.5504  0.0463 -0.1447
 6274W        W23121   2.659   5.770   0.143  0.0954 -0.2259 -0.4323
 6275W        W23122  13.366   0.572  15.192  0.2075 -0.1752 -0.0909
 6276W        W23123   9.266  17.283   1.694  0.1119  0.2278 -0.1717
 6277W        W23124   6.117  12.913  14.568  0.3356 -0.1643 -0.1264
 6278W        W23125  11.783   1.847   3.848 -0.0893  0.4249  0.1059
 6279W        W23126   1.414  17.653  14.142  0.2759 -0.1055  0.0064
 6280W        W23127  17.803  10.060  12.043 -0.0751 -0.0700  0.0850
 6281W        W23128  11.163  14.822   1.265 -0.1449 -0.1313 -0.0778
 6282W        W23129   5.153  12.517   1.072  0.3231  0.0254 -0.0401
 6283W        W23130  11.698   1.913   1.949 -0.1482  0.2385  0.0717
 6284W        W23131   7.904   7.572  12.355 -0.0368 -0.4287  0.0527
 6285W        W23132  15.179   9.726   6.103 -0.1500 -0.1098 -0.1504
 6286W        W23133   7.766   2.116  14.806 -0.2754 -0.0306 -0.0577
 6287W        W23134  17.944   5.033   2.887  0.0230  0.2772 -0.1235
 6288W        W23135  13.282   4.010  12.661  0.0341  0.0808  0.1622
 6289W        W23136   9.274  14.931   1.948 -0.1026  0.1531 -0.2772
 6290W        W23137  13.791   3.679   0.213  0.1426 -0.0657  0.3495
 6291W        W23138  15.370  12.233  15.029  0.0669  0.0657 -0.1179
 6292W        W23139   4.354   2.671   0.399 -0.3750  0.2214  0.0763
 6293W        W23140  17.833   9.755  13.792  0.0860  0.1145  0.1825
 6294W        W23141   7.310   6.203  13.010  0.2458  0.1263  0.2015
 6295W        W23142   0.121   2.080   2.997 -0.4062  0.0037  0.0256
 6296W        W23143  17.579  11.589  15.973  0.1712  0.3089 -0.3384
 6297W        W23144   0.212   3.825   0.740 -0.2102  0.1902  0.4925
 6298W        W23145   2.656   3.232   2.818 -0.0134 -0.1817  0.1593
 6299W        W23146  16.401  14.446  14.287  0.0065  0.0615 -0.1271
 6300W        W23147   1.713   1.366   1.780 -0.0777  0.4110  0.2514
 6301W        W23148   8.513  12.655  12.971 -0.1140  0.1292 -0.0400
 6302W        W23149  12.185  15.631   3.598  0.0388  0.1061  0.1799
 6303W        W23150  12.424   5.989  15.147 -0.2094 -0.1692  0.0297
 6304W        W23151  15.603  15.625  11.652  0.1074 -0.0812 -0.2819
 6305W        W23152   8.438  17.514   0.613  0.1343  0.0868  0.1632
 6306W        W23153  12.496   1.456   3.803 -0.4632 -0.2595 -0.1436
 6307W        W23154   4.537  12.273   2.744  0.1769 -0.0335 -0.1193
 6308W        W23155  12.986   0.261  14.969 -0.1421 -0.2680  0.3325
 6309W        W23156   8.702  17.985  13.572  0.2690  0.3477 -0.0266
 6310W        W23157  13.059  16.527   1.848 -0.1085  0.0288 -0.1217
 6311W        W23158  17.270   0.059   2.331 -0.0946  0.0198  0.0344
 6312W        W23159  16.665   0.123   0.316 -0.1665  0.0411  0.0543
 6313W        W23160   7.813   9.979  13.030  0.1579 -0.2007 -0.0132
 6314W        W23161   9.363  16.385  15.463  0.1647 -0.0700  0.5128
 6315W        W23162   0.703   5.587   0.380  0.2029  0.1142  0.2746
 6316W        W23163   5.219  11.441  15.872 -0.0795 -0.1530 -0.2195
 6317W        W23164  16.438  17.540  12.147 -0.4734 -0.1550 -0.0180
 6318W        W23165   1.465   2.266   2.726  0.4305 -0.0187 -0.1984
 6319W        W23166   9.625  14.284   4.610 -0.0536 -0.0713  0.0710
 6320W        W23167   0.800   8.652   3.976  0.0617  0.0100 -0.0619
 6321W        W23168  12.382   3.796   2.107 -0.2472  0.0952 -0.1732
 6322W        W23169  15.653  12.218  15.910 -0.0676 -0.1136 -0.1924
 6323W        W23170  17.038   2.266  12.812 -0.2921  0.0127 -0.0063
 6324W        W23171   3.484  17.956  16.093  0.1964 -0.0163 -0.1182
 6325W        W23172  11.221   9.471  12.793  0.1089  0.0658 -0.0379
 6326W        W23173  15.768   8.151   0.407 -0.1411 -0.1168 -0.1140
 6327W        W23174  17.788   5.901   4.035 -0.0208  0.3690 -0.0046
 6328W        W23175  15.772   9.732   3.844  0.1954 -0.2505  0.0795
 6329W        W23176   5.771  16.194  11.892  0.0856  0.1955  0.1165
 6330W        W23177   8.541  10.267  13.775  0.1158 -0.0371 -0.2296
 6331W        W23178   9.743   3.907   3.415  0.0645 -0.1227  0.3616
 6332W        W23179  16.256  10.290  12.213  0.4048  0.0919 -0.0508
 6333W        W23180  17.903  16.585   2.904  0.1907  0.0603 -0.2832
 6334W        W23181   0.246  12.565  12.546 -0.3858 -0.0080  0.1100
 6335W        W23182   0.411  10.998   3.387 -0.1933 -0.0803 -0.1057
 6336W        W23183   4.473   6.487   3.259 -0.0599  0.5529 -0.0729
 6337W        W23184  10.856   6.264   0.870  0.0347 -0.2815 -0.2597
 6338W        W23185  14.272  11.096   0.237  0.1229  0.0941  0.1959
 6339W        W23186   2.759  18.054  13.544  0.1953 -0.0458  0.5362
 6340W        W23187   8.764   1.481  12.080  0.2542 -0.2791  0.1468
 6341W        W23188   1.347   6.430  14.916  0.3023 -0.0045  0.0187
 6342W        W23189   9.005  16.147   2.854 -0.1395  0.1670 -0.2337
 6343W        W23190   5.136   0.010  12.968  0.1082  0.1399 -0.1583
 6344W        W23191   1.150  11.393   0.136 -0.0609 -0.0013 -0.1218
 6345W        W23192   6.279   7.137  13.109 -0.0355 -0.4121  0.2555
 6346W        W23193   4.013   8.901   0.799 -0.0590 -0.2384 -0.2969
 6347W        W23194  13.699   2.470   3.995 -0.1107  0.4261 -0.3528
 6348W        W23195  13.220   5.985  15.307  0.5856 -0.0607 -0.1650
 6349W        W23196  14.520   8.201  14.876  0.1380  0.1212 -0.3084
 6350W        W23197  14.316  10.925  13.424 -0.1607  0.1141  0.0478
 6351W        W23198   0.424  11.538  15.671 -0.2530 -0.0409  0.1420
 6352W        W23199   9.495  15.313   2.678  0.4303 -0.1911  0.2938
 6353W        W23200   5.196  15.495   3.838  0.1069 -0.0058  0.1560
 6354W        W23201  11.127  18.101   4.468  0.0810 -0.3028 -0.3763
 6355W        W23202  13.976   0.678   0.730 -0.1455 -0.1488 -0.1811
 6356W        W23203   0.768   0.438   4.519 -0.0700  0.0298 -0.1759
 6357W        W23204  15.411  11.104  12.972  0.0322 -0.1112 -0.0580
 6358W        W23205   5.213   3.649  13.420  0.0074 -0.1082  0.2705
 6359W        W23206  12.078   2.852  11.637 -0.0843 -0.1197  0.1953
 6360W        W23207  12.910  16.551   0.234 -0.0996 -0.0049  0.0309
 6361W        W23208   5.465   0.470   2.084 -0.1620 -0.1488  0.2621
 6362W        W23209  14.159   7.564   2.543  0.0527 -0.1566 -0.1560
 6363W        W23210   6.890   6.685  12.381  0.0580 -0.1502  0.3581
 6364W        W23211   0.831  13.897   0.690 -0.1878  0.1429  0.1438
 6365W        W23212  14.236  16.748  11.170 -0.2127 -0.2701  0.1469
 6366W        W23213   2.163   5.196   6.102 -0.2012  0.0369  0.1113
 6367W        W23214   9.034   5.693  13.706 -0.2904  0.1488 -0.1265
 6368W        W23215  16.208  17.938  11.804 -0.1463 -0.2944  0.0149
 6369W        W23216  15.258  17.480   4.870 -0.1403 -0.3290  0.1382
 6370W        W23217   2.452   4.322  11.261 -0.1269 -0.0400 -0.4590
 6371W        W23218  10.400   4.665  15.021  0.0036 -0.0712  0.1082
 6372W        W23219  12.277  14.548   4.969 -0.1440 -0.1014 -0.0914
 6373W        W23220   3.109   2.841  12.372 -0.1240 -0.1693  0.2094
 6374W        W23221  12.799  13.747  16.548  0.2132  0.1247  0.1208
 6375W        W23222  10.637   6.774  12.528 -0.0954  0.1241  0.1172
 6376W        W23223   7.406   2.228   4.599  0.0213 -0.2273 -0.0457
 6377W        W23224   8.930  12.156  11.873 -0.1633  0.0599 -0.2271
 6378W        W23225   0.420  12.677   4.555  0.0879 -0.3537 -0.0046
 6379W        W23226  16.296   2.282   3.312  0.1393  0.0094 -0.2153
 6380W        W23227   2.103   0.205   0.421  0.4971 -0.0332  0.2430
 6381W        W23228   3.361  16.719   0.743 -0.0233  0.1640 -0.0942
 6382W        W23229   0.003   6.561  12.361  0.0826 -0.0544  0.0704
 6383W        W23230  13.735  16.728  14.119  0.2431 -0.4462  0.2288
 6384W        W23231  12.838   0.956   0.234 -0.0539 -0.0729 -0.0842
 6385W        W23232  11.841   8.566   4.813  0.1002  0.2586 -0.0711
 6386W        W23233  15.790   0.028   2.451 -0.0564  0.0148  0.2134
 6387W        W23234  13.281  17.614   3.676  0.0581  0.0837  0.1582
 6388W        W23235  12.106  16.574  12.091  0.2057 -0.0916  0.1277
 6389W        W23236   5.868  13.954   1.206  0.4113  0.1685  0.2567
 6390W        W23237  15.532  15.207   4.943 -0.0336 -0.2672 -0.2104
 6391W        W23238   2.569  14.425   5.378  0.1447 -0.1425  0.1088
 6392W        W23239  17.632  16.719   5.030 -0.3219 -0.0892  0.5033
 6393W        W23240   7.576   5.435  13.743  0.2217 -0.2083  0.0976
 6394W        W23241  14.242   0.751  15.933  0.1858  0.1206 -0.0964
 6395W        W23242   0.332   8.663   3.814 -0.2152 -0.0046 -0.4080
 6396W        W23243   5.427   2.802   1.801 -0.5139  0.2528  0.2090
 6397W        W23244   5.596   9.910   4.825  0.1979 -0.2848  0.0885
 6398W        W23245  13.753   2.905  15.182  0.0957 -0.2164  0.1842
 6399W        W23246   5.369  17.709  15.406  0.3591  0.0743 -0.1025
 6400W        W23247  18.051  15.281  14.101  0.1368  0.1977 -0.0796
 6401W        W23248   5.704   4.816  13.661  0.0308  0.0256  0.2028
 6402W        W23249   2.805   7.931   3.363  0.4052  0.4447 -0.0641
 6403W        W23250  14.334  15.119  15.113 -0.0566 -0.1264 -0.1008
 6404W        W23251   7.520   1.948   3.669  0.0145 -0.0683  0.0470
 6405W        W23252   8.854   3.964  11.254 -0.1759  0.1117 -0.2234
 6406W        W23253   8.820   6.397  13.508 -0.1699 -0.2555  0.3894
 6407W        W23254   6.053  17.923   5.589 -0.0766 -0.0123 -0.2225
 6408W        W23255   7.411  11.975  12.680  0.2002 -0.0697  0.2021
 6409W        W23256   9.234   9.139   0.253 -0.1996 -0.0760 -0.0342
 6410W        W23257  14.262  12.423  15.139 -0.0159 -0.1193  0.2484
 6411W        W23258   2.733  10.021   1.158  0.2125 -0.1895 -0.2120
 6412W        W23259  11.666   3.171  14.400 -0.0823  0.1389  0.0137
 6413W        W23260  15.624  13.974  14.233  0.0613 -0.0609 -0.3631
 6414W        W23261  15.411  11.476   5.020  0.1293 -0.1139  0.0528
 6415W        W23262  10.846   7.137  14.661 -0.0397 -0.2380  0.0009
 6416W        W23263   1.029   0.562   4.100  0.2570  0.4427 -0.3543
 6417W        W23264   9.784  14.000  12.747 -0.0407 -0.1126 -0.0523
 6418W        W23265  12.279  17.843   2.049  0.0427  0.2016  0.1936
 6419W        W23266  15.147  16.901  11.227 -0.1353  0.0598 -0.0126
 6420W        W23267   8.182   0.077  15.285  0.0546 -0.0388 -0.0552
 6421W        W23268  14.931   5.169  13.030  0.0637 -0.0469  0.2411
 6422W        W23269  14.056   8.910  15.017  0.1259  0.1713  0.0759
 6423W        W23270  13.084   9.449   4.355 -0.3031  0.0003  0.3200
 6424W        W23271  14.000  16.891  12.630  0.0132 -0.2644 -0.2689
 6425W        W23272  17.852  11.690   1.706  0.0702  0.2207  0.1372
 6426W        W23273   7.260   1.312   4.912  0.0545 -0.0583 -0.2777
 6427W        W23274  12.576  14.742  12.390 -0.0628 -0.3021 -0.1181
 6428W        W23275   6.622   4.298   2.182 -0.2020 -0.1594  0.2304
 6429W        W23276   9.666   8.118  11.793 -0.0256 -0.0742  0.0487
 6430W        W23277  14.256   7.580   5.833 -0.0989  0.3960  0.0925
 6431W        W23278   3.371  10.416   4.218  0.0616  0.0689 -0.3801
 6432W        W23279   3.533   5.960  14.130  0.0176  0.0852 -0.2103
 6433W        W23280   0.732   8.972  11.855  0.2519  0.0706  0.1565
 6434W        W23281   7.186   9.504   4.026  0.2179  0.1892  0.0494
 6435W        W23282  12.240   7.128  11.495  0.1641  0.0729  0.2141
 6436W        W23283  10.765   0.092   4.820  0.0430 -0.1531 -0.0440
 6437W        W23284   6.416  13.294  14.908 -0.3676  0.0463  0.1326
 6438W        W23285   4.521  15.516   5.870  0.0773 -0.2385 -0.1084
 6439W        W23286  15.789  12.642   1.998  0.0413  0.1000  0.1621
 6440W        W23287   9.886  14.517  12.730 -0.3210  0.2251 -0.0582
 6441W        W23288  16.634   5.568  14.983  0.6927 -0.0562 -0.1646
 6442W        W23289   6.481   8.856   5.622 -0.0959 -0.0629  0.3989
 6443W        W23290  14.670  16.942   0.357  0.0379  0.0929 -0.2627
 6444W        W23291  14.639  18.064   3.126  0.3177 -0.0811 -0.0957
 6445W        W23292  14.153   1.909   4.174 -0.0509 -0.0447  0.0081
 6446W        W23293   8.865   9.651  16.142 -0.2321  0.2839 -0.0088
 6447W        W23294   1.227   4.728   0.301  0.2608  0.0084 -0.2576
 6448W        W23295   2.785   8.853  13.270  0.0402  0.0015  0.2375
 6449W        W23296   5.892   7.904  15.519 -0.2942 -0.0248 -0.0514
 6450W        W23297  10.869  17.193   5.493  0.1421  0.2866 -0.0098
 6451W        W23298  16.731  14.353   3.159 -0.0613  0.0283  0.5372
 6452W        W23299   1.825  12.974   2.334 -0.0089 -0.0101  0.2340
 6453W        W23300  11.341  17.181   2.992 -0.1968 -0.1857 -0.2095
 6454W        W23301  16.318   1.964  11.882 -0.2014 -0.1382 -0.1837
 6455W        W23302   6.704   2.648   0.525  0.5211 -0.0488  0.0610
 6456W        W23303   0.846   1.095  14.090  0.0409  0.1866 -0.1777
 6457W        W23304   1.642  14.240  12.745 -0.1299  0.3692  0.0405
 6458W        W23305  10.477   2.624  13.787  0.1342 -0.0839 -0.1034
 6459W        W23306   4.323  12.230   3.905  0.0895 -0.2454  0.0086
 6460W        W23307   5.210  14.569  12.891  0.1026 -0.1375  0.3979
 6461W        W23308  15.302  14.926  14.014  0.1613 -0.0642 -0.0831
 6462W        W23309  17.109   6.276   3.361 -0.2072  0.1024  0.1935
 6463W        W23310   6.230  16.913  15.213 -0.2023  0.0832  0.1786
 6464W        W23311   1.376  17.797  11.546 -0.0892  0.0030 -0.1322
 6465W        W23312  16.393  14.580  12.615  0.0551 -0.0163  0.0892
 6466W        W23313  17.682  18.010  13.629 -0.0937  0.2549  0.1503
 6467W        W23314   0.001   5.435   1.461 -0.0565 -0.3271 -0.0530
 6468W        W23315   0.892   1.907  14.835 -0.0796  0.1047  0.1604
 6469W        W23316   4.741   6.647  14.456  0.0820  0.0975 -0.1069
 6470W        W23317  12.428  11.765  12.265  0.3635  0.4464  0.0572
 6471W        W23318   2.225  15.334   4.457  0.4922  0.0806  0.0739
 6472W        W23319   9.280   1.771  16.082 -0.1122 -0.0662  0.0063
 6473W        W23320  13.677   9.335  11.989 -0.0549  0.1871 -0.1614
 6474W        W23321   8.254  11.392   6.089 -0.1781 -0.1928 -0.1257
 6475W        W23322   9.656   7.873  12.860  0.1120 -0.4153 -0.0900
 6476W        W23323  17.226  13.674  12.620 -0.0416  0.2735 -0.1987
 6477W        W23324   3.870   9.625  15.519 -0.2197 -0.0614 -0.2569
 6478W        W23325  16.912   8.025  14.427 -0.4095  0.1395  0.0192
 6479W        W23326  10.795  10.712  16.527  0.2265  0.2087 -0.1045
 6480W        W23327  11.342   0.410  16.277  0.1785  0.0427  0.4100
 6481W        W23328  16.013  17.071   3.510  0.1766 -0.3201 -0.0814
 6482W        W23329   3.557  13.266   0.583  0.0944  0.1189 -0.3144
 6483W        W23330   1.297  18.022  13.343  0.0153 -0.1754 -0.0362
 6484W        W23331   4.548   2.880  15.665 -0.1531  0.1387  0.1333
 6485W        W23332   0.387  12.966  16.239  0.0064 -0.2878 -0.0473
 6486W        W23333  13.911   5.572   4.761 -0.0587  0.0730  0.0278
 6487W        W23334   4.928   4.611  15.910  0.2004  0.1138  0.1953
 6488W        W23335   8.056   5.553  13.926 -0.0194 -0.0273 -0.1171
 6489W        W23336  10.505   0.437   3.935 -0.3305 -0.1912 -0.1488
 6490W        W23337  10.876   7.286  14.163  0.1928  0.1388  0.1647
 6491W        W23338   4.721   1.017   3.442  0.0026 -0.1369  0.1061
 6492W        W23339   3.377   4.065  13.274  0.1494  0.0121  0.1844
 6493W        W23340  14.546  14.291  15.712 -0.3552  0.0793 -0.1571
 6494W        W23341   2.817   0.873  16.371  0.0437 -0.0686  0.4884
 6495W        W23342   9.211   4.916   4.100 -0.0435  0.0543 -0.2512
 6496W        W23343  13.497  11.309   1.377 -0.1937  0.1259 -0.2159
 6497W        W23344   3.546   7.049   6.295  0.2425  0.0662 -0.0594
 6498W        W23345  10.274  13.152   3.799 -0.0356 -0.0654 -0.0451
 6499W        W23346   7.415   4.712   1.851 -0.3447 -0.0140  0.3849
 6500W        W23347   8.314  13.886   4.285  0.0396 -0.4866 -0.1248
 6501W        W23348  14.971   8.067   0.953  0.0508  0.2513 -0.1586
 6502W        W23349   3.277   3.818   3.249 -0.0654  0.3234 -0.0517
 6503W        W23350   0.802   2.340   4.118 -0.1991  0.1156 -0.0570
 6504W        W23351   0.311  10.237   1.154 -0.4577 -0.1923 -0.1064
 6505W        W23352   5.905   1.776  12.309  0.4638  0.0218 -0.1941
 6506W        W23353   0.867   4.208   2.421  0.0835 -0.0715  0.0629
 6507W        W23354   9.456   6.001   4.809  0.3526 -0.0153  0.0938
 6508W        W23355   0.772  10.236   2.989 -0.1311  0.0083  0.0198
 6509W        W23356   0.290   4.227  12.447  0.1394 -0.1993  0.0030
 6510W        W23357   8.633   3.167   1.232 -0.1203  0.0997 -0.0734
 6511W        W23358   6.058   1.413  14.605 -0.1247  0.0000  0.0027
 6512W        W23359   3.788  11.206   3.673  0.1321  0.2024  0.1140
 6513W        W23360   7.733   0.573  11.472  0.0951  0.2178  0.4007
 6514W        W23361  16.289  14.331   0.125 -0.4657  0.1912 -0.2706
 6515W        W23362  12.125   7.902   0.712 -0.0358 -0.0891 -0.1374
 6516W        W23363  12.828  12.639   3.672 -0.0337  0.1382 -0.0705
 6517W        W23364   5.763   9.022   5.007  0.0219 -0.4375 -0.1807
 6518W        W23365   5.493  12.841  15.278 -0.1729  0.3322  0.1514
 6519W        W23366  16.501  11.097   4.054 -0.1364  0.1367  0.2140
 6520W        W23367  16.177   7.544  11.642 -0.0574 -0.0446 -0.2156
 6521W        W23368  13.256  14.301   1.196  0.1543 -0.2531 -0.0633
 6522W        W23369   6.638  17.145   3.019  0.1487 -0.1122 -0.3123
 6523W        W23370   8.706  11.132  13.557 -0.0582  0.1092 -0.0140
 6524W        W23371  17.396   6.182   5.422 -0.1581 -0.1674  0.0461
 6525W        W23372   4.696   0.737   1.645 -0.2095 -0.2105  0.0025
 6526W        W23373  13.279   0.983   1.065  0.1763 -0.0914 -0.0731
 6527W        W23374   9.688   5.206  15.917 -0.0417  0.0542  0.1980
 6528W        W23375  17.715   5.750  13.683 -0.2582 -0.2679  0.0239
 6529W        W23376   6.144   4.824  16.468  0.2724 -0.0938 -0.0424
 6530W        W23377   7.528   1.764  11.648  0.2473 -0.1728 -0.1037
 6531W        W23378   9.153   8.173   1.653 -0.2313 -0.0101 -0.0556
 6532W        W23379   7.048  17.911  16.007  0.1781 -0.1898  0.4264
 6533W        W23380   5.384   0.081   5.929  0.1879 -0.1028 -0.1614
 6534W        W23381  16.067  13.496  13.474 -0.1152 -0.0752 -0.1653
 6535W        W23382  17.005  12.931   0.843 -0.4268 -0.0245  0.0118
 6536W        W23383  14.191   7.367   3.025 -0.0666  0.0167  0.3242
 6537W        W23384   9.500   5.484   0.295  0.2838  0.0256  0.4585
 6538W        W23385   1.272   8.558   1.977  0.1438  0.0354  0.1562
 6539W        W23386   4.627   0.413   2.631  0.0392  0.4464  0.2499
 6540W        W23387   0.256  15.958   4.477 -0.0281  0.1599  0.1710
 6541W        W23388  11.312   2.614   1.265  0.0713  0.0119 -0.1397
 6542W        W23389  15.271   3.400  12.878  0.0860 -0.0106 -0.1661
 6543W        W23390  10.583   8.247  13.116  0.0388 -0.0824 -0.1447
 6544W        W23391   4.726   1.980   4.043 -0.0759  0.0971 -0.0019
 6545W        W23392   4.025   2.062   5.280 -0.0154 -0.2106 -0.2258
 6546W        W23393   4.405   8.875  13.861  0.0375 -0.1671  0.1452
 6547W        W23394  12.339  16.415  10.302  0.1829  0.2352 -0.0734
 6548W        W23395  18.165   2.478   1.267  0.0754 -0.0879  0.0737
 6549W        W23396  16.014   7.150   2.720  0.1862 -0.0615  0.0152
 6550W        W23397  15.258   1.301   0.994  0.2352 -0.1828 -0.1791
 6551W        W23398   3.258  15.135   1.535  0.4431 -0.1310  0.2042
 6552W        W23399   0.223   3.299   0.925  0.0688  0.0759 -0.0691
 6553W        W23400   4.371  14.965   0.697 -0.3024  0.1260  0.1522
 6554W        W23401  11.652  12.154   5.336 -0.0946 -0.1565 -0.2076
 6555W        W23402  10.062   8.380  12.055  0.0706 -0.0546  0.3920
 6556W        W23403   5.172  14.101   1.389 -0.4203  0.2152  0.0497
 6557W        W23404  11.474  14.641  11.627  0.3091 -0.3307  0.1392
 6558W        W23405   4.181   6.242  13.647 -0.0326  0.3241  0.0479
 6559W        W23406   9.116   2.542   4.314 -0.1086 -0.3132  0.0395
 6560W        W23407  12.792   6.648   3.991 -0.0040  0.0858 -0.0199
 6561W        W23408  10.949  10.799   0.793 -0.1810 -0.1252 -0.1901
 6562W        W23409  16.162   6.156  12.681  0.1523 -0.2289 -0.1351
 6563W        W23410  11.644   8.572  15.984  0.1708 -0.1465  0.3816
 6564W        W23411   4.654  12.679  13.755 -0.1728  0.0581 -0.0650
 6565W        W23412   8.652   4.607  11.315  0.2008  0.1157  0.1943
 6566W        W23413   7.678  13.063   0.513 -0.2190  0.2423 -0.1683
 6567W        W23414   4.978   3.673  15.420  0.1013  0.0299 -0.0411
 6568W        W23415   1.635   3.540  11.279 -0.0724 -0.1140  0.1196
 6569W        W23416  12.561  17.860  11.906 -0.1700 -0.1326  0.3990
 6570W        W23417   0.144   8.246  11.667 -0.3213 -0.1135  0.0597
 6571W        W23418   7.568  12.473  12.917 -0.3392 -0.2505  0.0126
 6572W        W23419   0.665   8.417  13.909  0.1986  0.0038 -0.0275
 6573W        W23420  16.036   8.283  15.384  0.2183  0.1945  0.3853
 6574W        W23421  15.887   7.887   4.167 -0.1090  0.1816 -0.1664
 6575W        W23422  11.208  13.602  15.971  0.1069 -0.0089  0.0598
 6576W        W23423   4.907   0.664  11.719 -0.5328 -0.0509  0.0566
 6577W        W23424  17.592  11.650   4.392 -0.2675 -0.2868  0.1003
 6578W        W23425  11.350   8.504   2.505 -0.1611 -0.0811 -0.2265
 6579W        W23426  17.024   1.864  13.080 -0.0837  0.3289  0.1622
 6580W        W23427   1.566   4.802  12.067  0.0793 -0.1061  0.0709
 6581W        W23428  11.136   7.719  11.397  0.1305 -0.0717  0.0756
 6582W        W23429  11.986   3.267   0.118  0.0719 -0.2376 -0.1659
 6583W        W23430  15.182   0.240  14.113 -0.0900 -0.1523  0.2807
 6584W        W23431  11.870   0.299   6.206 -0.2605 -0.0347  0.1400
 6585W        W23432  12.747   6.585   0.736  0.0705  0.2132 -0.0898
 6586W        W23433   7.489   8.632   5.131 -0.1890 -0.0030 -0.0276
 6587W        W23434  16.170  10.369   0.724 -0.0910 -0.1408 -0.0569
 6588W        W23435   1.164   7.105  13.374 -0.1956  0.0543 -0.3125
 6589W        W23436   9.543  15.477  12.454 -0.1342 -0.2384 -0.1938
 6590W        W23437  14.633   8.313   5.005 -0.1831  0.1625 -0.0846
 6591W        W23438   7.791   6.575   5.079 -0.2480 -0.0642 -0.0337
 6592W        W23439  15.785   9.759   2.981  0.1278 -0.5120 -0.0493
 6593W        W23440   9.986  13.116  14.918  0.1651  0.0848  0.0530
 6594W        W23441  16.715  11.310   3.669  0.3787  0.0612 -0.0031
 6595W        W23442  10.494  14.176   0.867 -0.0013 -0.0249  0.0039
 6596W        W23443  14.627   8.914   0.778  0.4087 -0.3853  0.2681
 6597W        W23444   2.201   8.152   0.699 -0.1220 -0.0996  0.0151
 6598W        W23445  17.795  12.486  12.834 -0.1407  0.3064  0.0654
 6599W        W23446  16.128  17.453   5.056 -0.0489 -0.2822 -0.0813
 6600W        W23447   0.184  12.171   4.214  0.1560 -0.0177  0.0152
 6601W        W23448  15.563   5.948  13.017  0.1475  0.0195  0.2580
 6602W        W23449   4.731  12.406  13.308  0.0803 -0.1956  0.0140
 6603W        W23450  15.324   5.752   0.909 -0.0312 -0.2478  0.1889
 6604W        W23451   6.394  15.466  12.962 -0.2804 -0.0300  0.1374
 6605W        W23452   4.750  11.710   1.967  0.1636 -0.0965 -0.0661
 6606W        W23453   0.570   1.802  16.516  0.3386 -0.0833 -0.0062
 6607W        W23454   4.820   0.484   5.375  0.3113  0.1981  0.4003
 6608W        W23455   8.501   8.620   0.538 -0.0385 -0.3115  0.1886
 6609W        W23456  13.364  16.569  11.694  0.1551  0.1853  0.1083
 6610W        W23457  12.135   1.880  13.884 -0.1544 -0.1945 -0.0163
 6611W        W23458  12.140   2.515   2.953  0.1402  0.2511  0.2849
 6612W        W23459   3.999   1.374   0.582 -0.0527 -0.4360  0.0101
 6613W        W23460  16.625   1.736   5.022 -0.2327  0.0494 -0.1839
 6614W        W23461  12.972   5.124   6.066 -0.0024  0.0804 -0.0332
 6615W        W23462   9.398   5.177   4.935 -0.1383  0.2756  0.0634
 6616W        W23463   8.189  16.986   5.245 -0.1791 -0.0077  0.1780
 6617W        W23464   1.631  13.524   1.572  0.2193  0.2054  0.2451
 6618W        W23465  12.474  14.447   3.866  0.2246 -0.0566  0.1497
 6619W        W23466   9.411   6.989  16.266  0.4089 -0.0854 -0.3061
 6620W        W23467   8.199   2.138   5.039 -0.1834  0.1630 -0.1630
 6621W        W23468   4.226  12.126   0.879 -0.0045 -0.0837 -0.1979
 6622W        W23469   8.051  14.000   1.947  0.2905 -0.2635 -0.5097
 6623W        W23470  17.635  10.745  13.625  0.1873 -0.3554 -0.2865
 6624W        W23471   4.997  14.371  12.476  0.0220  0.1246  0.3231
 6625W        W23472   0.998   7.825  15.953  0.0185 -0.0323 -0.0256
 6626W        W23473  15.668  15.365   3.809 -0.1832  0.2057 -0.0063
 6627W        W23474   7.056  11.374  15.737  0.3018  0.1245  0.1085
 6628W        W23475   7.440   9.669   2.184 -0.0741 -0.5026 -0.1386
 6629W        W23476  13.233   2.388   4.313 -0.0859 -0.1407 -0.0240
 6630W        W23477  12.765  12.500  14.280  0.0459  0.2869 -0.0059
 6631W        W23478  16.348   4.839   0.824 -0.1538  0.0078  0.2889
 6632W        W23479  11.373   3.809  13.856  0.0075  0.0728 -0.2902
 6633W        W23480  17.199   9.014  15.161 -0.0084  0.2064 -0.1528
 6634W        W23481   6.870   0.610  15.604 -0.0306  0.1063  0.2543
 6635W        W23482   6.875  12.002  15.114  0.0386  0.2122 -0.0732
 6636W        W23483   5.288   0.020  13.928 -0.0593  0.1289  0.0776
 6637W        W23484   6.763  16.592   0.978  0.1160  0.0381 -0.0705
 6638W        W23485   7.023  16.456  12.195  0.1001  0.0314 -0.1005
 6639W        W23486  12.465   3.971   4.812 -0.1215 -0.0803 -0.0059
 6640W        W23487   1.404  16.655   2.591  0.0284  0.0175  0.0046
 6641W        W23488   5.633  11.389   4.400  0.2002  0.0517  0.0515
 6642W        W23489   8.048  12.500  12.793 -0.0012 -0.0566 -0.0381
 6643W        W23490  11.234   2.350   0.608 -0.0758 -0.2183 -0.1286
 6644W        W23491  17.415   2.295   3.927  0.2035  0.1075  0.1469
 6645W        W23492   9.091   7.225   5.516  0.1216 -0.1668  0.0354
 6646W        W23493   8.423  11.643   2.437  0.2422  0.1935 -0.2483
 6647W        W23494  11.001   0.722   5.221  0.0390 -0.1460 -0.1331
 6648W        W23495   4.285   4.437   2.197 -0.0861  0.1187 -0.0047
 6649W        W23496   1.309  17.758  12.098 -0.1353 -0.0788 -0.0494
 6650W        W23497   4.568   2.564  12.921  0.1105 -0.1151 -0.0084
 6651W        W23498   2.607   5.584   0.655 -0.0711 -0.0823 -0.0929
 6652W        W23499   9.872  10.047   1.580 -0.2183 -0.2633 -0.3376
 6653W        W23500   6.658  15.137   5.400 -0.1344 -0.2386 -0.0739
 6654W        W23501   7.688  11.706  13.577 -0.1565 -0.1717  0.1257
 6655W        W23502   0.343   4.602   3.773 -0.0996 -0.0111 -0.0746
 6656W        W23503  10.103   1.473   1.113  0.0905  0.1751 -0.1011
 6657W        W23504  13.194   0.533  14.211  0.0762 -0.3753 -0.1934
 6658W        W23505   0.991  10.917  15.629 -0.0062  0.0593  0.2131
 6659W        W23506   0.224  16.575   2.957 -0.1399  0.1071 -0.1594
 6660W        W23507   4.459  14.760  12.201 -0.0511  0.1879  0.1488
 6661W        W23508   9.633   2.789  16.213 -0.0361  0.0344  0.0225
 6662W        W23509  10.127   3.060  14.768  0.0298 -0.0874  0.1790
 6663W        W23510  11.623  15.379   1.969 -0.1229 -0.0572  0.0912
 6664W        W23511  16.940   7.900  13.934  0.1164  0.1007 -0.2993
 6665W        W23512  16.944  16.312   1.052 -0.0671  0.4620 -0.2540
 6666W        W23513  14.153   3.592  12.675  0.0942  0.0697 -0.0734
 6667W        W23514  16.338  16.520  14.731  0.1789  0.2101 -0.3261
 6668W        W23515   3.299   4.704  15.516 -0.2565 -0.0451  0.1718
 6669W        W23516   0.831  12.740  16.091 -0.0803 -0.0424 -0.4237
 6670W        W23517  17.457  15.225   2.364  0.0508  0.1282  0.0776
 6671W        W23518  15.543   5.961  13.510 -0.0947  0.0940 -0.2114
 6672W        W23519  13.613  16.127  11.500  0.1183  0.0990 -0.2100
 6673W        W23520  10.690  12.910  12.184 -0.0291 -0.0316 -0.1866
 6674W        W23521  13.816  12.525  15.055  0.1366  0.0966 -0.0267
 6675W        W23522  12.615  11.171  14.657 -0.2683 -0.1170  0.0224
 6676W        W23523   3.797  17.617  16.621  0.0786  0.2748  0.0546
 6677W        W23524   4.740   5.238   0.371  0.2552  0.1510 -0.1980
 6678W        W23525   1.440  10.422  14.717  0.1917 -0.0138 -0.0714
 6679W        W23526   3.359  13.074   5.137 -0.5229  0.1280  0.2522
 6680W        W23527   6.496   5.721   6.281  0.1749 -0.0022 -0.0214
 6681W        W23528   2.674  14.173   0.860 -0.0017  0.2485 -0.0474
 6682W        W23529   8.557   5.034  15.176 -0.1880 -0.1997 -0.1186
 6683W        W23530   6.854   9.960  12.596 -0.1958 -0.0714 -0.2105
 6684W        W23531  17.242   2.818   1.336  0.2540  0.0356  0.0877
 6685W        W23532   8.904  16.543   4.093 -0.0411  0.4131 -0.0177
 6686W        W23533   5.904   3.900   2.503 -0.0567 -0.1225  0.1621
 6687W        W23534   7.998  16.549  16.446 -0.2209  0.0645 -0.0847
 6688W        W23535  14.837  14.784   3.853 -0.1208  0.0590 -0.2837
 6689W        W23536   2.895   6.340  14.070  0.0243 -0.1017 -0.2218
 6690W        W23537   5.398  11.419  14.736 -0.2307  0.1432 -0.0345
 6691W        W23538   3.922   6.088  11.888  0.0220 -0.0640 -0.0739
 6692W        W23539   6.025  13.033  15.060 -0.0763 -0.0230 -0.0083
 6693W        W23540   9.408   4.493   1.027 -0.1577 -0.0646 -0.1869
 6694W        W23541   2.885  13.141  12.614 -0.1949  0.1944 -0.2771
 6695W        W23542   6.461  10.389   0.561 -0.1733  0.0974 -0.0219
 6696W        W23543   2.942  11.269  12.567 -0.4399  0.1472 -0.1769
 6697W        W23544  15.064   2.117   4.936  0.3996  0.1054  0.1542
 6698W        W23545   4.422   0.506   0.248  0.0144 -0.0744  0.2307
 6699W        W23546   1.934  10.325   2.727  0.2021 -0.1535  0.1348
 6700W        W23547  15.969   9.407   3.342 -0.2417 -0.3856  0.1536
 6701W        W23548  14.643   6.441  12.635  0.0072  0.1169 -0.1283
 6702W        W23549  11.719   6.843   0.004  0.1074  0.0798 -0.0699
 6703W        W23550  13.762  11.694   4.200 -0.1478 -0.0066 -0.1281
 6704W        W23551  17.584   5.777   5.072  0.0656 -0.1897  0.1339
 6705W        W23552  10.417  10.889   4.439  0.0109  0.0228 -0.2057
 6706W        W23553   8.857  10.434   3.609  0.1438 -0.1716  0.0374
 6707W        W23554  16.762  10.447  12.527  0.3095 -0.0260 -0.2051
 6708W        W23555   1.682  10.324  12.928 -0.1349 -0.0608  0.1056
 6709W        W23556   5.419   3.058   3.830  0.0744 -0.0573 -0.0007
 6710W        W23557   5.254   4.645  13.493 -0.0853 -0.0354 -0.1629
 6711W        W23558   4.190  15.837   3.074  0.1958  0.0686 -0.0901
 6712W        W23559   2.760   0.834   4.211 -0.1664 -0.0966  0.1789
 6713W        W23560  16.912   6.480  11.911 -0.0654  0.1159  0.0549
 6714W        W23561   7.945  18.098   5.613 -0.1054  0.2548  0.4023
 6715W        W23562  16.129   5.597  16.344  0.0146 -0.0177  0.1410
 6716W        W23563  10.239   6.748  11.590 -0.0478  0.2585 -0.2979
 6717W        W23564   6.431   5.451  13.997  0.2792  0.1642 -0.1313
 6718W        W23565   3.241   5.938   0.181  0.3039 -0.2767  0.2213
 6719W        W23566   8.743  15.636   3.602  0.0433 -0.0680  0.1104
 6720W        W23567   1.795   6.691  12.109  0.0946 -0.0443 -0.3298
 6721W        W23568   6.318   8.174  11.715 -0.2373  0.0695  0.0440
 6722W        W23569   8.800  11.527   2.973  0.2514  0.0050 -0.0073
 6723W        W23570   3.800  14.178   2.044  0.1034  0.0893 -0.1010
 6724W        W23571   5.769  17.589   4.218 -0.3266  0.0932 -0.0379
 6725W        W23572   8.525  15.898  11.585 -0.3115  0.0193 -0.0377
 6726W        W23573   1.794  15.303   1.697  0.0419 -0.4537  0.0709
 6727W        W23574   5.335  16.670  11.874 -0.5126  0.0502 -0.1553
 6728W        W23575  16.886   8.118   5.802 -0.3274  0.1896  0.1340
 6729W        W23576  14.645   2.154   5.465  0.2085 -0.1169 -0.0254
 6730W        W23577   3.967   4.195   1.757 -0.0598  0.3694  0.0883
 6731W        W23578   7.049   9.525  14.031  0.2639 -0.1823  0.3811
 6732W        W23579   6.884   5.827  14.809  0.1102 -0.1718 -0.0141
 6733W        W23580  18.063   8.599  14.101  0.0426  0.0359 -0.0555
 6734W        W23581   3.007  12.266  14.368 -0.0517  0.1447  0.1427
 6735W        W23582  13.141   3.379  13.447  0.1215 -0.0634  0.3027
 6736W        W23583  14.796  14.474  16.130 -0.0787 -0.4012 -0.1595
 6737W        W23584   9.289  16.548   2.701 -0.3244  0.0246  0.0736
 6738W        W23585  16.162   1.804  11.401 -0.1378  0.0354 -0.0759
 6739W        W23586   2.529   0.014  15.120  0.1142  0.0178  0.0354
 6740W        W23587   8.304  14.702   5.001 -0.2677  0.0756  0.1311
 6741W        W23588  11.417   4.140   1.662 -0.2309 -0.1237  0.0326
 6742W        W23589   4.080   1.861  12.826  0.3415 -0.2198  0.1489
 6743W        W23590   7.287  15.378  12.920  0.1730  0.0938 -0.3250
 6744W        W23591  13.861   6.554   1.934  0.4414  0.2026 -0.2197
 6745W        W23592   9.595  11.312   4.151 -0.2178  0.1442 -0.0917
 6746W        W23593   0.043   1.439  14.812 -0.1979  0.1129 -0.1794
 6747W        W23594  11.974   5.308  12.430 -0.0955 -0.2336 -0.0873
 6748W        W23595   2.454   9.507   5.206  0.1869 -0.1626  0.0892
 6749W        W23596   5.803   3.988   3.906  0.2941 -0.1479 -0.0919
 6750W        W23597   7.841  10.799  13.766 -0.2131 -0.0558  0.1977
 6751W        W23598   0.544  12.628  13.245 -0.0624  0.0791 -0.1023
 6752W        W23599   5.493   7.524   4.414  0.0334 -0.1552 -0.1458
 6753W        W23600   0.188   2.863  15.435 -0.2446 -0.0479 -0.2273
 6754W        W23601   4.732  11.383  12.217 -0.1547 -0.1242 -0.0753
 6755W        W23602  14.879  10.908  12.097 -0.0470  0.1947  0.5264
 6756W        W23603  17.843   7.478   3.381 -0.0544 -0.1304  0.0201
 6757W        W23604  13.587  14.386   3.592  0.0134  0.0140 -0.1481
 6758W        W23605   9.749   5.957  14.390 -0.2668 -0.0649 -0.1402
 6759W        W23606  10.236  17.748   4.273  0.0183  0.0476  0.1455
 6760W        W23607   7.423   9.292  14.934  0.4527 -0.1082  0.1757
 6761W        W23608  17.500  16.001   4.564 -0.0066  0.0399  0.0844
 6762W        W23609  17.509  12.953   2.393  0.3892 -0.0815  0.4388
 6763W        W23610   7.193   3.423  14.920  0.0437 -0.0301 -0.1370
 6764W        W23611  11.871   3.706  15.143  0.1070  0.0067  0.1487
 6765W        W23612   3.245   8.559  15.652 -0.1019  0.0183  0.1233
 6766W        W23613  12.842   4.225  10.455  0.2770 -0.1559 -0.0503
 6767W        W23614  12.658  13.915   1.843 -0.4113  0.1960  0.0726
 6768W        W23615   1.925   7.547   2.790 -0.0406 -0.1083  0.2410
 6769W        W23616  16.795  15.853   4.846 -0.0414  0.0478  0.1221
 6770W        W23617  15.325  12.551  14.262 -0.2390 -0.1613  0.1266
 6771W        W23618   2.921  13.360   1.311 -0.0297 -0.0839 -0.4883
 6772W        W23619  15.364   4.337  15.651 -0.0871  0.2799 -0.0913
 6773W        W23620  14.059  13.243   3.926  0.1532  0.2954 -0.0958
 6774W        W23621  18.105   2.120  13.801 -0.2806  0.3691 -0.2060
 6775W        W23622  12.335  14.972   2.582 -0.3909 -0.0316 -0.0672
 6776W        W23623  17.227   0.488  11.366 -0.0275 -0.1102  0.0666
 6777W        W23624  10.386   3.133  16.542  0.2525 -0.0821 -0.0379
 6778W        W23625  13.219  11.772   1.513  0.1054  0.0251 -0.0629
 6779W        W23626   0.869   9.840  11.645  0.0860  0.3583  0.0576
 6780W        W23627   7.481   8.015   1.166 -0.1992 -0.0108 -0.0261
 6781W        W23628  16.729   8.596   0.343 -0.1120  0.1278 -0.1148
 6782W        W23629   5.102   7.908   0.908 -0.1166 -0.1501 -0.4185
 6783W        W23630   0.158   7.292   1.757 -0.0480 -0.1579  0.2016
 6784W        W23631   9.988   4.453  14.848  0.3001  0.0465 -0.2299
 6785W        W23632  17.413   6.594  14.752 -0.0445 -0.3022  0.1561
 6786W        W23633  17.886  17.925   1.960  0.0444 -0.0054  0.1940
 6787W        W23634  12.614   8.097   0.511 -0.1297 -0.4020 -0.2900
 6788W        W23635   4.098  11.981   0.440  0.0220 -0.1625  0.2416
 6789W        W23636   1.781  16.010   3.577  0.1207  0.1748  0.0301
 6790W        W23637  18.151   3.558  13.855 -0.1052 -0.0589 -0.2296
 6791W        W23638  12.827   8.391  15.516 -0.1851 -0.0863 -0.1831
 6792W        W23639   7.112   7.757  11.630  0.0380  0.0988  0.0248
 6793W        W23640  15.623   1.737  13.118 -0.1381  0.0430  0.0095
 6794W        W23641   0.119  13.434  12.555 -0.2123 -0.1052 -0.2477
 6795W        W23642   0.962   4.900   1.349 -0.0769 -0.1817  0.2394
 6796W        W23643  11.881  16.548   1.465 -0.1715 -0.1076 -0.3512
 6797W        W23644   3.559   6.116  12.322  0.1097  0.0069 -0.2359
 6798W        W23645   9.320  12.539  13.947  0.1266 -0.4041  0.3226
 6799W        W23646  14.981   5.302   3.275  0.1057 -0.0406 -0.0133
 6800W        W23647   8.781  14.331   4.391 -0.1178 -0.2078  0.1286
 6801W        W23648   8.719   6.890   0.970 -0.1317  0.1012  0.0715
 6802W        W23649   8.890   8.108  15.978 -0.0469  0.0190 -0.0662
 6803W        W23650  15.210  17.773   5.327 -0.1669  0.1577 -0.2624
 6804W        W23651  11.193  10.104   2.689  0.2180  0.2840 -0.1594
 6805W        W23652  17.390   7.177  11.963  0.2112  0.1707 -0.0503
 6806W        W23653   3.278  14.987  13.145  0.3700 -0.2122  0.1106
 6807W        W23654   8.946  16.084  15.555 -0.2193 -0.0886  0.0867
 6808W        W23655  12.787   4.274  16.155  0.0917 -0.1069 -0.1344
 6809W        W23656  12.102   6.262  15.884  0.1072  0.0640 -0.0604
 6810W        W23657   2.109  10.748   4.380 -0.1039 -0.1536  0.1078
 6811W        W23658   4.874   8.353   5.111  0.3125 -0.0078 -0.0183
 6812W        W23659  11.367   2.288  14.774  0.2396 -0.0284 -0.0359
 6813W        W23660   9.723   8.946  13.705  0.1858 -0.0454 -0.1323
 6814W        W23661   7.962   7.730   4.064 -0.2739 -0.1168  0.2373
 6815W        W23662   8.402   7.897   4.274  0.2796  0.2645  0.0169
 6816W        W23663   1.788  16.283   1.190  0.1222  0.1033 -0.0608
 6817W        W23664  10.616  11.198   2.080 -0.3463 -0.2069 -0.1511
 6818W        W23665   7.725  16.588   0.230  0.0402 -0.2651 -0.0193
 6819W        W23666   7.259   6.837   2.058 -0.1242 -0.0501 -0.2024
 6820W        W23667  11.588   9.410  12.394 -0.1240 -0.2795 -0.0790
 6821W        W23668   4.930   0.809  14.845 -0.2644  0.2653 -0.2790
 6822W        W23669   1.760  16.469  14.226 -0.1841 -0.4005 -0.3848
 6823W        W23670  13.169  10.846   5.044 -0.0824 -0.0338  0.0390
 6824W        W23671   4.237   1.518   1.095 -0.2143 -0.0710 -0.0302
 6825W        W23672   6.431  10.125  15.986  0.1885 -0.1523  0.3046
 6826W        W23673  10.876  14.603  15.601  0.1266  0.1774  0.2115
 6827W        W23674   3.159   1.182  16.552 -0.0522 -0.1338 -0.0273
 6828W        W23675  17.717   1.327  14.940 -0.2840  0.1174 -0.1083
 6829W        W23676  15.112  14.419  12.604  0.0138 -0.0919  0.0201
 6830W        W23677   8.163  14.643  13.320 -0.0804 -0.3815 -0.1702
 6831W        W23678   1.068   1.136  16.001 -0.1246  0.0587  0.1713
 6832W        W23679   5.261  13.487  11.941  0.0960 -0.0446  0.1408
 6833W        W23680   1.450  17.850   1.126  0.2482 -0.1784 -0.0745
 6834W        W23681   1.205  14.323   2.369  0.1599 -0.0121 -0.2403
 6835W        W23682  10.149   8.505   4.052  0.0633  0.0554  0.0677
 6836W        W23683   8.275  13.565  15.772 -0.1454 -0.0900  0.1217
 6837W        W23684   6.846   0.284  13.649  0.0192  0.1885  0.0941
 6838W        W23685  14.092  14.609  13.217  0.0561 -0.0932  0.2927
 6839W        W23686  14.781  17.905  11.863 -0.2803 -0.2360 -0.2654
 6840W        W23687   4.191  17.172  14.660  0.1089 -0.3819  0.4358
 6841W        W23688  10.347   5.639   1.788  0.0819 -0.0613 -0.0683
 6842W        W23689   0.469  17.646   4.438  0.1658 -0.2495  0.0491
 6843W        W23690  11.675   2.138  11.859 -0.0118 -0.2166 -0.0127
 6844W        W23691   0.727  13.695  13.593 -0.1645 -0.0742 -0.2170
 6845W        W23692   2.738  12.354  12.251  0.1693 -0.0897 -0.0050
 6846W        W23693   6.305   4.892  15.866 -0.2260  0.0691 -0.2506
 6847W        W23694  17.926  10.313   0.095 -0.0513 -0.0014 -0.2069
 6848W        W23695   9.799   1.316  14.086 -0.0066 -0.0759 -0.0441
 6849W        W23696  17.305   6.223   2.434  0.0613  0.0379  0.2020
 6850W        W23697  10.450   9.155  14.499 -0.1861 -0.0979  0.0592
 6851W        W23698  13.120  18.078  15.314 -0.1045 -0.1719  0.1728
 6852W        W23699   7.055  10.025  14.280  0.1607  0.1470 -0.2264
 6853W        W23700   1.801   7.523   0.008 -0.0161 -0.0909  0.0041
 6854W        W23701  14.570   8.746  13.438 -0.0420 -0.1263  0.0176
 6855W        W23702  14.895   8.529  11.587  0.0370 -0.1656 -0.2770
 6856W        W23703  12.166  13.052  13.468  0.3520 -0.1593  0.0785
 6857W        W23704   1.325   4.772   5.500  0.3071 -0.0216  0.2121
 6858W        W23705  10.653   4.712   0.186  0.0834  0.3501 -0.1406
 6859W        W23706  15.241  16.527   0.971 -0.1712  0.0766  0.3486
 6860W        W23707  12.968   5.001  14.695 -0.2742 -0.3287  0.3558
 6861W        W23708  10.614  17.801   4.628 -0.0627 -0.1380  0.0093
 6862W        W23709  12.215  11.433  14.920  0.0251 -0.2076  0.1457
 6863W        W23710   2.212   9.906   5.013  0.3007 -0.1393  0.2338
 6864W        W23711   7.566   5.694  14.176 -0.1691  0.1414 -0.1486
 6865W        W23712  17.025   3.698   1.058  0.0994 -0.1406 -0.1698
 6866W        W23713   8.254   1.755  15.770 -0.1330 -0.1898  0.0316
 6867W        W23714   9.343   3.500   3.762  0.1098  0.0656  0.0832
 6868W        W23715   2.420  15.579  11.927  0.0875 -0.0373  0.0890
 6869W        W23716   2.892   4.283   1.051  0.1055 -0.1508  0.0559
 6870W        W23717   7.956  15.341   2.569  0.0661  0.0717 -0.0713
 6871W        W23718   3.226  11.927  15.558  0.0771 -0.1337 -0.1436
 6872W        W23719  12.089   2.563  13.201 -0.1014  0.2487 -0.1558
 6873W        W23720   1.455  16.020  15.250  0.0086  0.0843 -0.1354
 6874W        W23721   2.663   7.048   4.418 -0.0661 -0.0517 -0.1442
 6875W        W23722   2.817  16.502  16.605  0.1962  0.0798 -0.3124
 6876W        W23723   4.721   5.334   1.993 -0.0412  0.2486  0.0301
 6877W        W23724  16.578   4.102   3.084  0.2555  0.2803  0.4581
 6878W        W23725   0.115  15.445  12.424  0.2904  0.0104  0.1655
 6879W        W23726  11.378   6.734  11.500 -0.1111  0.1514  0.0539
 6880W        W23727   1.877  17.622  14.363  0.3673  0.2914 -0.0328
 6881W        W23728  16.038  15.352   5.290  0.2699 -0.2997  0.1192
 6882W        W23729   1.377   7.634  11.584 -0.0446  0.1877  0.2845
 6883W        W23730  14.693  14.276   4.447 -0.1275 -0.2200 -0.0564
 6884W        W23731  15.662   9.992   2.122  0.1866 -0.0440 -0.0149
 6885W        W23732  14.036  11.023  11.548 -0.0281  0.0106 -0.1122
 6886W        W23733  11.075  11.645  12.362  0.0551 -0.0035  0.0559
 6887W        W23734   5.696  11.392   4.891 -0.1081  0.3874  0.1074
 6888W        W23735  10.816  12.847  14.684  0.0389  0.2253 -0.0275
 6889W        W23736   0.486   2.423   3.619  0.2254  0.1602  0.2385
 6890W        W23737   8.341  12.921   4.966  0.1033 -0.1016  0.0389
 6891W        W23738  12.263  16.968   2.766  0.2494 -0.1027  0.3203
 6892W        W23739   1.137  13.679  15.323 -0.0083  0.1232  0.0676
 6893W        W23740   7.198   3.228   0.841  0.0833 -0.2163  0.0412
 6894W        W23741  10.042  10.446   5.172  0.2401 -0.1862 -0.1357
 6895W        W23742  17.791   6.633  13.443 -0.1403  0.2327  0.1269
 6896W        W23743  11.153   6.736  15.421 -0.0546  0.1883 -0.0587
 6897W        W23744   4.194  17.284  12.164  0.0401 -0.0147  0.3488
 6898W        W23745   2.686   4.514   2.973  0.0721 -0.0076  0.0496
 6899W        W23746  14.188   4.251   2.107 -0.1425 -0.0744  0.0028
 6900W        W23747  14.267   1.656  11.777  0.5328 -0.1861 -0.0045
 6901W        W23748  15.175   3.506  14.313 -0.0887 -0.0167 -0.0091
 6902W        W23749  15.013  15.667  10.494  0.0079 -0.0214  0.2411
 6903W        W23750   5.202   5.077  15.242 -0.1809 -0.2950 -0.1420
 6904W        W23751   8.686   5.393   0.823 -0.2858  0.0074 -0.1210
 6905W        W23752  15.628   2.486  15.358 -0.4823 -0.3296  0.2090
 6906W        W23753   2.071  15.763   1.610  0.1037  0.0049 -0.0078
 6907W        W23754  15.830  13.167  11.961  0.2516  0.1428  0.3779
 6908W        W23755  11.963  15.570  12.234 -0.2553 -0.1526  0.0629
 6909W        W23756   8.148  17.974   6.039  0.1014  0.2118  0.1614
 6910W        W23757   0.299   8.119  14.308  0.0154 -0.2765 -0.1830
 6911W        W23758   9.966   0.631   0.949 -0.0533  0.1012 -0.2474
 6912W        W23759   4.408   6.196   2.115  0.0788  0.0933 -0.0034
 6913W        W23760   3.621   1.320  16.403  0.2451 -0.3955  0.1971
 6914W        W23761  16.536  11.680   2.025 -0.1749  0.1078  0.0181
 6915W        W23762   6.507  10.948   0.641 -0.0176 -0.0449 -0.0398
 6916W        W23763  13.844  17.479   5.292  0.3889  0.0806 -0.0049
 6917W        W23764  14.944   3.430  13.841  0.1475  0.0133 -0.1742
 6918W        W23765   7.271  14.612  12.871 -0.1035 -0.0564  0.0176
 6919W        W23766   2.370   3.433   1.844 -0.3290 -0.3588 -0.0534
 6920W        W23767  17.031  15.222  15.146 -0.0896  0.2519 -0.0119
 6921W        W23768   9.427  17.423  14.917  0.0236  0.0341  0.1232
 6922W        W23769   5.438   1.066   1.613 -0.3804  0.0167 -0.1215
 6923W        W23770  11.486   4.164  15.662 -0.5411  0.0115  0.2475
 6924W        W23771  10.936  14.541   0.799 -0.4131  0.0425 -0.1158
 6925W        W23772   3.635   9.352   4.334 -0.1824 -0.0706 -0.0879
 6926W        W23773   0.344   4.279  14.183  0.3740 -0.0763  0.0745
 6927W        W23774  12.242   5.518  13.447  0.0124  0.1103  0.0359
 6928W        W23775   9.976   2.716  12.592 -0.0639  0.0824 -0.0646
 6929W        W23776   8.145   6.109  13.514  0.3829 -0.1064 -0.1190
 6930W        W23777   4.583  16.627   1.450 -0.0478  0.2459  0.1689
 6931W        W23778   1.668   3.069   4.338  0.1029 -0.0799  0.2261
 6932W        W23779   0.108  15.273   3.577 -0.1181 -0.0009 -0.0249
 6933W        W23780   5.348   8.404  12.688  0.0297 -0.2325  0.0101
 6934W        W23781   0.572   5.969   4.220  0.0100  0.3042  0.0204
 6935W        W23782  10.839  15.918   2.224  0.1532  0.2542 -0.1086
 6936W        W23783  10.505   3.899  15.592 -0.0269 -0.0522  0.1250
 6937W        W23784   6.038  12.167   4.396  0.0447  0.2017  0.0012
 6938W        W23785  17.698  10.795  14.573  0.0216 -0.2186  0.1565
 6939W        W23786   3.016   2.914   0.141 -0.3793  0.0916 -0.0627
 6940W        W23787  11.061  15.089   0.854  0.1195  0.3872 -0.0671
 6941W        W23788  10.207   4.708   1.657  0.2235 -0.0753 -0.0617
 6942W        W23789  15.784   9.086  13.407  0.1993 -0.2005 -0.0766
 6943W        W23790   3.984  10.435  14.381 -0.3226 -0.0152 -0.0919
 6944W        W23791  13.589   3.167   4.569  0.1030  0.0560  0.1134
 6945W        W23792  14.674  10.466  11.910 -0.1397 -0.0212 -0.1466
 6946W        W23793  11.351   8.237  16.260  0.3380 -0.0154  0.2195
 6947W        W23794  17.656  13.665  16.490 -0.0880  0.1292  0.2129
 6948W        W23795   2.639   6.595   5.959  0.1932  0.1843  0.1927
 6949W        W23796  14.253   0.305  12.183  0.1407  0.0983  0.2821
 6950W        W23797   2.642  12.093   4.835 -0.2085 -0.2174  0.0596
 6951W        W23798   6.740  11.339   0.996  0.1938  0.1570 -0.1573
 6952W        W23799   8.405  17.437   3.893  0.1234 -0.0806 -0.2481
 6953W        W23800   9.896   2.527   3.616  0.2110 -0.0930 -0.0519
 6954W        W23801  12.348   3.606  13.933 -0.0381  0.4567  0.0141
 6955W        W23802   3.233  14.300  15.445  0.0546  0.0191  0.0043
 6956W        W23803  10.732  16.002  14.115 -0.1269  0.1192 -0.4741
 6957W        W23804  10.572   8.644   3.687 -0.0632  0.2112  0.1910
 6958W        W23805   1.232   5.876  14.165  0.0669 -0.0876  0.2301
 6959W        W23806   8.188  12.403  15.270  0.0243  0.2672 -0.0015
 6960W        W23807  14.189  10.129   0.260  0.1371 -0.0134 -0.0164
 6961W        W23808   1.500   6.455   5.373  0.1954 -0.3411 -0.1733
 6962W        W23809   7.156  11.596  11.896  0.3077 -0.2432  0.0850
 6963W        W23810   5.314  14.339  15.951 -0.2898 -0.1479  0.3106
 6964W        W23811  14.181   9.867  13.159 -0.1278 -0.1262  0.1883
 6965W        W23812   6.324   5.493   3.488  0.2367 -0.0313 -0.1327
 6966W        W23813   6.020   2.118   5.384  0.0094  0.0881  0.0320
 6967W        W23814  10.992   5.925   3.840  0.2522 -0.1430 -0.0361
 6968W        W23815   9.949   9.684   2.910  0.0763 -0.0980 -0.0470
 6969W        W23816   7.093   3.639   3.877  0.1824 -0.2828  0.0468
 6970W        W23817   0.305   5.406   1.811  0.1113  0.2123 -0.0179
 6971W        W23818  14.222  16.435  14.117 -0.0036  0.1936 -0.2279
 6972W        W23819  15.890   5.525   0.197  0.0510 -0.0568  0.1040
 6973W        W23820  13.834   4.975  13.482  0.1027  0.0129 -0.3523
 6974W        W23821  15.510  14.071   0.576  0.0448  0.1047  0.1142
 6975W        W23822   9.114   4.347   5.004  0.1095  0.2290 -0.0795
 6976W        W23823  14.166   9.053   2.910 -0.2247  0.2419 -0.0442
 6977W        W23824  15.230   4.571  12.084  0.0272  0.2720 -0.0540
 6978W        W23825   7.165   5.014  14.462  0.0062  0.3006 -0.0926
 6979W        W23826   2.186   4.772  12.663 -0.0858 -0.1603 -0.2740
 6980W        W23827  11.967   4.181  13.374 -0.1114  0.1925  0.1285
 6981W        W23828  15.298  14.498   1.979  0.1526 -0.2311 -0.0464
 6982W        W23829  15.984  12.421  14.196 -0.0716 -0.0811 -0.1372
 6983W        W23830  10.033  15.954  12.095  0.1039 -0.0747  0.2779
 6984W        W23831  13.310   4.608   1.173 -0.2086  0.0163 -0.1005
 6985W        W23832  17.985   2.184  14.338 -0.0422  0.1611  0.0170
 6986W        W23833  15.717   3.331   0.626  0.4142  0.3800  0.3995
 6987W        W23834  11.077   1.830  14.527 -0.0658  0.1184  0.1230
 6988W        W23835  14.494   5.213   0.388 -0.1974  0.0842 -0.1241
 6989W        W23836  17.861   9.606   1.793 -0.2436 -0.2664  0.0723
 6990W        W23837  13.269  11.035   0.995 -0.0593 -0.0883  0.1872
 6991W        W23838  12.250   2.672   5.278 -0.2187  0.3356  0.4934
 6992W        W23839   9.673   9.310   2.758  0.0296  0.2300  0.1388
 6993W        W23840   7.940  10.952   4.328  0.2911  0.1584  0.1665
 6994W        W23841  13.249   9.983  13.488 -0.1830 -0.2659  0.0560
 6995W        W23842  12.891   8.273   0.044 -0.0888 -0.0432  0.0224
 6996W        W23843  13.475  17.382   2.751 -0.3561  0.0540 -0.2860
 6997W        W23844  12.131   5.797  16.091  0.0519  0.0393 -0.0634
 6998W        W23845   5.515   0.168   3.030 -0.1331 -0.1286  0.1630
 6999W        W23846   6.147   9.502  14.414 -0.0467 -0.0862  0.0979
 7000W        W23847   4.333   1.946  15.083 -0.1399  0.1850  0.3087
 7001W        W23848   6.994  10.447   3.933 -0.1912  0.0181  0.1302
 7002W        W23849  13.381   0.874  12.006 -0.1292  0.2950  0.0571
 7003W        W23850  15.882   4.855  13.956  0.2582 -0.0614  0.3524
 7004W        W23851   5.453   6.133   3.707 -0.1823  0.1022  0.0243
 7005W        W23852   2.452   0.228   2.092  0.1733  0.0676  0.2842
 7006W        W23853  15.790   3.768  11.813  0.1495  0.0202 -0.1160
 7007W        W23854  10.929   1.122   6.207 -0.1521  0.1124  0.0839
 7008W        W23855   2.143  12.440  11.033  0.1155 -0.0620 -0.0141
 7009W        W23856   3.941   6.258   5.664  0.0776 -0.0093 -0.1611
 7010W        W23857   2.869   9.978  13.460  0.0964 -0.1789  0.0977
 7011W        W23858  12.514  12.855   4.014 -0.0169 -0.0063  0.0393
 7012W        W23859   8.897   2.230  12.701 -0.2105 -0.0765 -0.0477
 7013W        W23860  11.673  12.435  12.492 -0.1132  0.3247 -0.1767
 7014W        W23861   5.257  14.200   5.458 -0.2754  0.2041 -0.0489
 7015W        W23862  16.244   9.895  13.178 -0.0185  0.1115  0.0914
 7016W        W23863  12.664   9.135  15.232 -0.1938 -0.0536  0.2956
 7017W        W23864   4.309   2.864   4.505  0.0480  0.0686 -0.1704
 7018W        W23865   6.451   4.258   3.633 -0.1201  0.1514 -0.0421
 7019W        W23866  12.028  16.013  16.403  0.0552  0.0952 -0.1690
 7020W        W23867   4.862   1.480  13.655  0.2170  0.0836  0.3454
 7021W        W23868  16.658   2.983  16.113 -0.0718  0.0207  0.1164
 7022W        W23869  16.293   5.227  14.803 -0.0568 -0.3325 -0.1713
 7023W        W23870   1.448   8.520  11.603  0.0925 -0.1049  0.3580
 7024W        W23871  15.659   9.959   1.229  0.3871  0.0362  0.4397
 7025W        W23872  14.175  16.701  15.518  0.3184 -0.1011 -0.0021
 7026W        W23873  11.576   1.361  13.364 -0.4153  0.2579  0.1290
 7027W        W23874  10.640  11.914  14.978  0.2895  0.1240 -0.0113
 7028W        W23875   7.612   6.457  13.901 -0.0256  0.0325  0.0715
 7029W        W23876   3.846   3.273   3.745 -0.0944 -0.4470  0.1064
 7030W        W23877   4.340  12.471   1.863 -0.1634 -0.0617  0.2105
 7031W        W23878   7.678   2.786  11.441  0.1058 -0.1645 -0.1837
 7032W        W23879  10.027  12.781  14.065 -0.0671 -0.2569  0.1073
 7033W        W23880   1.586   0.263   1.693  0.0892  0.3187 -0.1022
 7034W        W23881  12.183   3.647   1.074  0.3091 -0.1177 -0.1804
 7035W        W23882  16.761  11.664  15.085  0.1634  0.0283  0.2630
 7036W        W23883   8.258  13.337  16.218  0.4012  0.0124 -0.0444
 7037W        W23884   6.266  16.906  13.914  0.2254 -0.0112  0.0024
 7038W        W23885  16.316   4.693  12.424  0.2763 -0.0091  0.0358
 7039W        W23886   7.414   1.104   3.858  0.2614  0.1526 -0.0105
 7040W        W23887   9.036  15.417   4.651  0.0626 -0.1169 -0.1597
 7041W        W23888   6.969  14.292  14.164 -0.0355  0.2556  0.2981
 7042W        W23889  12.310  17.935  15.294 -0.2156 -0.1334 -0.0352
 7043W        W23890   2.176   8.305   4.487  0.1646  0.0386 -0.0535
 7044W        W23891  13.098   8.058   5.871 -0.1216  0.1192 -0.0220
 7045W        W23892   7.730   7.785  16.042  0.0926  0.0132 -0.0713
 7046W        W23893  15.814   1.866  14.278  0.1403 -0.0190  0.0127
 7047W        W23894  17.012   5.750  16.356 -0.2587  0.0765 -0.0000
 7048W        W23895   3.627   9.746  13.732 -0.0020 -0.2364  0.4047
 7049W        W23896   2.215   0.630  13.648  0.0346 -0.1001  0.2077
 7050W        W23897  14.476   7.360   0.585  0.2361  0.3137 -0.1672
 7051W        W23898  15.740  11.031   4.331  0.0704 -0.0089  0.3920
 7052W        W23899   8.903   6.058   1.650  0.0491 -0.1316  0.1173
 7053W        W23900  15.754   0.469  12.442 -0.1883  0.0986  0.1936
 7054W        W23901  10.967  14.798   2.985  0.2818 -0.0133 -0.0619
 7055W        W23902  17.178  14.579  16.316 -0.3966  0.0405  0.0051
 7056W        W23903   6.248   4.771   1.638 -0.2165 -0.0206  0.1678
 7057W        W23904  17.418   6.990   2.865  0.0576  0.0156  0.3470
 7058W        W23905  16.667  14.004   0.061 -0.1118  0.1309  0.1788
 7059W        W23906   7.162   7.412  15.305 -0.1690 -0.1220 -0.4063
 7060W        W23907   6.359   0.544  13.031 -0.2625 -0.0008 -0.0916
 7061W        W23908  15.476  14.614  11.690  0.0759  0.1421  0.1355
 7062W        W23909   2.433  10.002   0.234 -0.2166 -0.0012  0.0625
 7063W        W23910  16.489   6.271   4.137  0.0389  0.2519  0.3287
 7064W        W23911  11.374   2.421  13.379 -0.2561 -0.0552 -0.2250
 7065W        W23912   6.286   7.265  10.529  0.1501 -0.1171 -0.0453
 7066W        W23913   8.669   4.138   2.822  0.2014 -0.0738 -0.2801
 7067W        W23914  13.966   6.444  15.605  0.1099 -0.2219 -0.0274
 7068W        W23915  14.945  12.017   3.020 -0.0129 -0.0351  0.0661
 7069W        W23916  11.466   5.199   4.255 -0.2240  0.0033  0.1871
 7070W        W23917   6.652   1.871  12.589  0.2115  0.0047  0.2483
 7071W        W23918   0.345   7.021   3.882 -0.2115  0.1479 -0.3560
 7072W        W23919   8.935   4.602  12.826  0.1757  0.0812 -0.1151
 7073W        W23920  12.234   5.048   2.344 -0.0048 -0.0792 -0.0582
 7074W        W23921   8.402   6.815  12.188 -0.0491 -0.2085  0.2190
 7075W        W23922  14.010  14.057  15.803 -0.0559 -0.0839  0.1062
 7076W        W23923  15.781  11.805  11.749 -0.0470 -0.0247 -0.0948
 7077W        W23924  10.260  16.159   3.747  0.1158  0.0023 -0.3111
 7078W        W23925  15.867  13.740   2.555 -0.0631  0.0107  0.0650
 7079W        W23926   5.866  11.579  13.733  0.1811 -0.0324  0.2378
 7080W        W23927   1.683   2.521   3.945 -0.0024 -0.1997  0.2233
 7081W        W23928   3.285   8.380   2.539 -0.1402  0.0035  0.2887
 7082W        W23929  11.152  10.469  11.612 -0.0839  0.1712  0.1599
 7083W        W23930   4.412   8.091   4.876  0.1958  0.2544 -0.1926
 7084W        W23931   9.285  13.800   0.964  0.1824 -0.4772  0.2588
 7085W        W23932   0.633   5.770  16.168 -0.0937  0.0417 -0.0719
 7086W        W23933   2.088  18.057  14.052  0.2128  0.3045  0.0157
 7087W        W23934   2.943  11.825  13.352  0.1362  0.0056 -0.0471
 7088W        W23935  12.023   9.631  12.572  0.2784 -0.0741  0.0895
 7089W        W23936  12.421   8.647   1.977 -0.1274  0.0167  0.2545
 7090W        W23937   0.836   6.378  14.911 -0.3782 -0.0370  0.0089
 7091W        W23938   8.708  12.723  12.106  0.2354 -0.0237 -0.1415
 7092W        W23939  11.632  16.127   2.747 -0.1392 -0.3164  0.0288
 7093W        W23940  13.816   6.024  16.474 -0.3337  0.0396 -0.0495
 7094W        W23941   3.122   6.315   2.752 -0.1647  0.0402  0.1605
 7095W        W23942   4.632   2.408   2.703  0.0419 -0.0984 -0.0760
 7096W        W23943  14.364  18.058   0.706  0.0587 -0.0643 -0.1983
 7097W        W23944   2.596  14.914   4.524  0.2123 -0.3645  0.0932
 7098W        W23945  17.763  13.672   1.597 -0.0518 -0.2661 -0.0311
 7099W        W23946  17.917  12.736  14.950 -0.1831  0.1168  0.0416
 7100W        W23947  14.561   0.733   3.685 -0.2235  0.1558 -0.1017
 7101W        W23948  17.469  17.530   5.417 -0.1078  0.1022 -0.0596
 7102W        W23949  11.365  15.300  14.389  0.4479  0.1820  0.0612
 7103W        W23950  13.979  15.733  11.568  0.0645  0.2170 -0.0054
 7104W        W23951   3.065   9.838  16.274  0.3481 -0.1722 -0.1325
 7105W        W23952  13.990   4.723   1.719 -0.5723  0.2584 -0.1552
 7106W        W23953  15.149  13.190  14.483 -0.0047 -0.3697 -0.1274
 7107W        W23954   7.245   1.100   2.680  0.0397  0.0863 -0.1412
 7108W        W23955  15.120  15.683   0.531 -0.2050 -0.2010  0.2208
 7109W        W23956   1.966  11.459   0.632 -0.0114 -0.1853  0.0224
 7110W        W23957   6.399  17.267  12.846  0.1831 -0.0917  0.1488
 7111W        W23958  14.200  14.368   4.285 -0.0679 -0.1633  0.2085
 7112W        W23959  11.087   0.485  14.053  0.3595 -0.1156 -0.1030
 7113W        W23960   8.114   4.145  13.796  0.1308  0.0519 -0.1830
 7114W        W23961   8.649  17.154   2.149 -0.0912  0.1823 -0.4618
 7115W        W23962  14.456   0.197  13.182  0.3236 -0.0404  0.2887
 7116W        W23963   0.615   9.601   4.083 -0.0124  0.1720 -0.0769
 7117W        W23964  17.191  13.917  15.702 -0.0405 -0.4055 -0.1621
 7118W        W23965  17.914   1.749   2.948 -0.3802 -0.1142 -0.2644
 7119W        W23966   0.183  15.628  15.979 -0.0935 -0.3561 -0.0766
 7120W        W23967   7.262  17.498  13.085  0.4589 -0.0747  0.2430
 7121W        W23968   7.867   1.304   5.511  0.1321  0.0860  0.0533
 7122W        W23969   5.176  17.684  13.031 -0.2294  0.2697 -0.0561
 7123W        W23970  12.501   2.768  12.883  0.1541 -0.4141 -0.1134
 7124W        W23971   9.102   5.836  15.656  0.3726 -0.0973 -0.2185
 7125W        W23972   7.024   8.211   3.496 -0.0254 -0.0521 -0.0489
 7126W        W23973  10.508  17.734  16.111 -0.2665 -0.2916  0.2027
 7127W        W23974   4.316   2.280   4.006  0.3673  0.1936  0.1202
 7128W        W23975  12.446   6.938  13.796 -0.1043  0.0956  0.2030
 7129W        W23976   2.963   1.551  13.694 -0.0702 -0.2472  0.0388
 7130W        W23977  10.181   9.693  15.589 -0.0760  0.0407 -0.2086
 7131W        W23978   0.165  11.222   4.417 -0.0161 -0.0253  0.1870
 7132W        W23979  17.027   7.210   3.737  0.0658 -0.2222 -0.1507
 7133W        W23980   9.767   1.523   4.752 -0.0769  0.0470 -0.0799
 7134W        W23981   1.701   2.004  13.546 -0.1756  0.1418  0.0584
 7135W        W23982   9.937  12.791   5.572 -0.0763 -0.0782  0.1183
 7136W        W23983   5.369  11.007   1.087 -0.3204 -0.0911  0.1176
 7137W        W23984   9.485   8.323  14.716 -0.1196 -0.0511  0.2021
 7138W        W23985  17.316   5.604   0.785  0.2682  0.0615  0.0137
 7139W        W23986  15.972   6.464   4.170 -0.0175 -0.0247 -0.1458
 7140W        W23987  15.882  14.651   1.167  0.0789  0.2209  0.0223
 7141W        W23988   4.214  10.192   5.879 -0.0080  0.2335  0.1336
 7142W        W23989  11.684   6.761   3.003  0.6138  0.1810 -0.0482
 7143W        W23990  12.093   2.748  14.470  0.0054 -0.2534  0.0833
 7144W        W23991   8.079  15.683   5.875  0.0805  0.0781 -0.2215
 7145W        W23992   5.945   7.163  12.146 -0.1231 -0.0683 -0.2583
 7146W        W23993   4.593  15.671  15.763  0.0478  0.0622  0.0747
 7147W        W23994  14.714   3.647   1.189  0.0246  0.1614  0.0529
 7148W        W23995  14.493  12.635   4.968  0.0423  0.3686  0.0782
 7149W        W23996   6.033   7.637  13.726  0.1020  0.0739  0.1314
 7150W        W23997  10.531  16.888  15.393 -0.2986  0.2725 -0.0189
 7151W        W23998   8.589   5.723   1.862 -0.1066 -0.1039  0.0748
 7152W        W23999  10.950  14.130   3.940 -0.1857 -0.1339  0.1681
 7153W        W24000   5.432  10.852   1.661 -0.0827  0.4228 -0.2221
 7154W        W24001  10.732   0.017  16.203  0.0261 -0.1423  0.2165
 7155W        W24002   3.057   0.763   3.248 -0.1500  0.2097 -0.0858
 7156W        W24003   8.529  17.800  15.843 -0.1310  0.2404 -0.2534
 7157W        W24004   1.359  13.909   1.496  0.1573  0.1724  0.1177
 7158W        W24005   2.362  12.946   3.157  0.2901 -0.0491  0.4612
 7159W        W24006   4.361  15.240   4.971  0.2137  0.0390 -0.0413
 7160W        W24007   3.175  10.525  15.715  0.0095  0.1341  0.0830
 7161W        W24008  17.388   1.214  16.568  0.0070  0.0489  0.3341
 7162W        W24009  12.851  14.974   2.658  0.1088 -0.3463  0.0017
 7163W        W24010   0.557   5.645   5.247  0.1444  0.0183  0.2409
 7164W        W24011   2.604  18.155   1.622  0.0069 -0.1188 -0.1327
 7165W        W24012   5.976   3.673  14.146  0.2818  0.1274 -0.0840
 7166W        W24013   0.374   0.478   0.220 -0.0483  0.1051 -0.1933
 7167W        W24014  17.865  18.096  12.030 -0.0829 -0.1787  0.0720
 7168W        W24015   6.975   7.163   4.836  0.0005  0.1265  0.1131
 7169W        W24016   2.178   2.552   2.256 -0.0557  0.0096  0.0349
 7170W        W24017   2.430   1.033   3.857  0.2401  0.3260 -0.2513
 7171W        W24018   8.656  11.284  14.377 -0.0536  0.4095  0.0565
 7172W        W24019  14.524  18.039  15.842 -0.0344 -0.0745  0.1362
 7173W        W24020   8.565  10.337   0.709  0.1878 -0.1521 -0.0557
 7174W        W24021  13.847  14.460  12.543 -0.2265 -0.0099  0.3578
 7175W        W24022   2.152   7.280   3.167  0.0170 -0.1545  0.2987
 7176W        W24023   0.721   3.235   5.796 -0.2615  0.0810  0.0707
 7177W        W24024  12.736   5.608   0.219 -0.0417  0.1532 -0.5448
 7178W        W24025  18.017  11.696   3.528 -0.2606 -0.0516 -0.0465
 7179W        W24026   0.640  16.839   4.179  0.0845 -0.1081 -0.1209
 7180W        W24027   6.180   6.562   3.730 -0.0728  0.1412  0.0982
 7181W        W24028  14.635   6.050   4.953  0.3507  0.0770  0.1573
 7182W        W24029   8.849  14.341   6.124 -0.2162 -0.1190 -0.4272
 7183W        W24030  12.634   7.207   3.500  0.1618 -0.0550  0.0171
 7184W        W24031  16.935  16.791   1.111  0.1173 -0.2974 -0.0701
 7185W        W24032   7.688  15.513  13.238 -0.0442  0.1309  0.1314
 7186W        W24033   1.071  15.603   3.850 -0.2850  0.2785 -0.1862
 7187W        W24034   2.106   7.677  13.788  0.0132 -0.0596 -0.2363
 7188W        W24035   0.691   6.905   0.993  0.0327 -0.0551 -0.2483
 7189W        W24036   8.635   7.381   0.409  0.3121  0.0061  0.0705
 7190W        W24037   1.872   5.701  15.788  0.2308 -0.0772 -0.1085
 7191W        W24038  10.357   4.806   3.520  0.1246 -0.0045  0.1017
 7192W        W24039  12.966  13.527   2.392  0.2344 -0.0923 -0.1165
 7193W        W24040  17.130   9.554  12.300  0.0967 -0.3178 -0.0428
 7194W        W24041  16.221  12.564   3.453 -0.0672 -0.1098  0.1519
 7195W        W24042   7.236   2.590  11.928 -0.0041 -0.2811  0.1001
 7196W        W24043   6.620   1.351  16.060  0.1114 -0.0928 -0.1921
 7197W        W24044  17.315   8.215  14.211 -0.0894 -0.1846 -0.1230
 7198W        W24045  16.388  13.752  15.373  0.1605 -0.0782  0.0411
 7199W        W24046  16.558   3.609   3.173  0.0820  0.1341  0.0488
 7200W        W24047   3.094  14.611   4.140  0.0274  0.0541  0.0062
 7201W        W24048   6.677   8.285   2.195  0.2741  0.0594  0.0630
 7202W        W24049   8.137   9.039   5.134 -0.0261 -0.0490 -0.0312
 7203W        W24050   9.494   6.966   5.289  0.0550  0.2597 -0.1987
 7204W        W24051  15.525  12.549  13.076  0.1057  0.3209 -0.0565
 7205W        W24052   0.970   4.625  13.654 -0.1270  0.2482  0.1519
 7206W        W24053   7.089   8.313  15.631  0.2351 -0.0612 -0.0500
 7207W        W24054  16.609   5.305   1.885 -0.0323  0.0298  0.1705
 7208W        W24055   2.106  11.197   2.337  0.1129  0.0590  0.0865
 7209W        W24056  12.914   4.280   4.966  0.0141 -0.0844 -0.1480
 7210W        W24057  10.807  17.477  14.622  0.1455  0.1308 -0.1287
 7211W        W24058  12.512   9.593  14.829 -0.0945 -0.1739  0.0833
 7212W        W24059  17.705   0.716   5.768  0.1397  0.1914  0.0932
 7213W        W24060   9.826  16.415  13.524 -0.0857  0.0510  0.3358
 7214W        W24061  12.668   5.310   5.027 -0.4198 -0.0820 -0.1277
 7215W        W24062   9.213   0.537  12.402  0.2186  0.1523 -0.0863
 7216W        W24063  12.350  15.030  15.139  0.1350  0.1055 -0.1229
 7217W        W24064  14.695   1.691   2.006  0.0434  0.0595 -0.1525
 7218W        W24065   2.127   4.866   0.655  0.1659 -0.0071 -0.3267
 7219W        W24066   4.493   1.929   3.619 -0.5387  0.3331 -0.0432
 7220W        W24067  13.005   1.577   3.129  0.1616 -0.1727  0.2569
 7221W        W24068   8.298   7.742  11.231  0.0671  0.2169  0.0266
 7222W        W24069  13.366  17.010  14.443 -0.1448 -0.2223  0.0096
 7223W        W24070   3.517  17.080   4.225  0.2572 -0.0654  0.0902
 7224W        W24071  12.912   0.491   1.644 -0.2195 -0.2265  0.0024
 7225W        W24072   4.740  16.927   0.839  0.1799 -0.2823 -0.0294
 7226W        W24073   2.331   7.322   2.071 -0.2728  0.1255 -0.0128
 7227W        W24074  10.633   8.607  13.645 -0.0415  0.0289 -0.1467
 7228W        W24075   2.689  13.610  12.499 -0.1474  0.1956 -0.2165
 7229W        W24076  16.475  15.437  12.184 -0.1296  0.0589 -0.0766
 7230W        W24077   3.129  17.491   0.502 -0.0458 -0.0140 -0.0246
 7231W        W24078   3.319   1.320   6.098 -0.1028 -0.2288 -0.0087
 7232W        W24079   1.668  16.382   3.280  0.0060 -0.1410  0.1644
 7233W        W24080   8.299  11.979   1.621  0.0114 -0.0506 -0.1758
 7234W        W24081   6.698   9.503   2.919 -0.4356  0.2392 -0.4589
 7235W        W24082   7.378   0.678  11.794  0.1543 -0.2587  0.1490
 7236W        W24083   3.195  14.198   1.138  0.0393  0.3506  0.0583
 7237W        W24084   7.937  14.998   3.620  0.0480  0.3028  0.0684
 7238W        W24085  11.022   9.910   4.969  0.0681 -0.0080  0.1312
 7239W        W24086   3.336   8.520   0.842  0.3552 -0.2171 -0.0906
 7240W        W24087   2.940   1.280  15.746 -0.1768 -0.2528 -0.3912
 7241W        W24088  17.024  16.971  12.477  0.0914 -0.1011 -0.2047
 7242W        W24089  16.141  16.031   4.932 -0.0029  0.0428 -0.2599
 7243W        W24090  16.754  16.450   3.465  0.1555  0.0865  0.0417
 7244W        W24091   9.625   3.777  16.494 -0.0732 -0.0335  0.1208
 7245W        W24092  18.010  11.461   4.690 -0.0170 -0.3279 -0.0491
 7246W        W24093  15.287   7.682   4.131 -0.0912 -0.0613 -0.0943
 7247W        W24094   5.854   9.817  15.267 -0.1628 -0.1594 -0.4042
 7248W        W24095   1.450   6.122   4.021 -0.0743 -0.1321 -0.1958
 7249W        W24096  13.579  14.224  15.548  0.1340  0.0357 -0.2262
 7250W        W24097   6.193   6.369  15.945  0.0362 -0.1700  0.3270
 7251W        W24098  14.457   2.953  11.599  0.0771  0.5081  0.1386
 7252W        W24099   6.929  15.869   3.316 -0.0035  0.0060  0.2864
 7253W        W24100   3.817   4.518   0.543  0.0402  0.0862  0.2066
 7254W        W24101  14.952   5.514   2.366  0.1832 -0.0495 -0.1371
 7255W        W24102   9.222  17.775   1.036 -0.1951 -0.0292 -0.2431
 7256W        W24103  11.977  11.259  10.803 -0.1297  0.2171 -0.1708
 7257W        W24104   5.827   3.918  15.428 -0.1513 -0.1107 -0.2228
 7258W        W24105  10.319   4.351   0.301  0.0447 -0.4032 -0.0378
 7259W        W24106   0.411  16.207   0.516 -0.1438  0.0878  0.0695
 7260W        W24107  13.740   2.479  16.027 -0.1113 -0.0378 -0.1187
 7261W        W24108  17.263   7.523  13.669 -0.2162  0.0927  0.0607
 7262W        W24109  17.315   1.751  13.744  0.1979  0.1406  0.1058
 7263W        W24110   6.119  13.140   4.726  0.0388  0.0503  0.1884
 7264W        W24111  12.084   4.881   0.636 -0.0598 -0.0112 -0.2240
 7265W        W24112  15.889  12.111   0.295  0.0362 -0.1500  0.1232
 7266W        W24113   9.001  18.152   5.827 -0.1155  0.0413  0.2931
 7267W        W24114  13.704  15.332   3.713 -0.1573 -0.0903  0.0318
 7268W        W24115   7.780   1.053  12.234 -0.1209  0.2122  0.1732
 7269W        W24116   2.492   0.854  13.323  0.1324 -0.0883 -0.1923
 7270W        W24117  16.419  14.341   4.814  0.1753 -0.1172 -0.0839
 7271W        W24118  12.468  15.585   4.037 -0.1259 -0.1685  0.1107
 7272W        W24119  16.778   1.218   4.654  0.2512 -0.0204  0.1169
 7273W        W24120   8.542   1.703   4.345 -0.0011  0.1317  0.0133
 7274W        W24121   3.557  15.283  12.237  0.2022  0.1861 -0.0371
 7275W        W24122   6.676   0.496   5.284  0.1506  0.2052  0.2172
 7276W        W24123  11.222  14.197  12.255  0.2622  0.0892 -0.0710
 7277W        W24124   4.006   1.979   1.000  0.2055 -0.2444 -0.0364
 7278W        W24125  11.636  10.291  16.372 -0.1287  0.0024  0.1326
 7279W        W24126   2.710  16.599  14.282  0.0040  0.2269  0.1641
 7280W        W24127   9.403   9.585   4.717 -0.1291  0.0731  0.3198
 7281W        W24128  15.194   4.503  16.164  0.0531  0.1350 -0.3066
 7282W        W24129  13.164   3.421  11.191 -0.1489  0.1104  0.1227
 7283W        W24130  15.675   1.238  15.541 -0.3059  0.0626  0.2303
 7284W        W24131  12.223   1.341   5.623  0.0511 -0.0094  0.1772
 7285W        W24132   9.532   3.962  13.396  0.3811  0.0620  0.0476
 7286W        W24133   7.078   2.907  12.543 -0.2507 -0.5590 -0.0890
 7287W        W24134  10.925  17.605   1.612  0.0381  0.0055 -0.0423
 7288W        W24135   2.850   2.030   2.588 -0.4679  0.4021  0.0712
 7289W        W24136   2.525  18.103   2.528  0.1547 -0.0497  0.0392
 7290W        W24137   8.274  18.146   2.743  0.0675 -0.5498 -0.3957
 7291W        W24138  17.172   6.653   1.203  0.1946  0.3316  0.2393
 7292W        W24139  16.486  10.529   1.991 -0.1476 -0.2643  0.0342
 7293W        W24140   2.300   6.405  15.282 -0.0579  0.3015 -0.0776
 7294W        W24141   5.384   4.769   1.771 -0.0515 -0.0871 -0.2208
 7295W        W24142   9.982  13.825   3.486 -0.0279 -0.3287  0.0230
 7296W        W24143   1.836  14.913   0.907  0.1733  0.2681  0.0318
 7297W        W24144  14.709  15.191   0.492  0.0130 -0.0409 -0.0012
 7298W        W24145  14.678   1.209   3.912 -0.1372  0.0748  0.1006
 7299W        W24146   3.188  18.091  15.169 -0.1310 -0.0228 -0.0432
 7300W        W24147   1.358   0.046   5.304  0.3654 -0.0411 -0.4253
 7301W        W24148  16.624  16.124  15.767 -0.1054 -0.3398 -0.0191
 7302W        W24149   7.567   0.300  12.875 -0.2484  0.1529 -0.1982
 7303W        W24150   8.775   0.351  13.031  0.1745 -0.0268  0.0205
 7304W        W24151   1.623   1.675  14.367 -0.3984  0.1006  0.0215
 7305W        W24152  17.432  16.516  15.777  0.2349  0.0303 -0.2801
 7306W        W24153   7.497   8.253  14.157  0.0752 -0.2150 -0.0039
 7307W        W24154  12.265   5.838   4.133  0.2069  0.0405 -0.0670
 7308W        W24155   4.706  13.376   5.455  0.3463 -0.1821 -0.0441
 7309W        W24156  13.359   8.193  14.702 -0.0948 -0.1491 -0.0753
 7310W        W24157  18.088  14.859   2.879 -0.0364  0.2609  0.0618
 7311W        W24158   5.749   1.008   0.697  0.0467  0.0174  0.0437
 7312W        W24159  11.922  12.568   2.388  0.1260 -0.1460  0.2450
 7313W        W24160   7.016  14.124   0.227  0.1154  0.3932  0.1489
 7314W        W24161  13.287   9.582  13.771  0.0984 -0.0214  0.3723
 7315W        W24162   4.061  13.633  15.992 -0.2624 -0.2874  0.1386
 7316W        W24163  15.947  14.889   4.904  0.0261  0.0547 -0.1313
 7317W        W24164  11.672   0.779  14.517 -0.1581  0.2290  0.0463
 7318W        W24165   9.732  10.424  14.913  0.1513 -0.0878  0.0812
 7319W        W24166  13.430   9.109   0.397  0.1850 -0.0479 -0.0437
 7320W        W24167  17.778  11.613  16.494  0.1520 -0.0026  0.2104
 7321W        W24168  15.814  12.226   3.455  0.0421  0.1362  0.3572
 7322W        W24169   6.736   3.829   4.935  0.0969 -0.2765  0.0783
 7323W        W24170   1.733   5.275   1.436 -0.0550 -0.0225 -0.0402
 7324W        W24171  14.285   5.507  14.955 -0.0517  0.1075 -0.0366
 7325W        W24172  17.222  11.487   2.612 -0.0509 -0.2206  0.2421
 7326W        W24173   6.914  13.067   5.075  0.1072  0.2489 -0.1180
 7327W        W24174   6.820   6.694   1.059  0.0432 -0.1259 -0.1630
 7328W        W24175   3.789  11.081  12.511 -0.1799  0.0186 -0.0367
 7329W        W24176  14.955   3.326  13.325 -0.0473  0.1335  0.1330
 7330W        W24177   8.195  11.450   2.022 -0.2519  0.0539 -0.0074
 7331W        W24178   2.506  12.664   1.837  0.1212  0.1378  0.3211
 7332W        W24179   1.521  13.296   0.611  0.2806  0.0016  0.0688
 7333W        W24180  10.435   3.822   4.445  0.1159  0.1155  0.1885
 7334W        W24181   1.027  14.725   1.489 -0.2494  0.4122  0.1672
 7335W        W24182  14.637  12.590   0.285  0.0765 -0.0644 -0.1968
 7336W        W24183   9.622   0.319  16.595  0.0437 -0.1340 -0.2757
 7337W        W24184   4.962  12.015   5.348 -0.0198  0.2291  0.3165
 7338W        W24185   7.188  16.454   5.935  0.1124 -0.2235  0.0067
 7339W        W24186   2.516   1.452   3.027 -0.0469  0.3765  0.0578
 7340W        W24187   5.516   1.013  12.745  0.0497 -0.1518 -0.0272
 7341W        W24188  17.408   7.989   0.678  0.0174 -0.2232 -0.4009
 7342W        W24189   4.191   6.958   3.527  0.0188  0.0001  0.0122
 7343W        W24190  16.948   8.904  16.504 -0.2157 -0.0251  0.1751
 7344W        W24191  16.368   5.868   5.425  0.0675 -0.0934 -0.2299
 7345W        W24192  16.190   0.168  13.004 -0.1120 -0.0255 -0.0664
 7346W        W24193   8.599   2.730  13.690 -0.1437 -0.2070 -0.0682
 7347W        W24194  10.529  10.943  14.134 -0.1490 -0.0168 -0.0264
 7348W        W24195  16.555  15.416  11.673 -0.1508  0.0383 -0.2013
 7349W        W24196  10.895   0.095   0.376  0.1371 -0.0809 -0.2633
 7350W        W24197   3.371   4.196  16.019 -0.0837  0.0128 -0.1438
 7351W        W24198  15.124   6.483  12.850  0.0668  0.0749 -0.2351
 7352W        W24199  16.438   9.584   2.645  0.0221  0.0689  0.5032
 7353W        W24200   1.654   4.814   4.540  0.1147 -0.0142  0.0968
 7354W        W24201   0.805  13.087  13.340 -0.1238  0.1845  0.2245
 7355W        W24202  13.140   6.414   1.014  0.0150  0.0152  0.1651
 7356W        W24203   5.692   8.000   4.786 -0.0979  0.2584 -0.1897
 7357W        W24204   2.369  18.000   1.137  0.2669  0.2141  0.2023
 7358W        W24205  10.622  12.684  12.752 -0.2262  0.3642 -0.0197
 7359W        W24206   7.154  12.113   0.001 -0.0081  0.0068 -0.1765
 7360W        W24207  16.541   1.449   2.364  0.0371 -0.1506 -0.1438
 7361W        W24208   5.561   2.337   5.309  0.2171 -0.0702  0.1710
 7362W        W24209  17.254   0.498  13.796 -0.1212  0.1407  0.0270
 7363W        W24210   9.193   5.483   3.762 -0.3144  0.1734  0.1773
 7364W        W24211  11.732  16.808  12.459  0.1485  0.1566 -0.0815
 7365W        W24212   5.138  12.120  11.994  0.2307 -0.0697 -0.1648
 7366W        W24213   8.505   7.078  15.405  0.0314  0.0884 -0.0421
 7367W        W24214   4.234   2.443  13.672  0.0520  0.1215  0.1456
 7368W        W24215   4.981   8.911   3.835  0.0841 -0.0905  0.4353
 7369W        W24216  14.824  13.928  13.337  0.0477  0.1730 -0.3096
 7370W        W24217  12.612  16.206  13.844  0.4558  0.1585 -0.1581
 7371W        W24218  14.372  17.166  12.454 -0.0076  0.3416  0.0986
 7372W        W24219   6.187  15.034   1.242 -0.0473  0.2364 -0.0636
 7373W        W24220   9.342   8.919  16.092  0.0491  0.4997  0.2127
 7374W        W24221   8.450   0.067   1.508 -0.2909 -0.0842 -0.3029
 7375W        W24222  14.110  18.176  13.549  0.1196  0.0526  0.0552
 7376W        W24223  12.000   5.886   3.169  0.0110 -0.1831  0.2406
 7377W        W24224   3.186   8.915  12.491  0.0505 -0.2715  0.2599
 7378W        W24225  16.772  17.929   5.635 -0.2710 -0.0817 -0.1007
 7379W        W24226  11.750   1.228  12.504  0.1630 -0.1833  0.2883
 7380W        W24227   3.768   0.810  16.223  0.0275  0.1747  0.0385
 7381W        W24228   9.733  11.646  11.813  0.0470 -0.2510 -0.2700
 7382W        W24229   0.549   3.186   1.389 -0.0100 -0.1539 -0.0018
 7383W        W24230   5.472   4.619   4.705 -0.1725  0.0487 -0.1749
 7384W        W24231   2.104   4.290   0.842 -0.1873  0.1695  0.1539
 7385W        W24232   4.083  10.654  12.789 -0.1868 -0.0837  0.1050
 7386W        W24233   9.640   3.512  13.071 -0.2775  0.0924 -0.1761
 7387W        W24234  17.980   0.205   2.025  0.1689  0.3133 -0.3397
 7388W        W24235   3.346   2.078  16.418  0.1881  0.0515 -0.1253
 7389W        W24236   2.357   6.813   2.918 -0.1082  0.0271 -0.1372
 7390W        W24237   9.978  16.802   0.380 -0.3268 -0.0748 -0.0356
 7391W        W24238  12.704  13.398  13.308  0.2244  0.1670 -0.0011
 7392W        W24239   7.336   6.411   5.030  0.0831 -0.5130  0.1019
 7393W        W24240   2.964   9.483   4.429 -0.4571  0.0494  0.2370
 7394W        W24241   5.578  16.322  13.391  0.1977  0.0035 -0.2948
 7395W        W24242   5.956  10.415   3.615 -0.1100 -0.0916 -0.0047
 7396W        W24243   6.608   6.592  13.068 -0.0268 -0.4362 -0.1388
 7397W        W24244   9.331   2.227  12.068  0.0146  0.0474 -0.0440
 7398W        W24245  12.692  11.116  11.404 -0.0549 -0.0417 -0.1297
 7399W        W24246   4.117  18.135  14.780 -0.2221  0.1678  0.1903
 7400W        W24247   6.330  12.815   1.780  0.1886  0.2756 -0.0345
 7401W        W24248  16.410  17.011   0.983  0.1958 -0.2003 -0.1747
 7402W        W24249   8.153   3.166   1.039 -0.1032 -0.0069  0.1277
 7403W        W24250  10.287   8.978   1.372 -0.2219 -0.1184 -0.2844
 7404W        W24251  16.902   8.571   1.362 -0.0175  0.1993 -0.2890
 7405W        W24252   7.771   2.555  13.349 -0.0895  0.0336  0.2328
 7406W        W24253   8.892  17.106   4.985  0.1506  0.4732  0.1455
 7407W        W24254   2.277  13.525   0.318 -0.3816  0.1440 -0.0037
 7408W        W24255  14.421   9.449   2.611  0.1127  0.2490 -0.1260
 7409W        W24256  14.603   2.299   2.469  0.1002 -0.2925 -0.2939
 7410W        W24257  13.720  11.709  12.583 -0.0307  0.1311 -0.1356
 7411W        W24258   8.045   9.513   3.472 -0.1535 -0.1788 -0.0102
 7412W        W24259   3.456  16.282   4.300 -0.1867  0.0344  0.1075
 7413W        W24260  11.760   6.889   0.904  0.0429 -0.2551 -0.3313
 7414W        W24261   8.860  15.274   3.955  0.0098  0.0957  0.1407
 7415W        W24262  17.081  14.281   3.494  0.0119  0.1561 -0.0495
 7416W        W24263   6.604  11.554  15.327 -0.2461  0.4609  0.2173
 7417W        W24264   5.485  12.596  12.229  0.3059  0.0209 -0.0905
 7418W        W24265   8.520   6.142  12.720  0.1311 -0.2013  0.3661
 7419W        W24266  15.684   4.134   3.347  0.1111 -0.0589 -0.0896
 7420W        W24267   1.125   8.859  13.170 -0.1904  0.2141 -0.1667
 7421W        W24268   4.204   0.067  11.832 -0.1646  0.0764  0.2336
 7422W        W24269   5.314   4.852   2.902 -0.1769 -0.0394 -0.2083
 7423W        W24270  11.419   3.202   3.274  0.3279 -0.1299 -0.2019
 7424W        W24271  14.146  17.660   3.102 -0.0848  0.0961  0.1078
 7425W        W24272   3.265  14.255  12.005 -0.0891  0.1228 -0.2451
 7426W        W24273   1.447   5.996   5.307  0.2837  0.0005 -0.1728
 7427W        W24274   6.823   3.306   4.812  0.0622  0.0657 -0.2106
 7428W        W24275   1.211   7.955  12.857 -0.1918 -0.2024  0.7595
 7429W        W24276   7.382   9.572   1.476  0.1398  0.1732 -0.2010
 7430W        W24277  15.104  10.424   1.539 -0.0999  0.2657 -0.1355
 7431W        W24278   3.633  11.678   0.057  0.1714  0.1128  0.0219
 7432W        W24279   5.899   2.421   3.209  0.1581 -0.2340  0.0672
 7433W        W24280   2.287  16.837  14.388  0.3350 -0.0130 -0.2181
 7434W        W24281  12.145   7.112   3.260 -0.1291 -0.3997 -0.2038
 7435W        W24282   1.853   7.135   5.007  0.2690  0.2865 -0.1372
 7436W        W24283  12.799  10.975   5.596 -0.0028 -0.2337  0.1575
 7437W        W24284  10.106   7.673  11.150  0.0171 -0.0309  0.0868
 7438W        W24285   1.812  12.644  16.089 -0.1745  0.1950 -0.0802
 7439W        W24286  15.518  10.970   0.690 -0.0260 -0.0604  0.1211
 7440W        W24287  17.991   7.120  11.216  0.2587 -0.2662  0.3005
 7441W        W24288  10.360   3.580  14.640 -0.1784 -0.0373  0.0689
 7442W        W24289   9.252  10.949  15.700 -0.4116 -0.0989  0.0690
 7443W        W24290  16.520   5.392  12.003  0.0693 -0.0935 -0.1677
 7444W        W24291   2.788  14.596   3.141 -0.3763 -0.1074 -0.0815
 7445W        W24292  11.025   6.371  12.736  0.2191 -0.0704 -0.5127
 7446W        W24293   5.941  13.453  15.316  0.1109  0.1976 -0.1344
 7447W        W24294   1.475  14.443   1.972 -0.1889 -0.0892 -0.1678
 7448W        W24295   3.727  17.848   5.890  0.0568  0.0466 -0.5209
 7449W        W24296   9.175   0.331   2.079  0.2118  0.0240 -0.2033
 7450W        W24297   4.067   0.503  11.309 -0.2503 -0.0781 -0.0671
 7451W        W24298   0.737   9.233   2.623 -0.1735  0.2406  0.1891
 7452W        W24299   7.352   0.252  11.522  0.1405  0.0238  0.1446
 7453W        W24300  15.073   8.237   5.234  0.1037 -0.0059  0.0091
 7454W        W24301  13.137  10.955   3.022 -0.0768  0.1541 -0.0238
 7455W        W24302   5.938  13.087  10.970 -0.2396  0.3805 -0.0530
 7456W        W24303   9.422   8.627   2.488  0.0203  0.3170 -0.0769
 7457W        W24304  15.958   5.112  15.589  0.0177 -0.1365 -0.1518
 7458W        W24305  12.698   3.706   0.204 -0.2200  0.2192 -0.0361
 7459W        W24306   9.740  11.560  14.030 -0.1627  0.1114 -0.0948
 7460W        W24307   7.678   0.869   5.824 -0.0513 -0.1200 -0.0224
 7461W        W24308  16.708  13.266   4.783  0.0020 -0.1077 -0.3428
 7462W        W24309   6.105   9.490  11.985  0.0136  0.0085 -0.3417
 7463W        W24310   1.150  16.214   5.572  0.2511 -0.2267  0.1049
 7464W        W24311   8.508   1.903  16.239 -0.1968 -0.0727  0.0652
 7465W        W24312  14.657   1.285  16.119  0.2020 -0.1299  0.3440
 7466W        W24313   3.855  11.249   1.932  0.1294 -0.0168 -0.0448
 7467W        W24314   9.230   9.325   2.584  0.1381  0.2323  0.1464
 7468W        W24315  17.035   2.368   1.135 -0.2038  0.1780  0.0371
 7469W        W24316   3.496   5.619  13.221 -0.0817  0.0832 -0.4141
 7470W        W24317  13.311   3.693   1.488  0.0603 -0.0284  0.3892
 7471W        W24318   8.564   8.886   4.274  0.0332  0.0485  0.1705
 7472W        W24319  15.427   7.156  15.041 -0.2091  0.2246  0.1036
 7473W        W24320  12.609   8.972  11.681  0.1564 -0.0588  0.1524
 7474W        W24321  12.271   9.248  16.183  0.0760  0.1622 -0.2767
 7475W        W24322   2.887  13.604   5.798  0.1949  0.1214 -0.4520
 7476W        W24323  10.886   8.569  16.190 -0.1071  0.1276  0.1768
 7477W        W24324   8.123   0.124  13.686  0.3238  0.3008 -0.0667
 7478W        W24325  12.237   8.710  16.170  0.5958  0.2056 -0.0197
 7479W        W24326   2.655   0.687  12.338 -0.1190  0.2540  0.0861
 7480W        W24327   7.395   3.251   4.141  0.4582 -0.0338  0.0663
 7481W        W24328  17.755  12.291   2.678  0.1618  0.1505  0.1070
 7482W        W24329   4.409  13.740   2.599 -0.1808  0.2760 -0.0345
 7483W        W24330   9.895  17.719   3.677 -0.2234  0.1055 -0.0727
 7484W        W24331  12.235   4.594   1.079 -0.0050 -0.1421  0.0223
 7485W        W24332   1.923  17.301  13.486  0.3804  0.1092  0.1090
 7486W        W24333   4.718  16.912   1.799 -0.0633  0.2883  0.1773
 7487W        W24334   6.741  10.858   1.044 -0.1425  0.2756  0.1073
 7488W        W24335   6.957   8.120   1.385  0.0813 -0.0392 -0.4053
 7489W        W24336   6.101   9.451   4.328  0.1803 -0.1045 -0.1285
 7490W        W24337   4.615  16.260  14.487 -0.0412 -0.0810  0.0283
 7491W        W24338  17.655   2.351  13.846  0.0159  0.1061  0.2134
 7492W        W24339   3.801   0.529   1.710  0.1835 -0.2495  0.2034
 7493W        W24340   3.059   3.547   1.454  0.1050  0.1028 -0.4746
 7494W        W24341   4.822  16.126  15.948  0.1988  0.0232 -0.0241
 7495W        W24342  11.321  13.093   1.482  0.1259 -0.1982 -0.1323
 7496W        W24343   1.696   2.725   1.513  0.0537  0.0847 -0.0494
 7497W        W24344  12.350  12.519  13.466 -0.1845 -0.1117 -0.0324
 7498W        W24345   1.992   0.413   4.607 -0.2022  0.0968 -0.2802
 7499W        W24346  17.787   3.955   4.632  0.0107  0.1654  0.2239
 7500W        W24347   3.518   4.154   0.759 -0.3469  0.0237  0.0206
 7501W        W24348   9.220  14.233  12.179 -0.1604  0.3835  0.0928
 7502W        W24349   7.489   6.590  15.237 -0.0095 -0.1790  0.1109
 7503W        W24350   4.889  13.941  14.806  0.6917  0.2175 -0.0336
 7504W        W24351   1.842  10.773  12.024 -0.2853 -0.0355 -0.1116
 7505W        W24352   8.852  14.373  12.815  0.1770 -0.0857 -0.0298
 7506W        W24353   7.264   1.783  14.336 -0.1354 -0.2608  0.1531
 7507W        W24354   1.938   3.331   2.137 -0.3092 -0.3792  0.0047
 7508W        W24355   9.542   4.382  12.611 -0.0064  0.5060 -0.0459
 7509W        W24356   8.697  16.303   1.677  0.0350  0.2472 -0.3181
 7510W        W24357   6.970   9.962   2.217 -0.0721  0.1101  0.4150
 7511W        W24358   0.492   5.134  14.948  0.0521 -0.2309  0.2284
 7512W        W24359  10.406   5.879  15.988  0.0383 -0.0423 -0.2033
 7513W        W24360  17.518  14.565  13.183 -0.2017  0.2187  0.1366
 7514W        W24361  13.984   4.321  16.615  0.1890  0.1027  0.2975
 7515W        W24362   2.226   8.560  15.866 -0.2194 -0.1982  0.3656
 7516W        W24363  16.955   1.726  14.364 -0.3895  0.0979  0.0377
 7517W        W24364   7.255   4.496   3.920 -0.0373 -0.1021 -0.0490
 7518W        W24365   4.409  11.651  14.222  0.0684 -0.0634  0.0729
 7519W        W24366   1.469   4.859  11.170  0.3264  0.4438  0.2973
 7520W        W24367  11.557   9.685   5.651 -0.0979 -0.0085  0.0237
 7521W        W24368  15.319  13.013   4.625  0.0896  0.1146 -0.1932
 7522W        W24369   2.885  11.277   1.322  0.0388  0.2256  0.0393
 7523W        W24370  14.534   4.281   2.662 -0.0429  0.0839 -0.3924
 7524W        W24371  11.668  16.338   0.191  0.0870 -0.0248  0.1450
 7525W        W24372  17.724  15.210   4.408  0.0323 -0.1924 -0.0624
 7526W        W24373   2.621   8.368   1.647  0.0104 -0.0022  0.0658
 7527W        W24374  10.813   9.510   2.385  0.1158 -0.0096  0.0399
 7528W        W24375   0.632  14.991   6.084  0.1690  0.2265  0.0600
 7529W        W24376   5.427  11.896  13.932  0.1860  0.1965  0.1190
 7530W        W24377   2.067  11.735  12.615 -0.0540  0.0628 -0.0518
 7531W        W24378  17.685  16.817   3.246 -0.1234 -0.2093  0.1649
 7532W        W24379  10.469  17.391   6.192  0.1432  0.2129 -0.1361
 7533W        W24380   3.413  11.812   2.109 -0.0485 -0.1818  0.1539
 7534W        W24381   3.585   8.864   4.010 -0.3100  0.2455 -0.0970
 7535W        W24382   0.665  16.148   5.408  0.0428  0.3913 -0.1632
 7536W        W24383  14.513   9.216   5.317 -0.0923  0.0907 -0.1827
 7537W        W24384   3.023  11.822   4.967 -0.1727 -0.0866 -0.3463
 7538W        W24385   9.336   3.569   4.942 -0.4006  0.1804  0.1711
 7539W        W24386  10.685  12.341   3.004 -0.1442 -0.0668  0.0963
 7540W        W24387   1.737  10.025   3.194 -0.0820 -0.2865 -0.1311
 7541W        W24388  11.895  12.502   1.350  0.1933 -0.1672 -0.0654
 7542W        W24389  14.349  12.501   2.885 -0.1866  0.2173 -0.0261
 7543W        W24390   1.724  14.776   5.335  0.0973 -0.2806  0.1683
 7544W        W24391   2.904   0.366  15.011  0.0746 -0.1351  0.0561
 7545W        W24392  10.381  13.193   2.941 -0.1913  0.1019 -0.2525
 7546W        W24393   2.541   3.240  14.510 -0.1665  0.1243  0.2696
 7547W        W24394  16.236   6.530  11.485  0.0809 -0.0573  0.0633
 7548W        W24395   4.195   5.467   4.691  0.0871 -0.0473  0.0523
 7549W        W24396   2.623   3.627  14.218 -0.2817 -0.2950  0.2921
 7550W        W24397   8.622  14.253  11.784 -0.0822  0.2572 -0.0775
 7551W        W24398   0.769   0.263   0.497  0.2332 -0.0191  0.1356
 7552W        W24399   5.300  11.367   1.473  0.0431 -0.2528  0.1561
 7553W        W24400   2.355   1.939   4.993  0.1285 -0.0704  0.0766
 7554W        W24401  10.343  15.318   1.374  0.2055  0.0094  0.1822
 7555W        W24402  11.453  10.261   3.653  0.1682  0.4019  0.0410
 7556W        W24403   4.813   8.367   3.654 -0.0283 -0.1437  0.1888
 7557W        W24404  13.980  17.083  16.553 -0.0234  0.0787 -0.3019
 7558W        W24405   9.438  18.013   2.939  0.3199  0.1453  0.2811
 7559W        W24406   7.762  10.918   0.944 -0.2177  0.5554  0.1357
 7560W        W24407   7.098  13.840   1.199  0.0702  0.1591 -0.0913
 7561W        W24408  17.703   1.219   5.061  0.0207 -0.1973 -0.0624
 7562W        W24409   9.233  17.939  12.004  0.1944 -0.0757 -0.1995
 7563W        W24410   7.460   6.561   2.652 -0.0302  0.0575  0.2912
 7564W        W24411  13.299   7.284  13.889 -0.0542 -0.4796 -0.1132
 7565W        W24412  17.868   9.597   3.381  0.1184 -0.2837 -0.2202
 7566W        W24413   4.751   3.091   4.394  0.2036  0.0987 -0.0589
 7567W        W24414   3.778   9.345  16.406  0.1315  0.2404  0.0681
 7568W        W24415  16.267   6.671  12.611  0.0277 -0.1971  0.1095
 7569W        W24416  15.998   6.114  13.192  0.0030  0.1528 -0.1713
 7570W        W24417  16.756  16.030   3.139  0.0658  0.0521  0.1619
 7571W        W24418   8.562   3.200  11.690  0.1403  0.3598  0.1689
 7572W        W24419   5.400  10.272   4.499  0.0244 -0.0683 -0.0670
 7573W        W24420   4.826  11.480   3.903  0.0308 -0.1299 -0.2728
 7574W        W24421   3.022   8.459   2.153 -0.2081  0.2560 -0.2185
 7575W        W24422   1.079  11.165   4.568  0.0101  0.2244  0.1709
 7576W        W24423  15.116   2.017  14.091  0.0328 -0.0841 -0.1011
 7577W        W24424  11.816  10.131   5.382  0.2885 -0.0435  0.1890
 7578W        W24425  13.935   9.361   2.538  0.0583 -0.1014 -0.3493
 7579W        W24426   2.064  13.708  14.351  0.0958  0.2122  0.0768
 7580W        W24427   2.503  17.749  12.659 -0.1430 -0.0185 -0.3063
 7581W        W24428   6.407   0.613  15.334 -0.2859  0.1349  0.2269
 7582W        W24429  16.625   0.705  12.744 -0.2470  0.2722  0.1350
 7583W        W24430  14.628   2.977   0.023 -0.2119  0.3157  0.0806
 7584W        W24431   0.960   8.768   2.690 -0.0301 -0.0739  0.1565
 7585W        W24432  16.223   0.455  16.457 -0.1655  0.0124 -0.1594
 7586W        W24433  14.304  12.321  12.950 -0.1894 -0.1536  0.0154
 7587W        W24434   5.432   7.431  13.013 -0.4333  0.2315  0.1066
 7588W        W24435   4.360  17.024  13.738 -0.0155 -0.1534 -0.5547
 7589W        W24436   6.462   6.404   5.164 -0.0154  0.0224  0.1612
 7590W        W24437   7.757  15.261  12.736 -0.2789 -0.2439  0.1804
 7591W        W24438   4.333   1.859  15.623 -0.0417 -0.1605 -0.0040
 7592W        W24439  16.039  18.112  13.871 -0.3673  0.2293  0.0362
 7593W        W24440   7.767   2.518   5.230 -0.2102 -0.2465 -0.4990
 7594W        W24441  10.760  16.816  12.081  0.0867  0.0663 -0.1397
 7595W        W24442   3.068   9.584   1.044 -0.3384 -0.0054 -0.1089
 7596W        W24443  11.205  18.155  16.012 -0.0973  0.3604  0.0181
 7597W        W24444  11.632   9.711   4.367 -0.4523  0.0190 -0.1253
 7598W        W24445  18.051  13.149   5.192  0.0827  0.1882 -0.0975
 7599W        W24446   4.966   4.406   4.656  0.0277  0.0895 -0.1334
 7600W        W24447   1.565  12.556  15.594 -0.2156  0.1660 -0.1352
 7601W        W24448  16.722   6.391   3.642 -0.0327 -0.2385  0.3427
 7602W        W24449  10.165  17.165   2.357 -0.0645 -0.0961  0.3197
 7603W        W24450  14.788   0.860   1.462 -0.2568 -0.0366 -0.1577
 7604W        W24451  15.160   7.457  14.783 -0.1918 -0.0356  0.0733
 7605W        W24452  10.618  15.805  11.420 -0.0526  0.0368 -0.2487
 7606W        W24453  17.250  17.502   2.953  0.1098 -0.1521  0.2175
 7607W        W24454  15.210   0.911   0.403  0.0712 -0.1341 -0.0813
 7608W        W24455   3.931   9.578  13.282  0.1358  0.0247  0.2162
 7609W        W24456   8.724   4.619  15.407  0.0636 -0.3012  0.2269
 7610W        W24457  16.119   3.021  10.717  0.0909  0.2701 -0.1193
 7611W        W24458   5.924   3.126   3.774  0.0104 -0.0814 -0.2122
 7612W        W24459   9.593  10.220   5.391  0.0808  0.1286 -0.1514
 7613W        W24460  16.714   7.075  11.330  0.0204  0.0217  0.1749
 7614W        W24461  13.124   6.188  15.819  0.2895 -0.3393 -0.1257
 7615W        W24462   5.877   3.410   1.620 -0.2236 -0.0925  0.1092
 7616W        W24463  12.313  17.448   5.075 -0.0164  0.1964  0.3794
 7617W        W24464   1.199   3.005  11.689  0.1321 -0.2495 -0.1464
 7618W        W24465   6.694  12.037   3.503  0.1514 -0.0795 -0.2011
 7619W        W24466  10.510  12.844   0.075  0.1158 -0.3487 -0.2794
 7620W        W24467   2.084  10.151   1.372 -0.4220  0.0250 -0.1364
 7621W        W24468  14.929   1.375   1.342  0.1234 -0.0755  0.0512
 7622W        W24469   9.176   6.481   3.627 -0.1676 -0.1548 -0.0063
 7623W        W24470   3.427   2.744   4.872  0.0338 -0.1857  0.0488
 7624W        W24471   7.849  17.882   1.324  0.0375  0.0765 -0.0802
 7625W        W24472   5.637   4.648   0.724  0.1066 -0.1587  0.0195
 7626W        W24473  16.752  14.727  14.004  0.3711  0.1075 -0.1566
 7627W        W24474   9.322   2.834   0.018  0.1663 -0.2017  0.2529
 7628W        W24475   9.819   5.324  14.972 -0.1607  0.0991  0.0764
 7629W        W24476  10.777  13.400   3.205  0.0852 -0.1634  0.2593
 7630W        W24477  13.367   1.220   3.300 -0.1849 -0.0539  0.0782
 7631W        W24478  15.084   4.285   4.199 -0.0170 -0.0653  0.0837
 7632W        W24479  10.061   7.135   4.003  0.3256 -0.1604 -0.0016
 7633W        W24480   7.363   1.367  15.699  0.4800 -0.1459 -0.0959
 7634W        W24481   8.585  15.893   6.108 -0.2197 -0.3091 -0.1807
 7635W        W24482   1.345   3.484  13.296 -0.0039  0.2310 -0.1519
 7636W        W24483  11.217   0.482  11.784 -0.0945  0.0183  0.1911
 7637W        W24484  12.928   6.796  11.434 -0.0605 -0.0142  0.2312
 7638W        W24485  14.700   3.858   3.410  0.0394  0.2036 -0.2653
 7639W        W24486  11.200   6.999  11.852  0.0132  0.2396 -0.1127
 7640W        W24487  16.244   8.112  12.290 -0.0991 -0.2908  0.4072
 7641W        W24488   5.524  12.525   0.663 -0.2705  0.0061 -0.4451
 7642W        W24489   0.113  12.673   1.973 -0.2870  0.1223 -0.1061
 7643W        W24490   9.921  15.187  12.686  0.0088 -0.1241  0.2065
 7644W        W24491  16.247   9.711  12.090 -0.0663  0.0406  0.1655
 7645W        W24492   4.464   2.068  14.538 -0.3018 -0.1175  0.0041
 7646W        W24493  10.303  14.734   5.059 -0.2417 -0.1681 -0.0584
 7647W        W24494   9.672  14.789   3.705 -0.1865 -0.1695  0.1592
 7648W        W24495  16.311   9.760  13.769  0.0214 -0.2885 -0.2762
 7649W        W24496  13.264   0.300  11.318 -0.3737  0.0148 -0.1469
 7650W        W24497  13.026   5.085  15.219 -0.1139 -0.1354 -0.1600
 7651W        W24498   4.268   9.476  15.232 -0.0139 -0.0589  0.0636
 7652W        W24499  11.561   1.326  12.028  0.3329 -0.1261  0.0389
 7653W        W24500  13.398   9.375   5.555  0.0216 -0.0057  0.1432
 7654W        W24501  15.972  14.671  13.263  0.1195  0.2792 -0.1331
 7655W        W24502  15.310   0.865  11.401  0.2988  0.0112  0.0018
 7656W        W24503   6.101  11.748   3.235  0.0617 -0.2304 -0.0744
 7657W        W24504   0.585   6.270   1.215  0.0583  0.0223  0.1376
 7658W        W24505   5.877  12.053   2.449  0.1575 -0.3123  0.2151
 7659W        W24506   0.216   7.176  11.996  0.2946  0.3634  0.1743
 7660W        W24507  15.130  15.878  12.547 -0.0475 -0.3525 -0.3079
 7661W        W24508  15.638   3.584   2.058 -0.1814  0.1432 -0.0859
 7662W        W24509  16.986   0.292   1.922 -0.3327 -0.2961 -0.0067
 7663W        W24510  13.294   4.458   4.292 -0.1091  0.1469 -0.3454
 7664W        W24511   6.575  12.037   5.552  0.3149  0.1645  0.1772
 7665W        W24512   3.490   0.128   3.447 -0.0833 -0.1315 -0.3437
 7666W        W24513  16.663   7.702  14.698  0.2993 -0.1109  0.2065
 7667W        W24514   2.448  11.222  12.765  0.1441  0.0072 -0.2945
 7668W        W24515  15.550   8.250   4.921 -0.0039 -0.3759  0.1260
 7669W        W24516   8.985  12.404  13.133  0.0581 -0.0525 -0.2305
 7670W        W24517   6.598   8.467   0.280  0.1363  0.0003  0.0552
 7671W        W24518   2.518  10.442   1.240  0.0048  0.0707  0.1292
 7672W        W24519   3.749  12.786   0.902 -0.0149 -0.0811  0.1741
 7673W        W24520  11.338   9.279   1.786  0.0177 -0.1504  0.1056
 7674W        W24521  16.518   3.044   2.005  0.1544 -0.0353 -0.0140
 7675W        W24522  15.046  10.117   2.685 -0.0915 -0.2082 -0.1880
 7676W        W24523  12.609   6.981  13.279 -0.1333  0.0143 -0.0365
 7677W        W24524  16.762   7.605   0.803  0.2837  0.2507 -0.2034
 7678W        W24525  13.751  15.442   2.659  0.3454 -0.5265  0.0890
 7679W        W24526  16.114   0.720   4.309  0.0315  0.0047 -0.2680
 7680W        W24527   4.690  10.070   5.840 -0.0930 -0.0353  0.1297
 7681W        W24528  10.568   3.966   5.157 -0.1527 -0.1493 -0.2958
 7682W        W24529   5.882  14.534   0.623  0.1174  0.0551  0.0584
 7683W        W24530  16.862   7.533   4.580  0.2113  0.3448  0.0619
 7684W        W24531  16.005  17.411  11.375 -0.0595 -0.0810  0.0810
 7685W        W24532  15.212   1.028  13.782  0.1462 -0.1165 -0.0814
 7686W        W24533   7.200   0.360  12.594 -0.0072 -0.1286 -0.0062
 7687W        W24534  16.409   2.723  13.325 -0.0323  0.3568 -0.1410
 7688W        W24535   2.099   7.977  11.920 -0.0194  0.2798  0.0975
 7689W        W24536  11.428  10.828   2.477  0.0527  0.0604  0.0750
 7690W        W24537  11.307  15.989  11.854  0.2589  0.1047  0.0944
 7691W        W24538  11.990  16.992  16.061  0.1282  0.1756  0.0610
 7692W        W24539   9.574   6.642  15.096  0.0781 -0.0994 -0.0174
 7693W        W24540   7.498  13.943  12.192  0.2378  0.0676  0.0105
 7694W        W24541   1.452  14.507  15.881 -0.0522  0.4700  0.0002
 7695W        W24542   3.846  13.321  13.927  0.0060  0.2862  0.4395
 7696W        W24543  15.002   6.892  15.516  0.0460  0.1402  0.0269
 7697W        W24544   3.290  10.167   2.375  0.1958  0.0234 -0.0152
 7698W        W24545  17.435   0.702   0.816 -0.0531 -0.2468 -0.1843
 7699W        W24546  11.333   2.822   0.807  0.0740  0.0261  0.0851
 7700W        W24547  17.531  10.471  12.964 -0.0973 -0.2075  0.1881
 7701W        W24548   5.943  10.224   5.062 -0.1754  0.1397  0.3861
 7702W        W24549   2.032   2.803  12.351 -0.4272  0.0212  0.2449
 7703W        W24550   7.857  17.135  16.005  0.5054 -0.3415  0.3413
 7704W        W24551  14.128  12.907  15.305 -0.1075  0.1051  0.0812
 7705W        W24552  14.013  12.034  15.155  0.2136  0.2442  0.1021
 7706W        W24553   4.102   0.646   1.250 -0.1070  0.1813  0.0382
 7707W        W24554  15.244  15.558   4.063 -0.1797  0.0807  0.2107
 7708W        W24555   1.805   6.663  15.304  0.2056 -0.1527  0.0436
 7709W        W24556   2.193  11.322  14.109  0.0167 -0.1397  0.0968
 7710W        W24557  12.735   3.210  12.304 -0.0297  0.2237 -0.2525
 7711W        W24558   5.093  12.270   0.557 -0.0399 -0.1222 -0.1795
 7712W        W24559  12.484   1.453  15.025 -0.2787 -0.1255  0.1130
 7713W        W24560   0.581  18.066   2.406 -0.1184  0.1630  0.0659
 7714W        W24561  14.568  10.371  13.975  0.0846 -0.1084  0.2413
 7715W        W24562   9.347  15.748   5.430  0.3946 -0.2859 -0.1199
 7716W        W24563  11.995  15.914  15.759  0.1103 -0.1618  0.0173
 7717W        W24564   8.199  12.273   4.127 -0.1355 -0.0806 -0.1273
 7718W        W24565  14.896  17.707   1.097  0.1478 -0.0407 -0.3205
 7719W        W24566   2.178   9.414   4.816 -0.4482 -0.2190  0.0982
 7720W        W24567   2.913   2.598  13.223 -0.1031 -0.1843 -0.1832
 7721W        W24568   9.463  10.543   5.763 -0.1478  0.0360 -0.2805
 7722W        W24569  12.745  17.382  13.302 -0.3544  0.2887 -0.0135
 7723W        W24570  10.178  18.015  11.707  0.1708 -0.1222 -0.0820
 7724W        W24571   1.206  11.287   5.211 -0.0819 -0.1005  0.0481
 7725W        W24572  17.054  15.353   3.611  0.0445  0.0909  0.2830
 7726W        W24573   5.940   4.607  12.819  0.3303 -0.0932  0.0961
 7727W        W24574   2.391  16.979  13.348 -0.1957  0.1415 -0.1061
 7728W        W24575   9.237  10.491   3.230  0.1494 -0.0564 -0.2884
 7729W        W24576  17.561  16.288  12.047  0.2417 -0.0533  0.0834
 7730W        W24577  14.990  17.805  15.666 -0.0519 -0.4298 -0.1210
 7731W        W24578   3.294   5.693  14.506  0.0515 -0.0643  0.2070
 7732W        W24579   9.786   4.322   3.899  0.1230  0.2532  0.0775
 7733W        W24580  14.940   7.836   2.789  0.0055 -0.1681  0.5663
 7734W        W24581  16.441   9.067  12.642  0.1208  0.2807  0.0708
 7735W        W24582  16.001  17.840   4.725  0.1146 -0.1177 -0.2387
 7736W        W24583  10.284  13.444  16.499 -0.0762 -0.1659  0.3641
 7737W        W24584  15.417   8.503  11.589  0.0299 -0.0539  0.2161
 7738W        W24585  11.054  12.517  12.329  0.2932 -0.1433  0.1760
 7739W        W24586   6.740   8.761  14.714 -0.1375 -0.1487 -0.0596
 7740W        W24587   8.966  11.739   3.698 -0.2661 -0.3205  0.0496
 7741W        W24588   2.519  12.541  15.483  0.0145 -0.2438 -0.0407
 7742W        W24589  12.806   2.764  12.514 -0.2702  0.2125  0.4496
 7743W        W24590   4.249  11.032  15.499  0.4674 -0.1772  0.0263
 7744W        W24591   5.763   5.197   3.152  0.0260  0.0411  0.3715
 7745W        W24592  10.868   5.676  12.738 -0.0165 -0.3562  0.0704
 7746W        W24593   4.691   9.204  13.540  0.1367 -0.1220 -0.2928
 7747W        W24594   0.287   6.020   0.872 -0.0136 -0.2936  0.0988
 7748W        W24595  13.735  10.454  11.817 -0.1107 -0.1514 -0.1662
 7749W        W24596  14.252  10.574  14.893  0.2929 -0.0759 -0.0648
 7750W        W24597   6.767   1.872  16.027  0.0043 -0.3189  0.0169
 7751W        W24598   6.796  12.740  13.548 -0.0187  0.0023  0.4090
 7752W        W24599   6.139   0.075  14.611 -0.1238 -0.1411 -0.0576
 7753W        W24600   3.613  16.396   5.737 -0.0046 -0.1751  0.1329
 7754W        W24601   7.744   5.440   4.011  0.0438  0.2037  0.0057
 7755W        W24602   0.787   7.460   2.852 -0.1530  0.1119  0.3148
 7756W        W24603   5.011  12.695  15.067 -0.0102  0.4201 -0.2607
 7757W        W24604   1.904  12.300   4.180 -0.1429 -0.1383  0.0277
 7758W        W24605   9.884   2.050   2.455  0.1192 -0.0127 -0.1166
 7759W        W24606  10.414  15.005   2.771  0.1035 -0.3358 -0.0876
 7760W        W24607   3.865  14.315  12.898  0.0592 -0.0076  0.0740
 7761W        W24608  12.093  17.135  12.804  0.0898  0.0824  0.0344
 7762W        W24609  10.102  16.788  13.175 -0.1742  0.1498 -0.1384
 7763W        W24610   7.796  11.611  13.129 -0.1770 -0.0419  0.0025
 7764W        W24611  12.898   9.450  11.588 -0.1031 -0.0164 -0.0923
 7765W        W24612  15.838   0.736  15.735 -0.3263 -0.1604  0.5200
 7766W        W24613   7.819   5.031  14.780  0.0189  0.0819 -0.1545
 7767W        W24614   7.392   9.213  14.165  0.1467  0.0160 -0.0714
 7768W        W24615  13.292   5.405  16.008  0.0919 -0.0685  0.2756
 7769W        W24616  17.175   7.834  15.496  0.0669 -0.2602  0.0223
 7770W        W24617  15.534   7.376  15.493  0.1304 -0.0464 -0.2052
 7771W        W24618   0.097   3.175   3.442 -0.1498  0.0068 -0.0981
 7772W        W24619   8.657   7.035   5.715  0.1731  0.1326  0.0401
 7773W        W24620  14.382  13.188  14.931  0.0721  0.0493 -0.2576
 7774W        W24621  15.908   1.143   5.704 -0.1039 -0.1260  0.1346
 7775W        W24622  15.508  14.432  12.223 -0.0034  0.1235  0.1969
 7776W        W24623   3.962  17.957  16.338 -0.0705  0.2575 -0.2744
 7777W        W24624  12.793   2.863   1.227  0.1430 -0.0972  0.3992
 7778W        W24625  12.065   1.556   3.624 -0.1708  0.0348 -0.0062
 7779W        W24626   4.712   2.283  13.854 -0.1974  0.0065  0.2081
 7780W        W24627  13.414   1.514   2.840  0.0306  0.1588 -0.2365
 7781W        W24628   0.248  16.453  13.616  0.1533  0.1130 -0.1986
 7782W        W24629  14.947  15.172   2.773 -0.0660 -0.0418  0.2993
 7783W        W24630  12.275   6.630  13.073 -0.1242  0.1927  0.3492
 7784W        W24631   8.112   4.797   1.348  0.2051 -0.1216  0.0430
 7785W        W24632   1.301  13.853  12.897 -0.1935  0.0896 -0.2805
 7786W        W24633  16.997  18.073   4.850 -0.0400  0.1063 -0.2281
 7787W        W24634  17.661   8.424   0.260 -0.1191 -0.0831  0.0706
 7788W        W24635   7.850   4.735   4.738  0.1580 -0.1777 -0.1204
 7789W        W24636  12.589  15.272  12.699  0.2038  0.0529  0.1801
 7790W        W24637   1.620   8.524   3.800 -0.1639  0.0354 -0.0288
 7791W        W24638  15.342  13.903  13.280 -0.0369 -0.0382 -0.0480
 7792W        W24639   3.433   8.002  16.306 -0.0416 -0.2123 -0.1042
 7793W        W24640  17.172   5.725   2.343  0.2047  0.1718  0.1791
 7794W        W24641  13.637  12.021   2.301 -0.1734 -0.1274 -0.0599
 7795W        W24642   2.336   5.890   1.837 -0.0588 -0.0610 -0.0211
 7796W        W24643   6.663  10.334  13.624  0.0027  0.2020 -0.0860
 7797W        W24644   8.843  15.261  13.699  0.1262  0.0030 -0.1366
 7798W        W24645   7.432  18.147  12.446 -0.4667 -0.3053  0.1174
 7799W        W24646  13.485  17.135   3.716 -0.1181  0.0928  0.1808
 7800W        W24647   6.520  13.664  14.530 -0.0259 -0.1471 -0.2600
 7801W        W24648  17.112   6.421  13.054 -0.2328 -0.1208  0.0968
 7802W        W24649  13.622   5.628  15.156  0.0922  0.0674 -0.1430
 7803W        W24650   3.953  18.165  13.677  0.0694  0.0379  0.1855
 7804W        W24651  14.549   2.469   3.791 -0.2313  0.1941 -0.0063
 7805W        W24652   1.500  11.998   4.448 -0.1270 -0.1447  0.3883
 7806W        W24653  13.315   0.466   3.518 -0.3946 -0.0087 -0.0908
 7807W        W24654  16.125  11.882   1.844  0.1633 -0.1153  0.1602
 7808W        W24655   5.419   8.348  11.756 -0.0444 -0.2488 -0.0666
 7809W        W24656   6.515  11.553   5.833 -0.0742 -0.0333  0.1262
 7810W        W24657   8.026   3.352  16.046  0.0607 -0.1409  0.0984
 7811W        W24658   9.190   9.582   4.200  0.1352  0.0256  0.1843
 7812W        W24659  17.617  10.004   5.421 -0.1230  0.2339 -0.2847
 7813W        W24660   4.170   1.413   1.782  0.2174  0.0217  0.2381
 7814W        W24661  11.625  11.633  14.893 -0.0911 -0.0452  0.3059
 7815W        W24662   4.417   3.437  16.441  0.1443  0.2345  0.3388
 7816W        W24663  10.577  15.005   1.756 -0.3540  0.1268 -0.0723
 7817W        W24664  17.226   2.651  16.389 -0.0219  0.4321 -0.3072
 7818W        W24665   4.250  11.905   2.602  0.3179 -0.1779 -0.0347
 7819W        W24666  17.636   2.891  13.234  0.0651  0.2304 -0.1575
 7820W        W24667  15.607   6.000   1.287 -0.2047  0.0329  0.0779
 7821W        W24668   1.065   2.009   2.664  0.0222  0.0982  0.2488
 7822W        W24669  12.949   2.297  13.997 -0.1315 -0.1936  0.3923
 7823W        W24670   3.779   0.523  13.617 -0.0109  0.1109  0.0737
 7824W        W24671  17.761  17.442   4.583 -0.1265  0.0249  0.1216
 7825W        W24672   0.226   1.333   1.105 -0.1595 -0.3192 -0.0250
 7826W        W24673   3.019   9.881   5.552  0.2901 -0.1445 -0.0769
 7827W        W24674   9.901   2.614  15.789  0.2626 -0.2395 -0.1390
 7828W        W24675   2.228   2.596  11.526  0.1705  0.2730 -0.0144
 7829W        W24676  15.089   6.557  14.465  0.0557 -0.1446  0.2566
 7830W        W24677   0.729  11.840   4.009  0.1511  0.1960  0.1687
 7831W        W24678   5.614   2.576   4.681 -0.2064  0.0239 -0.0663
 7832W        W24679   3.432   9.502   4.778 -0.1054 -0.1338 -0.2109
 7833W        W24680   9.504   2.046   2.113  0.0584 -0.2120  0.1401
 7834W        W24681  12.267  14.018  14.964 -0.3964  0.0678 -0.0532
 7835W        W24682  14.864  14.637  14.011 -0.3893 -0.0733 -0.0378
 7836W        W24683   4.620  12.998  13.334  0.4414  0.0902 -0.0785
 7837W        W24684   0.733  14.044   2.142 -0.0294 -0.0085  0.0867
 7838W        W24685   1.542   2.963  12.079  0.2422  0.3727 -0.3349
 7839W        W24686   9.900  13.176  14.399  0.2292 -0.0925  0.0215
 7840W        W24687   1.622   7.263   3.092 -0.0676 -0.2953 -0.2608
 7841W        W24688   2.087   2.916   5.963  0.2821  0.0378 -0.0841
 7842W        W24689  17.873   9.026  11.637 -0.1717 -0.2444 -0.1604
 7843W        W24690  12.550  15.497  16.029 -0.0730  0.1359  0.1401
 7844W        W24691  12.504  12.257   2.863  0.1295  0.1860 -0.1278
 7845W        W24692  15.031   4.783  15.824 -0.2167  0.0410 -0.0091
 7846W        W24693  13.540   3.737  14.951  0.0692  0.0044  0.0505
 7847W        W24694   5.804  12.996   4.355  0.1786  0.2466  0.1117
 7848W        W24695   7.113  10.057  14.789 -0.1936  0.0909 -0.1029
 7849W        W24696   8.960   7.374   1.961 -0.0005 -0.1414 -0.0070
 7850W        W24697   7.063   8.591  11.387 -0.0993 -0.1228  0.0661
 7851W        W24698   6.216   5.160  13.003 -0.2291 -0.1758 -0.1552
 7852W        W24699  17.732   5.149  15.812  0.0978  0.2076 -0.0097
 7853W        W24700   3.480   3.423  16.261 -0.1679 -0.1968  0.1578
 7854W        W24701   6.556  15.960  13.107 -0.0211  0.0620 -0.2733
 7855W        W24702  10.501   6.429  16.140 -0.0157  0.0448  0.1731
 7856W        W24703   4.184   6.602  16.578 -0.0891 -0.0008 -0.2499
 7857W        W24704   1.836   4.608  13.735  0.2904  0.2059 -0.3531
 7858W        W24705  14.968   8.120   3.223  0.0043  0.2200 -0.0732
 7859W        W24706   5.059   9.967  16.017  0.1204 -0.1304  0.1594
 7860W        W24707   4.591   4.578  14.193 -0.1358 -0.0530 -0.1272
 7861W        W24708   1.168  14.227  12.631  0.3123 -0.0709  0.1850
 7862W        W24709   6.500   2.256  12.914 -0.0353  0.1057  0.1979
 7863W        W24710   2.134   7.382  15.814 -0.3956 -0.1811 -0.0468
 7864W        W24711  11.448   1.761  14.983 -0.0769  0.2399  0.3718
 7865W        W24712   4.707   0.780  16.573  0.3996  0.1496  0.0785
 7866W        W24713  11.464   9.998   1.614  0.2543 -0.1062  0.1839
 7867W        W24714   5.844  17.895   6.134 -0.0554 -0.0613  0.1988
 7868W        W24715  11.167   2.903  14.165 -0.0897 -0.3520  0.2304
 7869W        W24716   1.884   9.485   5.164  0.2190  0.1018 -0.2609
 7870W        W24717  12.039  13.826  15.462  0.0580 -0.0490  0.0893
 7871W        W24718  13.440  12.276  12.816  0.2352 -0.0068  0.1829
 7872W        W24719   4.113  10.436  13.255  0.0366 -0.0407  0.1701
 7873W        W24720  18.157   0.217  11.434 -0.3337 -0.0902 -0.0844
 7874W        W24721  10.996  12.956  13.857 -0.0979 -0.0380  0.0388
 7875W        W24722   9.710   8.313   1.767 -0.0781 -0.1598  0.0267
 7876W        W24723  17.730   4.584   0.645 -0.1469 -0.2798 -0.2599
 7877W        W24724  13.752   3.798  12.246 -0.1734  0.0928  0.2682
 7878W        W24725   2.033   4.146  13.577  0.0358  0.1625  0.0489
 7879W        W24726   7.832   6.700   3.421 -0.1163  0.2611  0.1059
 7880W        W24727   8.847  14.736   3.291  0.2243  0.1060  0.2013
 7881W        W24728   8.056   4.403  14.428 -0.1363 -0.1448  0.2516
 7882W        W24729   1.989  11.035  15.171 -0.2986 -0.3629 -0.0556
 7883W        W24730  15.091   8.233   2.526  0.2581 -0.0750  0.1777
 7884W        W24731  15.582   7.064   5.314 -0.0586  0.0727 -0.1021
 7885W        W24732   3.387   6.580   4.011 -0.0810 -0.4410 -0.1834
 7886W        W24733  17.573  13.647  13.742  0.1545 -0.0627 -0.0378
 7887W        W24734   2.053   1.399  14.554  0.0736 -0.1385 -0.4301
 7888W        W24735  11.780   3.982  12.997 -0.3435 -0.1021  0.0113
 7889W        W24736  18.040  15.837  15.313  0.1552 -0.2657  0.1189
 7890W        W24737   3.685   3.844  16.533  0.2251 -0.1202 -0.0043
 7891W        W24738   1.533  17.548  15.795  0.1408  0.2097 -0.2447
 7892W        W24739   5.926  16.131   3.345 -0.3615 -0.3261 -0.0625
 7893W        W24740   5.352  16.228  14.369 -0.1493  0.2258  0.1850
 7894W        W24741  11.360   0.618   1.105 -0.2087  0.1226 -0.2400
 7895W        W24742   3.014   3.002   0.775 -0.2744 -0.0077  0.0284
 7896W        W24743   2.032  16.153  12.683  0.2572  0.0742  0.3538
 7897W        W24744   5.573  13.873   4.610 -0.1067 -0.3024 -0.4101
 7898W        W24745   8.564  13.788  16.210  0.2196  0.0028 -0.1285
 7899W        W24746  16.789  18.040   4.321 -0.1232 -0.2594 -0.1469
 7900W        W24747  15.611  11.370   3.962 -0.1436  0.1110  0.0725
 7901W        W24748   4.455   6.242   0.146  0.0468 -0.0420  0.0779
 7902W        W24749  17.805   6.751  15.633 -0.0224  0.0509  0.1841
 7903W        W24750   6.853  14.287  11.980 -0.1935  0.1061  0.2426
 7904W        W24751  10.842   6.360   4.618  0.1021 -0.0338  0.0839
 7905W        W24752   0.309  17.479   3.149 -0.0767 -0.1344 -0.0294
 7906W        W24753   7.359   9.929  12.563  0.3876 -0.1702  0.1297
 7907W        W24754   5.833   1.987  16.021 -0.1144 -0.0576  0.0864
 7908W        W24755   4.500  14.753   4.836 -0.0986 -0.1886  0.2518
 7909W        W24756   2.731   4.244  16.366 -0.1704 -0.1824 -0.0447
 7910W        W24757   7.467   1.740   0.155  0.2565  0.2496 -0.0319
 7911W        W24758   8.883  10.480   5.859 -0.1021  0.1471  0.2902
 7912W        W24759  12.746   7.760  15.201  0.1136  0.0608  0.0531
 7913W        W24760  11.034  18.065  10.810  0.1470  0.0504 -0.2806
 7914W        W24761  12.528   8.840   2.947  0.1418 -0.1788  0.2749
 7915W        W24762   5.553  14.849   1.518  0.1211 -0.3637 -0.3196
 7916W        W24763   0.208  15.183   2.984  0.0254  0.0454  0.0852
 7917W        W24764   7.718   3.251  11.701  0.0213 -0.2874  0.0222
 7918W        W24765  13.861   8.875   2.380  0.1236  0.1623 -0.1838
 7919W        W24766   3.834   3.315   0.594 -0.1899 -0.2091  0.3478
 7920W        W24767   7.332  11.691   0.370 -0.0682  0.0593  0.0706
 7921W        W24768   0.991   0.636   3.541 -0.0949  0.0504 -0.0703
 7922W        W24769  10.232   4.540   3.939  0.0500  0.2012 -0.2462
 7923W        W24770   1.708  18.093   4.834  0.0289 -0.1071  0.3821
 7924W        W24771   5.201   0.151   4.271 -0.0612  0.1610  0.0369
 7925W        W24772   8.992   1.531   4.190 -0.0739  0.0679  0.3042
 7926W        W24773   5.451  15.602   5.776  0.1241  0.0747  0.1137
 7927W        W24774   2.510   6.309   2.056  0.0522  0.1708 -0.4145
 7928W        W24775  12.351   3.684  14.826  0.1596 -0.2158  0.2619
 7929W        W24776  14.110  17.767  12.569  0.0428 -0.0239 -0.0035
 7930W        W24777   0.088  14.601  12.040 -0.0767 -0.1278  0.2588
 7931W        W24778   3.042  13.320  12.135 -0.2456 -0.0295  0.2557
 7932W        W24779   5.937  12.526   3.964 -0.2322 -0.0062  0.3833
 7933W        W24780  17.439   0.433   4.368 -0.2996 -0.3211 -0.1732
 7934W        W24781  12.379  15.900  14.236 -0.1887  0.1686 -0.0689
 7935W        W24782  10.742   2.383   1.489 -0.1237  0.0170  0.0795
 7936W        W24783   2.862   0.267   2.386 -0.2763  0.1094 -0.2260
 7937W        W24784   4.930  14.888  12.156  0.2064  0.3868 -0.1042
 7938W        W24785   8.361   0.138   5.722  0.0633 -0.2063 -0.0984
 7939W        W24786  15.854   6.379  16.572  0.0181 -0.0051  0.0621
 7940W        W24787  16.154  15.753   1.436  0.0076 -0.0312 -0.2065
 7941W        W24788  14.511   1.396  15.352  0.1555  0.0238  0.3395
 7942W        W24789   0.212  12.228   2.092  0.1878  0.3551 -0.2522
 7943W        W24790   6.753  13.514  11.884 -0.1425 -0.1482 -0.3446
 7944W        W24791   9.468  13.650  12.765 -0.0474 -0.1935 -0.2156
 7945W        W24792  15.825  14.017  13.693  0.3668 -0.1622 -0.1807
 7946W        W24793  15.358   3.975  14.109 -0.1303 -0.2394 -0.0828
 7947W        W24794   9.794   5.786   0.009  0.0385  0.1710  0.1149
 7948W        W24795   2.246   7.234  16.413  0.1282  0.0860  0.1492
 7949W        W24796   7.078  13.696   2.081  0.1716 -0.1852  0.1230
 7950W        W24797   2.037  13.129  14.345  0.1420  0.3461 -0.1072
 7951W        W24798   4.077  15.718  15.879 -0.0532 -0.0816  0.1208
 7952W        W24799  14.241   0.344  15.484  0.0059 -0.0673  0.0675
 7953W        W24800   3.470   3.349   6.258 -0.5157  0.1800  0.1051
 7954W        W24801   3.280   3.186   1.823  0.0151  0.1481 -0.0281
 7955W        W24802  10.905  14.863  13.516  0.1781 -0.1439  0.0588
 7956W        W24803   7.185   6.069  15.239 -0.0473  0.1287  0.2427
 7957W        W24804   5.366  16.556   1.468 -0.0985  0.2166  0.0674
 7958W        W24805  11.241  13.509   1.769  0.1575 -0.2772  0.0626
 7959W        W24806  17.168  13.386   5.147  0.0142 -0.3480  0.0302
 7960W        W24807   6.221  15.566   2.634 -0.2193  0.0542  0.2054
 7961W        W24808  16.447   8.076  15.131 -0.1371 -0.1003  0.0305
 7962W        W24809  14.839   6.806   4.186 -0.0590 -0.1025 -0.1311
 7963W        W24810   2.757   0.810  15.252 -0.1504 -0.0896 -0.2184
 7964W        W24811   6.878  12.503  16.023 -0.0497  0.1055  0.2673
 7965W        W24812   7.686   5.149  16.200 -0.2255 -0.0202 -0.2131
 7966W        W24813  13.020   5.613   0.616 -0.1461 -0.0738 -0.1066
 7967W        W24814   3.553  16.875  13.311 -0.1751  0.1474  0.4302
 7968W        W24815  11.468   8.652  13.341  0.2590 -0.0017  0.1755
 7969W        W24816   1.614   7.620  13.626  0.6053 -0.1925 -0.1366
 7970W        W24817   1.184  17.643   3.752 -0.1261  0.5598 -0.1309
 7971W        W24818   4.260   6.957  13.334 -0.0582 -0.0787 -0.0113
 7972W        W24819   8.090   4.443  15.918  0.3001  0.2780 -0.3370
 7973W        W24820  16.001  14.238   0.935  0.4357  0.0557  0.1153
 7974W        W24821   6.547  18.168   2.464  0.0961  0.3577 -0.0824
 7975W        W24822   2.984   7.192  13.087 -0.5669  0.3169 -0.2755
 7976W        W24823  15.614   5.304   5.996 -0.3205  0.1073  0.2648
 7977W        W24824  15.315  15.456   2.641 -0.2408 -0.1013  0.1364
 7978W        W24825  10.633   8.824   5.518  0.2129 -0.0498 -0.0425
 7979W        W24826  12.591   6.795   3.172 -0.1139 -0.2571  0.2254
 7980W        W24827   5.349   6.000  14.818  0.0167 -0.3921 -0.2141
 7981W        W24828  16.545  14.084   0.587  0.3762 -0.0002 -0.3235
 7982W        W24829   5.675   1.697   4.080 -0.3440  0.2249  0.0420
 7983W        W24830  15.235  13.520   3.295  0.0112 -0.1458  0.0012
 7984W        W24831  10.226   1.874  11.496 -0.2312 -0.3088  0.3917
 7985W        W24832   7.043  15.398   3.586 -0.0507 -0.0779  0.1208
 7986W        W24833   4.821   8.838   0.018  0.1027 -0.3023  0.0365
 7987W        W24834   5.948   1.607   2.721 -0.3117  0.2480  0.3479
 7988W        W24835   7.961  16.790   0.598 -0.1647  0.0135  0.1732
 7989W        W24836  13.665   2.409  15.106  0.0794 -0.1475  0.2063
 7990W        W24837   1.154  13.184   4.709 -0.0698 -0.0031 -0.2439
 7991W        W24838  17.504   9.285  13.207 -0.2955 -0.3595  0.1932
 7992W        W24839   7.286   7.273   1.730 -0.0211  0.0877  0.3867
 7993W        W24840   4.926   9.624  15.698  0.1571  0.0706  0.2248
 7994W        W24841  17.876   8.040  11.473  0.2866 -0.1011  0.3068
 7995W        W24842   2.780   6.662   4.097  0.4251  0.1177  0.0647
 7996W        W24843  17.618  16.079  13.091 -0.1622 -0.3231 -0.3077
 7997W        W24844   3.709   1.505  12.757  0.1588 -0.1192  0.0189
 7998W        W24845  16.451   6.061   5.859 -0.0382  0.1480 -0.0502
 7999W        W24846   7.596   3.729  15.042  0.0326  0.1023 -0.0557
 8000W        W24847   5.692   6.846   5.559 -0.0320  0.0171  0.2012
 8001W        W24848   6.057  13.606  11.727 -0.0689  0.0203  0.1130
 8002W        W24849  17.313   5.228  14.573 -0.0302 -0.0014 -0.1363
 8003W        W24850   2.462   2.271  16.310  0.1505 -0.0515 -0.0841
 8004W        W24851   5.893   7.084   0.290  0.3691 -0.1612  0.0397
 8005W        W24852  13.072  18.020   2.734 -0.2086  0.1512  0.0152
 8006W        W24853  11.618   8.829  11.637  0.1722 -0.1626 -0.0978
 8007W        W24854  12.418   7.216   2.483 -0.1294 -0.0368  0.1677
 8008W        W24855   0.701   1.211  16.289  0.1701  0.0938  0.1920
 8009W        W24856  15.774  16.090  12.026 -0.3735 -0.4131  0.0474
 8010W        W24857  11.619   6.065  15.304 -0.1571  0.0692 -0.1294
 8011W        W24858   5.337   1.604  13.422  0.1121 -0.0544  0.0906
 8012W        W24859   0.966   9.453   2.176 -0.2826 -0.1491 -0.0708
 8013W        W24860   3.715  12.030  14.489 -0.0254  0.1144 -0.0609
 8014W        W24861   5.479   8.591   2.141  0.1799 -0.2597  0.1531
 8015W        W24862   6.796  14.110   4.313  0.0514  0.0960 -0.0260
 8016W        W24863  14.119   4.216  11.380  0.0836  0.0362 -0.2343
 8017W        W24864  11.584   4.207   5.002  0.2023  0.2767 -0.0341
 8018W        W24865   0.409   2.075  14.808 -0.1141  0.0492 -0.0477
 8019W        W24866  10.399  16.554   0.132 -0.1666 -0.0227 -0.0110
 8020W        W24867   8.014  15.898   1.221 -0.1833 -0.2467 -0.0278
 8021W        W24868   9.320   5.824   2.924 -0.3215 -0.1746 -0.1326
 8022W        W24869   7.817  13.364  16.558 -0.2628 -0.2057  0.2224
 8023W        W24870   2.039   3.822  16.565  0.0732  0.1740  0.0509
 8024W        W24871  16.943  15.117  12.128  0.0739  0.1325 -0.0518
 8025W        W24872   7.093   2.780   0.866  0.1603  0.3656  0.0588
 8026W        W24873  10.332  15.472   0.437 -0.1910  0.2513  0.0457
 8027W        W24874   3.575  11.497   3.984  0.2841  0.0472 -0.4278
 8028W        W24875   3.153   5.662   4.937 -0.1115 -0.0843  0.2417
 8029W        W24876  16.015   3.839  12.229  0.0537 -0.0854 -0.1636
 8030W        W24877   5.451   7.523   2.047  0.0443 -0.0644  0.1020
 8031W        W24878   7.220  14.290   1.364  0.1551  0.2957 -0.0200
 8032W        W24879  10.428   8.291   1.387  0.1204 -0.0313 -0.0363
 8033W        W24880   7.394   2.196  13.243 -0.0219  0.0140 -0.3213
 8034W        W24881  14.841   1.683   0.213 -0.1258 -0.0098 -0.1984
 8035W        W24882   3.997  16.312  11.922 -0.2447 -0.1008  0.0931
 8036W        W24883   5.232  11.116   3.934 -0.0874  0.0250  0.1743
 8037W        W24884   5.963  17.057   1.286 -0.0138 -0.1861  0.2420
 8038W        W24885  17.497  10.044   1.326 -0.0583  0.1643  0.1177
 8039W        W24886  12.530   0.310  13.911 -0.1537 -0.0073 -0.1185
 8040W        W24887  15.266  11.353   0.510  0.1852 -0.0949 -0.1144
 8041W        W24888  11.858   3.977   3.480  0.0299 -0.0304 -0.0470
 8042W        W24889  10.232  17.443  14.287 -0.0048  0.2028 -0.0399
 8043W        W24890   4.181   6.805   0.906 -0.3325 -0.1265  0.1450
 8044W        W24891   9.777   7.087   0.026  0.0875  0.1347  0.0165
 8045W        W24892   9.624  16.571  15.873  0.1045  0.0604 -0.0419
 8046W        W24893  15.538   5.049   3.421  0.0780  0.1176 -0.1508
 8047W        W24894  17.329   0.953   2.887 -0.1945 -0.0014  0.0282
 8048W        W24895  17.956  17.515   2.313  0.2885 -0.0209  0.1639
 8049W        W24896   4.954  14.482   3.436 -0.0773  0.4915  0.2339
 8050W        W24897   0.755   7.251   3.760  0.1989 -0.1216  0.1111
 8051W        W24898  10.970   1.238  16.106  0.0833  0.2692  0.3030
 8052W        W24899   7.114   0.284   6.225  0.2450 -0.4107  0.0064
 8053W        W24900   4.496   8.116  12.559 -0.0157  0.3642  0.0064
 8054W        W24901  10.003   1.411   0.592 -0.3277  0.1962  0.1591
 8055W        W24902   1.273  12.195  14.933  0.0554 -0.3484  0.1625
 8056W        W24903  11.129  17.506  13.047  0.1478 -0.0708 -0.0987
 8057W        W24904   2.531   3.015   0.340 -0.1709  0.1532  0.0522
 8058W        W24905  11.615  18.030  14.647 -0.2188  0.0829  0.3332
 8059W        W24906   3.268   0.641   5.073 -0.2620  0.1242  0.3017
 8060W        W24907  12.973   6.204   2.115 -0.0420 -0.2021  0.0923
 8061W        W24908   2.245   6.916   4.123 -0.0425  0.1016 -0.0040
 8062W        W24909  15.557  16.168   0.158 -0.3108  0.0513 -0.0103
 8063W        W24910  10.722   7.828   0.626  0.2565 -0.0465 -0.1470
 8064W        W24911  15.959   7.829   5.418 -0.1966  0.0279  0.1483
 8065W        W24912   3.029   6.890   0.987 -0.1379 -0.1292 -0.0217
 8066W        W24913  10.981   3.710  11.695  0.1113  0.2272  0.0370
 8067W        W24914   8.362   8.459   5.114 -0.1335 -0.1714 -0.0500
 8068W        W24915   4.401   3.147  16.066  0.1971  0.2425 -0.0412
 8069W        W24916  14.936   0.895  16.036  0.1408 -0.2767 -0.1404
 8070W        W24917   7.386   2.431  15.037  0.1023  0.0636 -0.1208
 8071W        W24918   7.431  17.743   2.110  0.0889 -0.0540 -0.0086
 8072W        W24919   8.209   9.526  13.559 -0.1737  0.1783 -0.0429
 8073W        W24920   6.861   7.833   2.305 -0.1278  0.1745 -0.0582
 8074W        W24921   2.793  18.098  14.687  0.1043  0.0434  0.0228
 8075W        W24922  10.178  16.916  11.948 -0.1336 -0.0359  0.0377
 8076W        W24923   7.970  10.095   4.111 -0.1727 -0.2472  0.2695
 8077W        W24924   6.549  13.162  13.594 -0.0941  0.3109 -0.0712
 8078W        W24925  13.046   0.150   4.891 -0.1095  0.3328  0.0864
 8079W        W24926  12.114   1.573   1.249 -0.1266 -0.2283 -0.0792
 8080W        W24927  15.834   9.231   3.834  0.1519 -0.0281 -0.0330
 8081W        W24928  15.898   0.813  16.236 -0.0878 -0.0365  0.0494
 8082W        W24929  11.237   2.716   2.200 -0.1834  0.1251 -0.0378
 8083W        W24930   7.293   4.913  13.888  0.1971 -0.0947 -0.1272
 8084W        W24931  13.449  10.164   0.301 -0.3004  0.3188  0.2531
 8085W        W24932   6.402   0.688   5.768 -0.0726  0.0523  0.2092
 8086W        W24933  11.520   6.020   0.430  0.0479  0.0559 -0.1062
 8087W        W24934   6.328  11.664  12.612 -0.2083 -0.1991  0.1056
 8088W        W24935   0.156  10.369  15.760 -0.2532  0.0026 -0.0747
 8089W        W24936  14.803   5.642  13.081  0.1425  0.2452 -0.3918
 8090W        W24937   5.301  10.471   2.165  0.0494 -0.0018  0.1017
 8091W        W24938  10.825   1.973   4.472 -0.0595 -0.0648 -0.1686
 8092W        W24939  11.122  13.302   0.603  0.0297 -0.2490 -0.2073
 8093W        W24940  11.848  14.483  14.294  0.1425 -0.0830 -0.1304
 8094W        W24941  12.422  10.461  14.696  0.1330 -0.2029 -0.1062
 8095W        W24942   4.461  15.465   3.237  0.0544 -0.0084 -0.1030
 8096W        W24943   3.955   5.665   0.942 -0.0454  0.0152 -0.1118
 8097W        W24944  15.640   8.299   4.056  0.0110  0.1639  0.1130
 8098W        W24945   1.439   1.734  10.882 -0.1943  0.1254 -0.2623
 8099W        W24946   8.626   0.820   1.028 -0.1707  0.2945 -0.1672
 8100W        W24947   8.742   3.220  10.847 -0.2380  0.3752  0.1088
 8101W        W24948   9.097   7.026  12.803  0.0281  0.0202 -0.0882
 8102W        W24949  15.327   4.862  16.623  0.2694  0.2685  0.0156
 8103W        W24950  14.029   9.772   3.761  0.1496  0.1325 -0.1105
 8104W        W24951   3.832  14.123   6.568  0.2065 -0.0306 -0.1718
 8105W        W24952   8.071   4.309  12.211  0.0491 -0.0488 -0.0062
 8106W        W24953  16.169  16.224  16.092  0.0406  0.1373 -0.1799
 8107W        W24954  17.018   7.421  12.722 -0.1258 -0.3942  0.1910
 8108W        W24955   2.352   7.164  12.268 -0.0158  0.0720 -0.1624
 8109W        W24956  15.090   0.669  16.503  0.2908  0.0342  0.0410
 8110W        W24957   6.668   5.105  12.666 -0.1178  0.1672 -0.0198
 8111W        W24958  17.922   1.058   5.478  0.2075  0.1162 -0.0785
 8112W        W24959   4.393  16.176   2.683 -0.0738  0.0520 -0.2205
 8113W        W24960   3.296   4.362  14.308 -0.0156 -0.0664  0.0652
 8114W        W24961   7.004  13.844  12.314  0.0534 -0.3317 -0.2581
 8115W        W24962  14.706  17.602   5.555  0.1136 -0.0511 -0.0467
 8116W        W24963  11.208  14.362  12.729 -0.4276 -0.1304 -0.3001
 8117W        W24964   8.443  12.382   1.947 -0.2275  0.0980 -0.1516
 8118W        W24965   1.434   2.203   9.904  0.1130  0.0055 -0.0509
 8119W        W24966   1.265  12.426   0.549  0.0705 -0.1197 -0.0214
 8120W        W24967  17.153  17.267  14.817  0.0275  0.0380  0.0039
 8121W        W24968   0.107  10.353  13.399  0.3586  0.0140  0.0048
 8122W        W24969   9.630   6.732  13.725  0.1156  0.1377  0.0348
 8123W        W24970  13.419   0.510   0.743  0.0659 -0.2441 -0.3625
 8124W        W24971  16.774  16.258   5.171 -0.1371  0.0141  0.4501
 8125W        W24972  13.587   1.412   0.765 -0.2173  0.1759  0.3974
 8126W        W24973  16.663   6.203   0.325  0.0973  0.1712 -0.5266
 8127W        W24974   0.193   7.842  12.992 -0.3367 -0.2761  0.0618
 8128W        W24975  13.885  14.922   3.720  0.1231 -0.0064  0.0400
 8129W        W24976   6.656   7.545  14.375  0.1448  0.0349  0.1058
 8130W        W24977  13.207   3.720  15.356  0.0849 -0.3444  0.2648
 8131W        W24978   7.143   9.146  13.323 -0.0018 -0.2248 -0.2620
 8132W        W24979   5.524  14.386   0.983 -0.4289 -0.0946 -0.0999
 8133W        W24980   5.636   1.317  11.962  0.1924  0.0432 -0.1086
 8134W        W24981   9.239   9.994  15.521  0.1373  0.0028  0.1005
 8135W        W24982   5.729   2.084   4.915 -0.0581 -0.1301  0.2552
 8136W        W24983   9.016   1.025  13.608  0.2138 -0.0043  0.1021
 8137W        W24984  11.239   6.560   3.294  0.4662  0.0022 -0.1418
 8138W        W24985   5.256   9.436  13.920 -0.1472  0.1950  0.1433
 8139W        W24986   8.083   7.589  13.336 -0.0374  0.0954  0.2126
 8140W        W24987   3.730   3.495  15.540 -0.0527  0.3339 -0.0175
 8141W        W24988   0.645   3.351   2.129  0.0623  0.1827  0.0245
 8142W        W24989  10.639  12.662   4.289 -0.0400  0.1205 -0.0105
 8143W        W24990  10.937   2.640  13.082 -0.0001 -0.1773 -0.0453
 8144W        W24991  10.000  14.576   3.339  0.3413  0.1461  0.1165
 8145W        W24992   5.591   9.797   4.333 -0.3402  0.0276  0.2548
 8146W        W24993   9.781   2.376  12.289  0.2159  0.0697 -0.2184
 8147W        W24994  13.640   1.707  10.995 -0.5465 -0.0064 -0.1008
 8148W        W24995   0.908   9.940   4.271  0.3599 -0.1090 -0.0930
 8149W        W24996   1.169  14.326  12.103 -0.0871 -0.0612 -0.1662
 8150W        W24997   9.539   4.755  15.092 -0.1364  0.0853 -0.0723
 8151W        W24998   6.256  16.056   4.688 -0.2202 -0.1134 -0.1590
 8152W        W24999   7.508  12.900   5.195 -0.0861  0.0121  0.0143
 8153W        W25000   6.802   1.678   1.455 -0.0964  0.0408 -0.1351
 8154W        W25001  11.888  10.164   4.457 -0.0667  0.1643  0.0491
 8155W        W25002   1.195   3.780   4.654  0.0284  0.1007 -0.3258
 8156W        W25003   6.512   9.292   1.871 -0.3138 -0.0409 -0.0164
 8157W        W25004  12.491   8.757  15.499 -0.3076  0.1057  0.2385
 8158W        W25005  15.854   4.018   4.724  0.2648  0.1942 -0.3689
 8159W        W25006   1.495   6.584   0.748  0.2588  0.0834 -0.1431
 8160W        W25007  15.584   3.488   5.973  0.3903  0.2494 -0.2503
 8161W        W25008  17.082   1.679   0.102 -0.0890 -0.1609  0.0596
 8162W        W25009   4.194   9.394  13.720  0.0790 -0.0715  0.1456
 8163W        W25010  11.294   3.699   4.865  0.1436  0.2135 -0.2774
 8164W        W25011  16.044  10.572   1.731  0.1567 -0.0863 -0.1558
 8165W        W25012   6.551   3.964  13.430  0.0108 -0.0029 -0.2030
 8166W        W25013   1.429  12.479  12.857  0.0745  0.0740 -0.0215
 8167W        W25014  11.788  16.928  11.847  0.0676  0.0554  0.5096
 8168W        W25015  14.797  16.337  13.790  0.1142 -0.0962 -0.0838
 8169W        W25016  15.738  16.575   4.277 -0.0103 -0.0144  0.0846
 8170W        W25017   7.717   9.413  14.537 -0.1140 -0.0614  0.0921
 8171W        W25018   4.106  10.610   0.837  0.0372 -0.1131  0.1610
 8172W        W25019  10.064   6.687   2.739  0.1171 -0.0411 -0.1479
 8173W        W25020  14.561   2.840   3.435 -0.0322 -0.0358 -0.2593
 8174W        W25021   9.599  12.571   0.460  0.1115 -0.0861 -0.0560
 8175W        W25022   3.878  15.098  15.002  0.2627  0.1259  0.0860
 8176W        W25023  14.879  13.249   5.380  0.1947  0.3000 -0.1012
 8177W        W25024   8.110  13.716   2.528  0.4453 -0.0868  0.0386
 8178W        W25025   8.420   4.590  14.172  0.1774 -0.0907 -0.0234
 8179W        W25026   6.064   2.347  13.150  0.4048  0.0595  0.2434
 8180W        W25027   4.862  15.335   2.890  0.2716 -0.1249 -0.2048
 8181W        W25028  17.295   4.295   2.086 -0.0805 -0.0256  0.3048
 8182W        W25029   3.891  10.191   1.009 -0.0647  0.0443  0.0786
 8183W        W25030  15.714   5.690  12.583 -0.1234  0.0201  0.2712
 8184W        W25031  12.523   8.116   1.004  0.1451 -0.2715 -0.1944
 8185W        W25032   3.432   8.305   3.925  0.3987 -0.0078  0.1100
 8186W        W25033  10.001   9.446  14.669  0.1917 -0.1708  0.2038
 8187W        W25034   7.791  13.981  14.421 -0.0946 -0.0032 -0.2068
 8188W        W25035   0.632   4.235  15.173 -0.0941 -0.5810  0.3758
 8189W        W25036   2.478   1.430  15.030 -0.1257  0.1739 -0.5523
 8190W        W25037  13.948   7.560  13.277  0.3637 -0.0268 -0.0825
 8191W        W25038  12.371  17.769  11.464  0.0888 -0.0215 -0.2025
 8192W        W25039   5.582  12.448  15.719 -0.3322 -0.2558  0.1928
 8193W        W25040   3.583  15.100  15.472  0.1569 -0.0104  0.4665
 8194W        W25041   5.053  16.851   1.262 -0.0652 -0.1252 -0.2654
 8195W        W25042  17.528   2.361  15.571 -0.1096  0.0255  0.0468
 8196W        W25043   8.200   9.295   2.279 -0.0509  0.3600 -0.0440
 8197W        W25044  14.594  16.213  13.323  0.0217  0.0174  0.0874
 8198W        W25045   2.146   8.107   5.003 -0.1149  0.2199 -0.3626
 8199W        W25046   8.477  17.554   4.418  0.0147 -0.6062 -0.0353
 8200W        W25047   1.117  16.445  13.556  0.0103  0.0055 -0.2037
 8201W        W25048  16.086  12.010  15.557  0.0501 -0.1154  0.1791
 8202W        W25049  10.556  14.562  13.271 -0.0648 -0.1805 -0.0507
 8203W        W25050  10.343   0.276   2.861  0.1234  0.1149 -0.1474
 8204W        W25051   7.485  14.530  13.411  0.0057  0.1571  0.3982
 8205W        W25052   4.607   4.067  11.783 -0.1585  0.1152 -0.2166
 8206W        W25053   1.845   3.177   1.582 -0.2040  0.0436 -0.0224
 8207W        W25054  16.828   9.251   3.907 -0.0398  0.0271  0.0353
 8208W        W25055  11.054   6.730  12.230  0.0105  0.1613  0.1276
 8209W        W25056  17.720  17.533   0.996 -0.4926 -0.0466  0.0149
 8210W        W25057   5.921  13.963   2.229 -0.2541  0.1791  0.3533
 8211W        W25058  12.527   1.258  14.101  0.0227 -0.2103  0.0974
 8212W        W25059   6.410   0.408  15.790  0.0110  0.0707  0.1209
 8213W        W25060  10.797   7.609   2.439 -0.2007 -0.1683  0.1039
 8214W        W25061   7.927   5.163   5.176 -0.1209 -0.0550 -0.1384
 8215W        W25062  16.671   4.918   2.247  0.0332  0.0378 -0.2113
 8216W        W25063   1.066   3.418  15.715 -0.4371 -0.0313 -0.0405
 8217W        W25064  12.664  13.897   0.865 -0.0282  0.0211 -0.1499
 8218W        W25065   5.780   4.888   4.102 -0.1900 -0.2564  0.2088
 8219W        W25066  14.096   2.651  11.484 -0.1065 -0.1799  0.1144
 8220W        W25067  15.057   8.626   2.817 -0.1000  0.0368  0.0231
 8221W        W25068   7.101  13.009  14.864 -0.1100 -0.0856  0.3170
 8222W        W25069   2.342   6.902  15.534 -0.0362 -0.1720 -0.0237
 8223W        W25070   9.659  14.512   6.143 -0.0046  0.1950  0.1415
 8224W        W25071   3.696  16.113   1.360 -0.1114 -0.2179  0.3171
 8225W        W25072  17.312  17.303  10.965 -0.1829  0.0671 -0.2212
 8226W        W25073   7.824  12.467   4.360 -0.1549  0.2427 -0.1928
 8227W        W25074   4.052   8.346   1.202  0.1081 -0.0863  0.0358
 8228W        W25075   2.943  14.461  14.997 -0.4079 -0.1746  0.0299
 8229W        W25076   5.059  13.142   2.969  0.1894 -0.0157 -0.3156
 8230W        W25077   6.545   3.252  12.944  0.0167  0.2103  0.0821
 8231W        W25078  16.180   5.504   2.029 -0.3576  0.0044 -0.1888
 8232W        W25079   2.395   3.942  15.134 -0.1747 -0.0766  0.0326
 8233W        W25080   3.040   4.798   4.368  0.0912 -0.1348 -0.0499
 8234W        W25081   4.425   2.858  16.552 -0.1980 -0.1603  0.2364
 8235W        W25082   0.999   8.387   6.108 -0.0387 -0.0012 -0.4507
 8236W        W25083  15.523   2.303   2.569 -0.0949 -0.1712 -0.2026
 8237W        W25084   0.225   8.179   2.842 -0.2530  0.0395  0.0513
 8238W        W25085   6.832  14.329   3.801  0.1302 -0.0237  0.6188
 8239W        W25086  13.446  15.547  14.745  0.0938  0.0493  0.1411
 8240W        W25087  13.785  15.735  13.076 -0.2126  0.0492 -0.2720
 8241W        W25088   1.783  17.454   4.934 -0.1133 -0.1201  0.1738
 8242W        W25089  11.014  16.981  15.359 -0.0203  0.1305  0.2887
 8243W        W25090   1.516  14.011   3.543 -0.2831  0.5612 -0.1566
 8244W        W25091   9.150  10.437   5.358 -0.2085  0.3197  0.0617
 8245W        W25092   2.844  10.300   4.091 -0.1696 -0.0745 -0.0824
 8246W        W25093   1.762   8.575  13.266 -0.3983  0.0337 -0.1801
 8247W        W25094  16.802  17.110  16.601  0.2234 -0.1688 -0.0964
 8248W        W25095   4.908   8.348   2.055  0.0380  0.1962  0.1504
 8249W        W25096   6.943   6.493  15.337  0.1208 -0.3234  0.1880
 8250W        W25097  15.212   8.357   1.302 -0.1430  0.2754  0.3669
 8251W        W25098  11.777   1.445   5.348 -0.0856  0.2992 -0.2747
 8252W        W25099  10.504   2.812   5.065  0.3032 -0.0438  0.4173
 8253W        W25100  14.236   9.763   1.656  0.2830 -0.0496  0.2293
 8254W        W25101   5.149  15.349   2.450 -0.0212 -0.2781  0.3285
 8255W        W25102  16.783  12.966  11.908  0.2332  0.1658 -0.0377
 8256W        W25103   1.725  10.604   0.239  0.0580 -0.0142  0.2600
 8257W        W25104  13.187   1.476   5.473 -0.1172 -0.0579 -0.1999
 8258W        W25105   4.622  17.439   1.004  0.0132  0.0658  0.0441
 8259W        W25106   3.830  11.392   4.470 -0.1632  0.1052  0.0512
 8260W        W25107   7.292   5.569  15.383 -0.0755 -0.0887  0.0788
 8261W        W25108  12.486  17.898   4.388  0.3297  0.0482  0.1307
 8262W        W25109  14.793  14.918   2.115  0.1134 -0.0679 -0.0725
 8263W        W25110   6.362   3.721   1.770  0.2237 -0.1814  0.1179
 8264W        W25111   8.919  10.686   2.682 -0.2541  0.1774  0.0782
 8265W        W25112   3.789   0.315  12.204 -0.1247  0.1835 -0.2862
 8266W        W25113   9.335  12.044  13.209  0.0587  0.1316 -0.1987
 8267W        W25114   4.574  11.319  13.079  0.2869 -0.0490  0.0754
 8268W        W25115   4.055   4.256  15.223  0.1447 -0.1077  0.2939
 8269W        W25116  17.283  17.717  13.522  0.1686 -0.1009  0.0493
 8270W        W25117   9.418  10.312   1.653  0.0806 -0.1626 -0.1007
 8271W        W25118   0.838   1.046   5.292  0.1085  0.2289  0.2160
 8272W        W25119   3.436  17.878   0.242  0.0411  0.0443 -0.1288
 8273W        W25120  10.451  13.556  12.173  0.0852  0.1432 -0.1186
 8274W        W25121  16.037   1.419  14.406 -0.1447 -0.2214  0.2524
 8275W        W25122  14.479   4.886   5.395  0.1151  0.0545  0.0749
 8276W        W25123   5.472   5.597   3.329 -0.2261  0.0571  0.0613
 8277W        W25124  13.501  16.879  14.986  0.1434 -0.1705 -0.1312
 8278W        W25125   8.686   1.435   3.831 -0.0189 -0.0647  0.0306
 8279W        W25126   5.891   5.687  15.626 -0.0313 -0.0872  0.1619
 8280W        W25127  13.240   8.420  12.259  0.5033 -0.0387  0.1820
 8281W        W25128  14.640   5.849  14.080  0.2571  0.1445  0.0327
 8282W        W25129   0.009  16.914   2.588  0.0799 -0.0383 -0.1854
 8283W        W25130  18.170  15.092   0.890 -0.0236 -0.0559  0.0630
 8284W        W25131  15.295   1.321  14.828  0.2043 -0.1050  0.2900
 8285W        W25132  17.669   2.471  14.597 -0.0096  0.1402 -0.1593
 8286W        W25133  10.376  12.617   1.664 -0.0088 -0.2512  0.1197
 8287W        W25134   7.100  10.269  16.348 -0.1282  0.3111  0.1142
 8288W        W25135   2.814  14.880  13.872  0.1758 -0.0346  0.2478
 8289W        W25136   2.844   6.043   3.839  0.1697 -0.1411  0.3341
 8290W        W25137   0.681   4.697  14.042  0.1492 -0.0053 -0.0291
 8291W        W25138   0.608  15.292   6.513 -0.0877 -0.0985 -0.1356
 8292W        W25139  16.736   6.189   4.575 -0.0879 -0.1599 -0.1105
 8293W        W25140  17.290   8.004   3.179  0.1146  0.1200 -0.0726
 8294W        W25141   1.896   4.034  16.094 -0.0520 -0.1569 -0.0424
 8295W        W25142   5.460   4.413   2.139 -0.4615 -0.1505 -0.2351
 8296W        W25143   4.162   6.471  13.210 -0.2014 -0.0362  0.2116
 8297W        W25144  14.581  15.694   0.490 -0.2004 -0.0819  0.0333
 8298W        W25145  17.803   7.585   2.474 -0.1549 -0.0633  0.1412
 8299W        W25146   2.975   7.815  13.498 -0.1427  0.0023 -0.0965
 8300W        W25147   7.024   1.849   5.436 -0.0339 -0.0756 -0.3820
 8301W        W25148   9.523   9.327  12.968  0.1524  0.1842 -0.0838
 8302W        W25149   2.017  12.828  15.644  0.2041 -0.0286  0.1526
 8303W        W25150   3.529  15.728   0.121 -0.1189 -0.3170 -0.3101
 8304W        W25151   4.734  14.757  12.648 -0.0342  0.1342  0.2289
 8305W        W25152  10.204  10.691  14.501  0.0940  0.2400 -0.4493
 8306W        W25153   5.141  13.842  15.253  0.1203  0.0838 -0.1973
 8307W        W25154  10.243   2.537   4.477  0.0656  0.0414 -0.0654
 8308W        W25155  14.890  13.344   1.342 -0.0651 -0.0745  0.0334
 8309W        W25156   5.163   9.295  12.198 -0.0089 -0.0026  0.3294
 8310W        W25157  10.389   2.098   4.244  0.3989  0.3465  0.0713
 8311W        W25158  12.922   5.492   5.619  0.2472 -0.3772 -0.0578
 8312W        W25159   6.047   8.715  13.051  0.1424 -0.0509 -0.0301
 8313W        W25160  12.248   2.902   2.138 -0.0496  0.0019  0.0014
 8314W        W25161  17.806   5.165  14.412 -0.0648 -0.0325 -0.1609
 8315W        W25162   6.749  16.060  15.375  0.2348  0.2600 -0.0203
 8316W        W25163   2.001  17.196   3.800  0.0906 -0.0366  0.0441
 8317W        W25164  14.318  12.838  12.997  0.0591 -0.4002  0.3189
 8318W        W25165  12.060   4.574   5.300  0.2996 -0.1292  0.2179
 8319W        W25166   4.751   8.070   1.500  0.0104  0.2970  0.1273
 8320W        W25167   7.772   0.578  16.194  0.3965 -0.0601 -0.0346
 8321W        W25168   8.371   1.907   1.434 -0.0793  0.0512 -0.0463
 8322W        W25169  12.115   3.395   4.710 -0.1394 -0.1259  0.1160
 8323W        W25170  12.024  18.055   2.762 -0.0984  0.1517 -0.1290
 8324W        W25171   2.611   9.624  15.157  0.0181 -0.1068  0.0612
 8325W        W25172   9.714  16.952   4.021 -0.1422 -0.0816 -0.2473
 8326W        W25173  13.363   6.006   1.904  0.2050  0.2292 -0.0613
 8327W        W25174   7.839  16.441   4.820 -0.3645  0.3588  0.2618
 8328W        W25175   3.660  15.060   0.814 -0.5397  0.0606  0.0578
 8329W        W25176  11.123   4.254  12.198  0.1772 -0.2462  0.0774
 8330W        W25177  12.067  12.061   2.078 -0.2852 -0.2401 -0.1047
 8331W        W25178   5.289  17.242   4.318 -0.0950 -0.2045 -0.0028
 8332W        W25179   9.286  18.036   5.285 -0.2395  0.2166  0.3584
 8333W        W25180   2.865  12.035   0.929 -0.0367 -0.1545  0.3198
 8334W        W25181   3.063   4.209   5.819 -0.2909  0.0125 -0.0052
 8335W        W25182  15.720   7.942  12.295  0.3073  0.1250 -0.1356
 8336W        W25183  13.918   2.985  11.777  0.0592  0.0795 -0.0588
 8337W        W25184  10.015   3.632  12.681  0.0951 -0.2311 -0.3004
 8338W        W25185   0.487  13.454  13.241 -0.0331 -0.1004  0.1983
 8339W        W25186   3.753  13.238  12.856 -0.1239  0.0333 -0.0157
 8340W        W25187   0.719  15.875   3.643  0.0595 -0.1233  0.0989
 8341W        W25188  12.048  14.651   3.956  0.3088  0.0704 -0.1492
 8342W        W25189   3.653  11.831  16.190  0.0911  0.3748 -0.0188
 8343W        W25190  15.796  11.665   0.143  0.0478  0.0404 -0.2913
 8344W        W25191  10.176  12.736   5.109 -0.0436 -0.1448 -0.1586
 8345W        W25192  16.193   3.915  11.554  0.1953 -0.1596  0.1733
 8346W        W25193  10.684   2.128  12.253 -0.2038  0.0824  0.1675
 8347W        W25194  17.036  13.967  14.459  0.0368 -0.0411  0.1224
 8348W        W25195   2.468  14.206   0.021 -0.1284 -0.3032  0.1422
 8349W        W25196   8.187  15.904   3.540 -0.1527  0.1635  0.0036
 8350W        W25197  17.004   8.075   2.236  0.2080 -0.3981 -0.1176
 8351W        W25198   5.831   9.539   5.128 -0.0290  0.1569  0.2679
 8352W        W25199  11.185  13.335  13.313  0.1268  0.0442  0.0104
 8353W        W25200  14.146  10.636   3.738 -0.1076 -0.2544  0.0551
 8354W        W25201   3.857   5.844  16.068  0.1379 -0.2516 -0.1334
 8355W        W25202   1.421   8.197   3.170 -0.0704  0.2442  0.2257
 8356W        W25203  10.284   6.505  15.586 -0.0194 -0.2663  0.3392
 8357W        W25204   2.086   2.964  11.267 -0.0014 -0.0248 -0.0200
 8358W        W25205   6.369  10.536  13.080 -0.3409  0.2169  0.1538
 8359W        W25206   2.059  17.408   0.490 -0.1803 -0.0098  0.1996
 8360W        W25207   1.659   3.411  14.563  0.1903  0.0622  0.1257
 8361W        W25208   9.845  11.760   3.859  0.2503  0.1091 -0.0643
 8362W        W25209  10.832   8.146  11.212  0.3112  0.0459 -0.0342
 8363W        W25210   6.710  18.022   3.574  0.1878 -0.0112  0.1500
 8364W        W25211  11.690   1.044   4.167 -0.0520  0.1004  0.1836
 8365W        W25212   4.511  11.838   4.089 -0.2922 -0.5045  0.1474
 8366W        W25213   5.973   7.674   4.495  0.0638  0.1406 -0.0157
 8367W        W25214  15.380  13.620  12.846  0.0697  0.0362  0.0872
 8368W        W25215   8.464   0.822   0.116 -0.0347 -0.0588  0.0872
 8369W        W25216  16.738   1.683   1.890  0.3617 -0.0098 -0.1005
 8370W        W25217  17.367  13.109   1.547 -0.3095  0.1844 -0.1588
 8371W        W25218  15.921   2.716  14.552 -0.3393 -0.1565 -0.1478
 8372W        W25219   9.917  15.431   4.332 -0.2811  0.0879  0.4753
 8373W        W25220   1.878  17.307   1.820 -0.2911  0.3391  0.1464
 8374W        W25221  14.004   8.875  12.194  0.0997  0.1583  0.0070
 8375W        W25222   5.827   9.648   2.418 -0.0016 -0.0496 -0.1623
 8376W        W25223  14.275  17.900  13.046 -0.0945  0.3571 -0.0451
 8377W        W25224   1.372   0.047  12.274 -0.1234  0.2751  0.1262
 8378W        W25225  17.000  13.184  12.423 -0.2517  0.2255 -0.3177
 8379W        W25226  13.351   7.907   2.737  0.1849 -0.0011 -0.1337
 8380W        W25227  15.269  11.397   3.574 -0.1456 -0.4921 -0.0756
 8381W        W25228  14.293   7.518  13.974 -0.5454  0.1207 -0.2867
 8382W        W25229   7.970  16.420  13.394  0.2479 -0.0352  0.1184
 8383W        W25230  16.428   7.208  12.645 -0.1206 -0.0508 -0.1353
 8384W        W25231  13.958  15.181   1.827  0.2203 -0.0606  0.1957
 8385W        W25232  12.280   8.100  14.133  0.2277  0.0015  0.0275
 8386W        W25233   2.577  17.165   0.104 -0.0051  0.1753 -0.3418
 8387W        W25234  10.271  12.221  16.054  0.0545  0.0123 -0.0705
 8388W        W25235   9.911  13.072   3.281 -0.6011 -0.0686  0.3064
 8389W        W25236   8.180  14.173   3.884 -0.1197 -0.3407  0.0530
 8390W        W25237   1.292   0.520  13.210  0.1792 -0.2986 -0.0814
 8391W        W25238   6.689   8.801   1.011  0.1086  0.0023  0.1861
 8392W        W25239   7.986  15.399   0.094  0.0522 -0.0661 -0.0858
 8393W        W25240   1.144  13.067  15.605  0.0563 -0.1677 -0.0036
 8394W        W25241  17.645  10.048   3.312 -0.1560  0.0199 -0.2350
 8395W        W25242  15.526  16.802   2.913  0.2365 -0.2655  0.3527
 8396W        W25243  14.241  14.305   4.824  0.0510  0.2172  0.0921
 8397W        W25244   3.161  16.420  15.567 -0.1671 -0.0121 -0.0498
 8398W        W25245   7.792   7.796   2.755 -0.2640  0.0555 -0.1650
 8399W        W25246   5.296  16.363   0.584  0.2591 -0.1803 -0.1884
 8400W        W25247   4.949  16.340   2.721  0.1145  0.0789  0.3787
 8401W        W25248   3.539  14.381   3.797  0.2613 -0.1035 -0.1754
 8402W        W25249  14.031   7.621   0.566  0.0901 -0.3805 -0.0853
 8403W        W25250  12.187  16.399  11.272  0.1269  0.3293 -0.0248
 8404W        W25251  11.622   4.898   5.541  0.1614  0.0229 -0.2510
 8405W        W25252   8.396  17.146   4.750 -0.2524 -0.1225 -0.0729
 8406W        W25253  14.723   8.835   0.203  0.3431  0.1327  0.0208
 8407W        W25254  11.497   4.430  16.555  0.1656  0.3004 -0.0974
 8408W        W25255   8.071   0.691   2.241 -0.1479  0.2524  0.0962
 8409W        W25256   5.247   5.020   3.851 -0.2237 -0.1064 -0.1132
 8410W        W25257   2.489  15.078  13.451  0.1465  0.0472  0.1064
 8411W        W25258   4.562   8.494   0.250  0.1635  0.1166  0.1058
 8412W        W25259  10.577  16.406  12.881  0.1660  0.1030  0.2331
 8413W        W25260   7.647  13.320   5.378 -0.1132  0.2478  0.0666
 8414W        W25261   6.818  12.473   0.540  0.0348  0.2573  0.1282
 8415W        W25262   7.013   3.322  12.990  0.2373 -0.2338 -0.2928
 8416W        W25263   2.387   7.996   4.106 -0.0245 -0.1139  0.3377
 8417W        W25264   9.922  14.492  14.943 -0.4204  0.1459 -0.0438
 8418W        W25265   2.220  12.844  13.360  0.1797  0.0664  0.1304
 8419W        W25266  16.553   6.218   2.090  0.1203 -0.1532  0.0041
 8420W        W25267   9.812  11.438  15.761 -0.0431  0.2726  0.2607
 8421W        W25268   4.024   3.271   5.404  0.1168 -0.1778 -0.2776
 8422W        W25269  10.947   3.900   3.380  0.0888  0.2516 -0.3512
 8423W        W25270   7.922   6.278   4.262 -0.0109 -0.0761  0.1884
 8424W        W25271  13.767   7.596  12.736 -0.2983 -0.4885  0.1036
 8425W        W25272  12.899   2.320  14.516  0.2481 -0.1127  0.1655
 8426W        W25273   8.160   3.004   1.931  0.1808 -0.0376 -0.2087
 8427W        W25274   3.556   3.176   3.228  0.0415 -0.4559  0.0861
 8428W        W25275   0.317  16.083   3.464 -0.0643  0.3265  0.0964
 8429W        W25276   3.002  16.519   4.937  0.0379  0.1485 -0.1605
 8430W        W25277   4.036  17.628   6.638 -0.0869 -0.3169 -0.0835
 8431W        W25278   6.592   2.371   4.676  0.2442 -0.1571 -0.1374
 8432W        W25279  14.244  17.281  15.189 -0.2233  0.1753 -0.0942
 8433W        W25280  13.759  18.137  16.460 -0.0730  0.2764  0.3539
 8434W        W25281  11.946   6.729   1.363 -0.1130 -0.1698  0.0824
 8435W        W25282   8.700  11.895   2.029 -0.0426 -0.1684 -0.2011
 8436W        W25283  17.391   1.410  14.186  0.1770  0.2251  0.1642
 8437W        W25284  15.681   0.120  14.098  0.2121  0.0301  0.0212
 8438W        W25285  17.060  17.047  14.274 -0.3675  0.0273 -0.0517
 8439W        W25286  13.365  16.281   2.331  0.3038  0.1947  0.3049
 8440W        W25287  17.830   9.551   2.341  0.3229  0.3562  0.1057
 8441W        W25288   9.919   1.435   2.563 -0.0530 -0.0281 -0.2055
 8442W        W25289   2.198  17.223   4.879  0.0640 -0.0780 -0.3034
 8443W        W25290   4.119   3.616   0.255  0.0575  0.2538  0.0359
 8444W        W25291   9.075   0.795   1.995 -0.2880  0.1350 -0.1504
 8445W        W25292  17.282  13.904   5.415 -0.2750 -0.1866  0.2217
 8446W        W25293  17.024   0.668  10.952 -0.1851 -0.3334 -0.3742
 8447W        W25294   5.317  12.193   1.559 -0.0232  0.4118 -0.0375
 8448W        W25295  14.723  11.776   4.087 -0.1172 -0.1437 -0.2438
 8449W        W25296   3.703  16.903  15.771  0.2351 -0.3175  0.4779
 8450W        W25297  14.050  12.288   2.442  0.1056 -0.2537 -0.2108
 8451W        W25298  16.925   1.336  15.018 -0.0459  0.0204  0.1678
 8452W        W25299   0.057  13.144   2.705 -0.1195  0.1113 -0.1535
 8453W        W25300  12.711   2.574  15.995 -0.0119  0.5313  0.1413
 8454W        W25301   0.292  12.174   1.115 -0.1598 -0.1732 -0.0087
 8455W        W25302   5.895  17.476   3.736 -0.0337 -0.0279 -0.0343
 8456W        W25303   1.272  14.093   5.069 -0.0080 -0.0325 -0.1790
 8457W        W25304  18.044  11.636  13.786 -0.3286 -0.1434  0.0084
 8458W        W25305  15.020   8.975  15.723 -0.0534  0.3300 -0.0897
 8459W        W25306   5.276   8.918  15.883 -0.0191  0.0506  0.1740
 8460W        W25307   6.643  14.168  16.494  0.2410  0.1458  0.3398
 8461W        W25308   3.389  11.090   1.309  0.0111 -0.0622  0.3818
 8462W        W25309  14.336  17.160  15.678 -0.3084  0.0527  0.0121
 8463W        W25310  10.018  11.999  16.453 -0.2937 -0.3777  0.1282
 8464W        W25311   0.307   4.161   2.398 -0.0875 -0.1579  0.0921
 8465W        W25312  15.169   1.034  11.884  0.0752  0.0587  0.1914
 8466W        W25313  11.794   4.124  16.299  0.0139 -0.0327  0.0329
 8467W        W25314  13.955   2.801   5.297  0.2156 -0.1403 -0.2257
 8468W        W25315   6.904  15.213  15.564 -0.3503 -0.1314 -0.2666
 8469W        W25316   6.265   3.689   1.320  0.0214  0.2151 -0.0256
 8470W        W25317  17.197  10.026  12.350  0.1269  0.4517  0.0032
 8471W        W25318   7.466   5.571  16.391 -0.2965  0.1704 -0.0458
 8472W        W25319   2.720   7.105   2.847 -0.2003  0.1181  0.0216
 8473W        W25320  15.083   2.481  15.368  0.0773  0.0159 -0.2584
 8474W        W25321   8.994   8.452   4.782  0.0625 -0.0842  0.0957
 8475W        W25322  15.463   0.530  11.951  0.1193  0.0124  0.0841
 8476W        W25323   7.975   2.094   3.462 -0.0478 -0.0540  0.2118
 8477W        W25324   0.171  14.027   2.389 -0.1752 -0.0815  0.0452
 8478W        W25325  13.559  18.023   4.474 -0.0050  0.3091 -0.3185
 8479W        W25326  17.899   5.615   0.673 -0.1679  0.2093  0.3117
 8480W        W25327   2.549   7.629  13.995  0.1264  0.2129  0.0235
 8481W        W25328   9.585  10.292   0.531 -0.1614 -0.0067 -0.1361
 8482W        W25329  12.058  12.947   3.163  0.1776  0.1057 -0.2978
 8483W        W25330   6.452  12.903   3.858 -0.1052  0.3651 -0.2266
 8484W        W25331   1.642   1.706  11.439 -0.0666  0.2545  0.0710
 8485W        W25332   9.731   3.641  14.537 -0.1768 -0.2353  0.1535
 8486W        W25333   8.093  16.894   3.324 -0.1863 -0.1392 -0.3026
 8487W        W25334  14.889   4.301   1.330  0.4118 -0.0641  0.2721
 8488W        W25335   4.946   1.538   6.218 -0.1723  0.1139 -0.4677
 8489W        W25336  17.444   7.565  12.771 -0.0352 -0.0129 -0.0739
 8490W        W25337   4.569   9.834   0.364  0.1070  0.0347 -0.0327
 8491W        W25338   7.381  10.735   4.026 -0.2624  0.0094 -0.0158
 8492W        W25339  15.645  17.603   5.142  0.1174  0.2660  0.0998
 8493W        W25340  11.857  14.694   4.936  0.0550 -0.0992  0.3910
 8494W        W25341  13.791   8.453  13.310 -0.3306  0.0065  0.2154
 8495W        W25342  12.127   8.880  11.855 -0.1535 -0.0443 -0.1981
 8496W        W25343  13.415   9.661  15.334 -0.0625 -0.1435 -0.2478
 8497W        W25344  13.906   2.927  16.139 -0.2555 -0.2518 -0.2542
 8498W        W25345   7.353  13.786  14.667 -0.1277 -0.1054  0.0103
 8499W        W25346   9.701   2.315   1.662  0.0295  0.2061 -0.2353
 8500W        W25347  12.275  14.596  14.530 -0.0597 -0.2303 -0.1388
 8501W        W25348   7.610  14.602   1.487 -0.1601 -0.1474 -0.0874
 8502W        W25349   3.551  16.632   3.963  0.4462 -0.0224 -0.1275
 8503W        W25350   4.455   5.656   3.543 -0.0188  0.0822  0.1436
 8504W        W25351   1.768  10.475   1.612  0.0345 -0.1416 -0.1966
 8505W        W25352   0.222  12.654   4.092 -0.1201  0.1690 -0.1614
 8506W        W25353   3.762  16.728   2.099  0.0548  0.0384 -0.1811
 8507W        W25354  16.990  13.434   3.938 -0.0789 -0.0074  0.1703
 8508W        W25355  10.055   6.707   4.837 -0.0317  0.1160  0.1306
 8509W        W25356  17.120   0.064  11.123  0.3110 -0.2618 -0.2937
 8510W        W25357  10.987   8.475  13.308  0.0413 -0.0177  0.0825
 8511W        W25358   5.017  16.152   5.146 -0.1492  0.0313 -0.0164
 8512W        W25359  15.835   5.421   3.674 -0.2528 -0.0545 -0.4232
 8513W        W25360   0.308  15.284   4.195  0.1519 -0.1785  0.5269
 8514W        W25361   4.862   2.947  13.269  0.0247 -0.3178  0.3103
 8515W        W25362   9.249   5.377   3.211  0.2231 -0.1422  0.2469
 8516W        W25363  16.900   1.260   3.170 -0.2068 -0.2821 -0.2454
 8517W        W25364  12.858   8.147  11.990  0.1730 -0.0239  0.0054
 8518W        W25365   0.486   4.385  16.436 -0.4845 -0.0408 -0.3347
 8519W        W25366   4.983  11.373  12.749 -0.0690 -0.1080  0.0913
 8520W        W25367   4.344  12.695   3.130  0.2212  0.2788 -0.0670
 8521W        W25368  17.546   8.132  12.333  0.1277  0.3958 -0.1151
 8522W        W25369   7.114   2.141  11.647  0.0511 -0.1995 -0.0099
 8523W        W25370  15.929   7.851  13.180  0.0398 -0.1602 -0.0426
 8524W        W25371   0.831   7.093   0.119 -0.0685  0.0332  0.1760
 8525W        W25372   6.598   2.901  12.532  0.1847 -0.3352  0.0185
 8526W        W25373  14.079   8.845  13.312  0.1303 -0.2206  0.2025
 8527W        W25374   3.610   6.956  15.705 -0.3019  0.0089 -0.0120
 8528W        W25375  11.806   8.756   5.368  0.0755 -0.1146  0.0309
 8529W        W25376  12.588   1.024   3.253  0.0298 -0.0859  0.0559
 8530W        W25377   7.551  17.383  14.843  0.1025 -0.0277  0.0953
 8531W        W25378   4.046   4.809  11.705  0.5630 -0.1311 -0.1107
 8532W        W25379   3.718  16.264   4.835  0.0423  0.0355 -0.0693
 8533W        W25380   8.230   3.910   1.228  0.0154  0.0507 -0.3516
 8534W        W25381   2.421  11.110   4.702  0.1847  0.1490 -0.0391
 8535W        W25382  11.064   0.040  16.553 -0.0740  0.0035  0.2621
 8536W        W25383   5.836   5.041   4.591 -0.3230 -0.0712 -0.0848
 8537W        W25384  15.618   5.024   3.928 -0.2578 -0.4679 -0.0008
 8538W        W25385  14.324   4.562   1.274  0.2483 -0.2230  0.2889
 8539W        W25386   0.832   3.419  11.032 -0.1261 -0.0457 -0.0491
 8540W        W25387  17.356  12.189   1.358 -0.2345 -0.0450  0.0979
 8541W        W25388  12.719  10.381   0.953 -0.4550 -0.0935 -0.1699
 8542W        W25389  16.322   6.335  13.954 -0.1353  0.1404  0.0277
 8543W        W25390   4.282  13.091  13.760 -0.0419  0.2549  0.2908
 8544W        W25391  10.272  15.858   0.768 -0.1193  0.1511 -0.0677
 8545W        W25392  16.328  10.025  11.703  0.0276  0.0842  0.3717
 8546W        W25393   7.002  12.577   5.034  0.0043  0.0136  0.3561
 8547W        W25394  12.925  10.568  16.202  0.0166  0.1323 -0.0049
 8548W        W25395   2.727   4.880  12.987 -0.1446 -0.1046 -0.2070
 8549W        W25396  12.795  18.096  12.823  0.1000 -0.0284 -0.0800
 8550W        W25397  13.509   4.663  12.068  0.0441 -0.2357  0.2276
 8551W        W25398  15.316  15.193   0.523 -0.2032 -0.0216  0.1798
 8552W        W25399   1.934   6.897   4.548  0.2060 -0.1260 -0.1270
 8553W        W25400   7.036  12.011   3.151 -0.0270 -0.2790  0.0903
 8554W        W25401  17.662  16.976  16.123 -0.1149 -0.0860  0.0530
 8555W        W25402  10.549   5.862   4.227  0.1268 -0.0633 -0.0321
 8556W        W25403  12.427   9.813   2.710 -0.0437 -0.0028 -0.0716
 8557W        W25404   2.442  14.392   2.388  0.1600 -0.4556 -0.0469
 8558W        W25405   8.686   7.054   5.231 -0.2042  0.1289  0.0259
 8559W        W25406   4.378   3.780   1.608 -0.0511 -0.0937  0.1398
 8560W        W25407   2.333   0.473   5.028 -0.0795  0.0576  0.2598
 8561W        W25408   6.452  13.827  16.039 -0.3074 -0.0283 -0.3016
 8562W        W25409  10.086   5.164   3.229  0.1193  0.5071  0.0325
 8563W        W25410  10.641   6.578  13.697 -0.2194 -0.0840  0.2150
 8564W        W25411  10.320   2.349   2.191 -0.0023  0.4459 -0.0420
 8565W        W25412   1.897  13.943   5.655 -0.0015  0.3574 -0.1916
 8566W        W25413   3.346   5.908   3.935  0.1720 -0.2741 -0.1259
 8567W        W25414   7.501  16.656   4.426  0.0352  0.1667 -0.1474
 8568W        W25415  16.484  14.009   6.244  0.1570 -0.1284  0.2494
 8569W        W25416   3.488   5.572  14.970  0.2102  0.3200 -0.3406
 8570W        W25417   6.465   9.996   4.575  0.2415 -0.2531  0.0500
 8571W        W25418   8.208   1.178  14.875 -0.0027  0.1703  0.2767
 8572W        W25419  10.155   7.489   4.328  0.2549  0.3498 -0.0679
 8573W        W25420  12.106  14.891  12.523 -0.2504 -0.2552  0.4662
 8574W        W25421  13.609  14.053  14.297 -0.3237  0.2323 -0.1965
 8575W        W25422  17.491  13.051   1.043  0.2113  0.1261 -0.0180
 8576W        W25423   3.124  17.678   4.591 -0.2151  0.1978  0.2139
 8577W        W25424   0.282   0.176   3.298  0.0958 -0.0704 -0.1278
 8578W        W25425   6.261   7.061   3.583  0.0604  0.3468 -0.0474
 8579W        W25426   2.565  10.235  16.347 -0.2907  0.0471  0.0960
 8580W        W25427   4.412  14.045   0.315 -0.0012 -0.2227  0.0922
 8581W        W25428   4.837   6.361   0.429  0.0317 -0.0439  0.0804
 8582W        W25429  10.486   2.556  12.119 -0.0513  0.1198 -0.2451
 8583W        W25430   4.641  11.358   0.821  0.0168  0.3871  0.0504
 8584W        W25431  10.449   4.465   5.005  0.3428  0.1676 -0.1614
 8585W        W25432   5.763  11.214   1.407 -0.0384 -0.1121  0.0171
 8586W        W25433   8.228   5.368  14.862  0.0108  0.0549  0.0722
 8587W        W25434  16.524   2.148   4.303  0.0102  0.0952  0.5134
 8588W        W25435   2.636  12.728   4.651  0.0081  0.0291  0.3426
 8589W        W25436   4.314  11.361   2.655  0.0079 -0.0088 -0.1435
 8590W        W25437  11.868  10.515   2.280  0.1956 -0.0101 -0.0479
 8591W        W25438  16.027   9.871  11.270  0.0279 -0.1434 -0.2223
 8592W        W25439   2.997  15.875  13.121  0.2686  0.1959 -0.0314
 8593W        W25440  13.089   3.038   1.881 -0.0055  0.1442  0.1397
 8594W        W25441  13.921   1.844   2.902 -0.2695  0.2441  0.0085
 8595W        W25442   4.894   9.830   3.700  0.0674  0.0682  0.1760
 8596W        W25443  10.035   4.891   0.729 -0.5155 -0.0697  0.3164
 8597W        W25444   5.079   5.466  16.084 -0.0997 -0.0629  0.0848
 8598W        W25445   0.687   7.212   4.386 -0.0713 -0.0914  0.1371
 8599W        W25446  14.997   1.523  13.900  0.1195  0.0784 -0.2212
 8600W        W25447   6.323  15.125   2.357 -0.2134  0.1850 -0.0341
 8601W        W25448  16.222   2.661   1.053  0.2545  0.2088 -0.0263
 8602W        W25449  14.968   3.012  14.641  0.1643 -0.2801 -0.0971
 8603W        W25450   3.938   6.895  16.091 -0.0743 -0.1042  0.0890
 8604W        W25451  15.319   2.451  10.661  0.0018  0.3084 -0.0201
 8605W        W25452  17.150   0.393  14.843  0.4221  0.1024  0.2055
 8606W        W25453   2.901  10.130  12.788  0.4985  0.0424  0.1737
 8607W        W25454   9.792   5.024   1.735 -0.0559  0.1684  0.0242
 8608W        W25455  10.661   2.209   3.460  0.0845 -0.0677 -0.1457
 8609W        W25456  17.051  10.212   3.894  0.0879  0.1321  0.2507
 8610W        W25457   7.373   6.008  11.124 -0.1861 -0.2865 -0.0633
 8611W        W25458   8.006  10.667   1.847  0.0970  0.1825 -0.3124
 8612W        W25459  16.733  13.106  14.165 -0.2407 -0.0667 -0.0146
 8613W        W25460  11.446   5.743  11.707 -0.0731  0.0010 -0.0808
 8614W        W25461   2.743   7.409   3.408 -0.1178 -0.2129 -0.0007
 8615W        W25462  15.332  10.349  13.338 -0.0401  0.0175  0.1819
 8616W        W25463   5.446  13.392  15.302 -0.3251 -0.0855  0.1526
 8617W        W25464  14.129  17.465   1.891  0.0675 -0.1566 -0.2827
 8618W        W25465  16.663   8.265  16.546 -0.3052 -0.2392 -0.0888
 8619W        W25466   1.264   2.031   0.516 -0.1509  0.0315 -0.1847
 8620W        W25467  17.892   0.559  15.435  0.0360 -0.1393 -0.0272
 8621W        W25468  17.004   2.000   3.940  0.2936 -0.2019 -0.0710
 8622W        W25469   6.476  16.445  11.895 -0.0634  0.0714  0.1476
 8623W        W25470   8.614   7.542  15.520 -0.2929  0.1351  0.1360
 8624W        W25471  10.253  13.806  13.233 -0.0007  0.3594  0.4110
 8625W        W25472   4.370  12.209   3.382  0.2105 -0.0770  0.0476
 8626W        W25473  15.751   3.113  11.142 -0.0536  0.0219  0.2397
 8627W        W25474  12.499  17.577   2.450  0.0346  0.1437  0.4218
 8628W        W25475  12.387   5.720  12.436 -0.1412 -0.0975 -0.1887
 8629W        W25476  17.888   2.753   2.563 -0.0116  0.1312  0.0577
 8630W        W25477  14.862  14.864  13.553  0.0266  0.1372  0.0947
 8631W        W25478  11.430   6.121   3.995  0.1535 -0.0821  0.2362
 8632W        W25479   0.664   0.842   2.664  0.1114  0.0702 -0.2498
 8633W        W25480   9.252  15.033   3.013  0.1564  0.1999 -0.0592
 8634W        W25481  15.891   8.820   3.364 -0.0127  0.2966 -0.1140
 8635W        W25482   8.430  10.430   1.687  0.0597  0.0415  0.0481
 8636W        W25483   5.710   3.233   4.319 -0.2441  0.2546  0.3032
 8637W        W25484  15.985   4.382  11.454  0.1102 -0.2057 -0.2164
 8638W        W25485   4.406   3.257  13.025 -0.3007 -0.1057 -0.2675
 8639W        W25486   0.093   4.095   1.879  0.0798 -0.2229 -0.0931
 8640W        W25487   6.033  17.988   5.131 -0.0341 -0.0041 -0.2461
 8641W        W25488  13.572   6.462   4.392  0.0349  0.0785 -0.1837
 8642W        W25489   7.679   5.605   1.698  0.1415 -0.0509  0.2725
 8643W        W25490   1.984  10.972   1.519 -0.1896 -0.0936 -0.0637
 8644W        W25491   5.783   9.544  13.793  0.3417 -0.0861 -0.1356
 8645W        W25492   7.065  10.491  14.490  0.1310  0.2503 -0.2070
 8646W        W25493  14.784   1.246   2.758 -0.5293 -0.1899 -0.0719
 8647W        W25494   2.085  13.351  13.071  0.0193 -0.0948  0.1638
 8648W        W25495   5.846  16.464  15.156  0.1730  0.0616  0.1797
 8649W        W25496   0.576   5.341   3.581 -0.0797  0.1101  0.1220
 8650W        W25497  12.736   3.696  16.264  0.2169  0.1208 -0.0398
 8651W        W25498   5.546   8.541   1.057  0.0819 -0.0799  0.3065
 8652W        W25499  13.761  14.901   1.479  0.2520  0.0496 -0.0852
 8653W        W25500   3.793   2.230   2.229  0.0578  0.3605  0.1448
 8654W        W25501  17.125  10.428  13.806  0.1138 -0.1385 -0.1358
 8655W        W25502  10.692   9.343   0.444 -0.1597  0.0965 -0.0876
 8656W        W25503  12.836  16.022  12.273  0.0317  0.0697 -0.1887
 8657W        W25504   8.329  11.982   5.059  0.0564  0.2694 -0.1961
 8658W        W25505   3.701   3.902  11.853  0.0138  0.0872  0.4509
 8659W        W25506   2.164  14.306  12.879 -0.0461  0.0984 -0.2123
 8660W        W25507  14.702   0.841   4.170 -0.0938 -0.1100 -0.1202
 8661W        W25508  11.772   8.453  11.973  0.2735  0.1004  0.0433
 8662W        W25509  11.678   6.419   1.761 -0.0724  0.3632  0.4021
 8663W        W25510   7.409  16.256   0.331  0.0649 -0.0568  0.1849
 8664W        W25511   6.486   9.990  11.851  0.2545 -0.1876  0.1523
 8665W        W25512   5.484   7.537   4.980 -0.1165 -0.0645  0.2634
 8666W        W25513  17.720   3.939  16.306 -0.0252 -0.2639  0.0354
 8667W        W25514  10.191  12.445  11.806 -0.1997  0.0024 -0.0289
 8668W        W25515   0.146  11.204  14.974  0.0040 -0.0942  0.1783
 8669W        W25516  10.776  14.815  12.756 -0.1832  0.0065 -0.0996
 8670W        W25517  16.983  13.248   0.380 -0.0220  0.0869  0.3799
 8671W        W25518   6.971  16.680  16.274  0.1371 -0.1475  0.1044
 8672W        W25519  16.545   1.299   4.199 -0.0208 -0.0162 -0.1466
 8673W        W25520  12.737  14.301  14.605  0.0773  0.1853  0.0962
 8674W        W25521   0.434   1.542   4.605  0.1413 -0.0851  0.3362
 8675W        W25522  18.029   7.254   3.760 -0.3669  0.1904  0.0662
 8676W        W25523  15.743  12.940  13.368  0.2014  0.2005  0.1656
 8677W        W25524  10.172  17.489  11.710 -0.3559 -0.2130 -0.1848
 8678W        W25525   5.668   9.548  12.947  0.1235 -0.1658  0.0716
 8679W        W25526  13.303   3.685   4.498  0.0605 -0.0747  0.0750
 8680W        W25527   7.973  17.487   4.537 -0.0468 -0.1678  0.0844
 8681W        W25528  14.984  15.776   4.669  0.0570 -0.0337  0.1484
 8682W        W25529   9.124   6.891  13.582  0.0810  0.2789 -0.1968
 8683W        W25530  11.892  15.678   3.185 -0.1316 -0.2062  0.2693
 8684W        W25531   9.050  10.415  12.796 -0.1040  0.3414 -0.1466
 8685W        W25532   3.581  13.897   6.159 -0.4462  0.0067 -0.2263
 8686W        W25533   8.243  14.404  12.722  0.2818 -0.0300  0.0077
 8687W        W25534   2.200  14.330  15.431  0.1569  0.2526 -0.2035
 8688W        W25535  17.283   6.926  15.577 -0.0800 -0.0449  0.2241
 8689W        W25536   8.210  14.470  11.644  0.4102  0.0921 -0.0849
 8690W        W25537   0.362  16.811  14.617  0.2219 -0.3324  0.1657
 8691W        W25538   7.951  11.049  13.355  0.1175 -0.1664  0.1898
 8692W        W25539   4.859  17.461  16.327  0.1654 -0.0810  0.0723
 8693W        W25540   2.766   6.785   5.507 -0.1323  0.1838 -0.0246
 8694W        W25541  16.185  11.546  16.006  0.1863  0.0227  0.0700
 8695W        W25542  15.459  16.269  12.681 -0.0218 -0.1858 -0.4260
 8696W        W25543  11.099  12.455  14.871 -0.2253  0.0426 -0.1959
 8697W        W25544   9.109  13.329   4.750 -0.0369  0.1394  0.0953
 8698W        W25545  14.119   1.894   2.464  0.0089 -0.2177  0.1373
 8699W        W25546   6.723   4.233  12.934 -0.2350 -0.1492 -0.0823
 8700W        W25547   2.907  18.099   4.513  0.0359 -0.3279  0.2083
 8701W        W25548   8.664  10.379  11.870  0.1101 -0.1053  0.2996
 8702W        W25549  10.373  15.516   4.079  0.0992 -0.1394  0.1045
 8703W        W25550  14.938   0.223  16.132  0.1201  0.1089 -0.1823
 8704W        W25551  16.149  12.570  14.679  0.0374  0.1681 -0.2157
 8705W        W25552   4.188  12.925   2.731  0.0019  0.1998  0.0800
 8706W        W25553  10.037   0.962   5.635  0.0308 -0.0657 -0.0648
 8707W        W25554  10.486  12.139   1.543 -0.0599 -0.1321  0.1413
 8708W        W25555   2.812   6.179   0.280 -0.0142 -0.0775  0.3038
 8709W        W25556   1.693  13.019   1.375 -0.0036  0.0470 -0.0153
 8710W        W25557   7.220   5.063  16.273  0.0853  0.1176 -0.1021
 8711W        W25558   2.136   7.236   1.557 -0.1362 -0.0537  0.1900
 8712W        W25559  17.845   6.509  15.120  0.1656  0.0312 -0.1461
 8713W        W25560  11.075   8.894  13.585  0.0623 -0.2099 -0.1547
 8714W        W25561  17.784  16.205   4.199  0.6133 -0.2459 -0.0529
 8715W        W25562   4.816   1.424   2.783 -0.3694 -0.4609 -0.2212
 8716W        W25563  10.943  13.922   1.682 -0.1465 -0.2553 -0.0422
 8717W        W25564  14.919   7.750  13.491 -0.1197 -0.0313 -0.1021
 8718W        W25565  14.198   9.532  14.009  0.0752 -0.0217 -0.2181
 8719W        W25566   0.734  12.927   4.190  0.2298  0.0752 -0.0640
 8720W        W25567   2.284   9.225  15.348  0.1453  0.2027 -0.1873
 8721W        W25568   4.670   4.352   5.064 -0.2760 -0.0892 -0.0536
 8722W        W25569   6.301  12.678   0.590 -0.1041  0.3814 -0.1421
 8723W        W25570   0.992   9.133   3.751  0.0403 -0.3799 -0.1224
 8724W        W25571   1.401   3.121  15.541 -0.1154  0.1092  0.2369
 8725W        W25572   8.333   6.216  10.737  0.1372  0.1518  0.0996
 8726W        W25573   9.091   8.274   1.170  0.1781  0.1168 -0.0173
 8727W        W25574  12.601  13.698  12.930 -0.2402  0.0158 -0.0452
 8728W        W25575   7.032  16.579   2.116 -0.0649  0.3711  0.1035
 8729W        W25576  12.721   1.125  13.536 -0.0239 -0.1547  0.0454
 8730W        W25577   5.974  13.748  13.081 -0.5315  0.0947 -0.0761
 8731W        W25578  10.596  14.380  14.174 -0.4503  0.2570 -0.1707
 8732W        W25579  16.275  17.056   5.342  0.1760  0.0855 -0.1941
 8733W        W25580  17.374  13.207  14.257  0.1491 -0.1175 -0.2836
 8734W        W25581   7.142   5.290   4.746  0.2645 -0.0989 -0.0514
 8735W        W25582   2.859  12.309  15.681 -0.0691  0.0061 -0.1025
 8736W        W25583   5.214  13.737   2.844  0.3060 -0.2546 -0.1735
 8737W        W25584  10.999  15.618  12.054  0.2369  0.1109  0.0636
 8738W        W25585   7.159   2.433  15.693  0.1040 -0.1311 -0.1844
 8739W        W25586   8.843   6.023  14.764 -0.2072  0.0199 -0.1696
 8740W        W25587  11.643  16.976   1.357  0.2612  0.2892 -0.0070
 8741W        W25588  11.779  13.907   4.342  0.0352  0.0481  0.3221
 8742W        W25589  10.858   5.084  11.417 -0.0535  0.0138 -0.2570
 8743W        W25590  12.814   0.095  16.226 -0.1369 -0.2986 -0.0215
 8744W        W25591  11.830   3.571  14.027  0.2274 -0.0693 -0.0620
 8745W        W25592  16.257   6.339   4.575  0.1094 -0.2845  0.0404
 8746W        W25593   4.092  17.962   6.245  0.2572 -0.1705  0.3246
 8747W        W25594  11.156   6.756  14.470  0.0842 -0.0480 -0.1735
 8748W        W25595   5.190   4.486  15.127  0.0611 -0.1567  0.1099
 8749W        W25596  15.523   0.954   5.406 -0.2342  0.1560  0.0314
 8750W        W25597   3.795   8.585   1.679 -0.0725 -0.1804 -0.1441
 8751W        W25598   3.554   5.492  15.922  0.1741 -0.1739 -0.0608
 8752W        W25599   8.723   5.221   1.835  0.0730 -0.0737  0.0945
 8753W        W25600  17.645   5.287   4.500  0.1922 -0.2646 -0.0619
 8754W        W25601  15.603  13.056  15.077 -0.2610 -0.1676  0.0591
 8755W        W25602  15.156   3.912  12.614 -0.0550 -0.2229  0.0574
 8756W        W25603   3.982  13.716  11.991  0.0414  0.0300  0.1763
 8757W        W25604   2.794   9.094  14.827 -0.0614 -0.1118  0.0593
 8758W        W25605   7.457  12.105   4.458  0.2161  0.0754 -0.0946
 8759W        W25606   6.523  12.308   0.886 -0.1745  0.1065 -0.2056
 8760W        W25607   7.737   7.376   1.940  0.2690  0.2752 -0.0408
 8761W        W25608  14.623  16.857  15.291 -0.0901 -0.0147  0.0947
 8762W        W25609   5.406   4.445   3.751 -0.1453  0.1390  0.0058
 8763W        W25610   4.327  15.754   4.947  0.1008 -0.3123  0.0614
 8764W        W25611   4.719  15.037   4.503  0.0451  0.0206  0.1250
 8765W        W25612   6.161  15.849  15.349  0.3959  0.1954 -0.3530
 8766W        W25613  13.607  11.030   2.362 -0.0999  0.0700 -0.1881
 8767W        W25614   1.772   0.573   0.865 -0.2790 -0.2205  0.3041
 8768W        W25615   8.174  11.816   3.884  0.0727 -0.1010 -0.1390
 8769W        W25616  15.923   3.911   2.800  0.0108  0.0377 -0.2146
 8770W        W25617   7.369  12.626   0.290  0.3391  0.2177  0.0414
 8771W        W25618  14.494  14.832   6.038 -0.3991 -0.0397 -0.3604
 8772W        W25619   6.335   8.653   0.725  0.0085 -0.1965  0.0185
 8773W        W25620  13.548  17.843   2.516  0.0747 -0.1155  0.0077
 8774W        W25621  13.211  17.277  15.143 -0.0438  0.0361 -0.0636
 8775W        W25622  13.394  12.372   2.888  0.2466 -0.0356  0.0390
 8776W        W25623   5.379  17.547  12.090 -0.2626 -0.0898 -0.0690
 8777W        W25624  17.235   0.099  12.970  0.1971 -0.1506 -0.4179
 8778W        W25625  16.993   9.721  12.753 -0.2125 -0.3780 -0.1145
 8779W        W25626  17.906  17.163  12.192 -0.1523  0.0735  0.0524
 8780W        W25627   6.059  13.114   2.662 -0.1689 -0.1748 -0.1388
 8781W        W25628   4.881   8.114  14.421  0.1751 -0.1443 -0.0580
 8782W        W25629   0.642  10.411  13.099 -0.0415 -0.1474  0.0687
 8783W        W25630  10.039   5.778  14.763 -0.0120  0.1367 -0.2302
 8784W        W25631  17.964  16.120   4.806 -0.0945 -0.0295  0.2679
 8785W        W25632   8.819  10.701  15.545  0.0615 -0.1042  0.3982
 8786W        W25633  15.122   2.803  11.597  0.0854 -0.0162 -0.1835
 8787W        W25634   4.308  16.712  16.529 -0.1792 -0.3466  0.2482
 8788W        W25635   7.349   0.266  12.086 -0.1105 -0.0826  0.2725
 8789W        W25636  11.440  10.594  15.170 -0.1431  0.3237  0.2119
 8790W        W25637   6.343   7.168   4.814  0.2777  0.0119  0.1152
 8791W        W25638   0.914  12.070   2.480 -0.1574  0.2893  0.1046
 8792W        W25639   6.232   2.560  14.024 -0.0161  0.0978 -0.2646
 8793W        W25640  17.573  12.553  14.586 -0.2967 -0.0282 -0.0953
 8794W        W25641  13.029   1.936  15.725 -0.0556  0.0957  0.0123
 8795W        W25642   1.957  12.654  12.592 -0.0263  0.2044  0.0481
 8796W        W25643   7.358  15.881  16.624  0.0081 -0.0019  0.2681
 8797W        W25644   6.682  10.649  11.865  0.0912 -0.0345 -0.3784
 8798W        W25645   1.607  13.522   4.695  0.4097  0.0842  0.0264
 8799W        W25646   0.237  15.575   5.483 -0.1772 -0.2255 -0.1518
 8800W        W25647  15.512   4.553   3.693  0.1301 -0.2126 -0.0899
 8801W        W25648  13.215  17.398  15.984  0.3969 -0.1305  0.0637
 8802W        W25649   1.058  11.116   3.095  0.1474 -0.0442  0.0365
 8803W        W25650   4.044   9.169   3.956  0.0364  0.0548 -0.0916
 8804W        W25651   1.946  17.735   2.078  0.1547 -0.0731  0.0117
 8805W        W25652   2.931   4.751   3.398 -0.0675 -0.1909  0.0174
 8806W        W25653  10.288  15.177  11.942  0.1208 -0.2969 -0.2244
 8807W        W25654  15.427  11.994  15.508 -0.1867 -0.0916 -0.0391
 8808W        W25655   0.540  15.518   5.939 -0.0226 -0.0111  0.2560
 8809W        W25656  13.435   4.757   1.712  0.1144  0.0223  0.2323
 8810W        W25657  12.211   0.019  15.928  0.0845 -0.3201 -0.2033
 8811W        W25658   3.708   0.223   4.018 -0.0277 -0.0792  0.0573
 8812W        W25659   3.769  17.721  13.542  0.0494  0.0872  0.0351
 8813W        W25660  11.088   7.865  12.228 -0.1589 -0.0997  0.1956
 8814W        W25661   2.316   6.095  11.463  0.0688  0.0967 -0.2125
 8815W        W25662   7.598  12.613   0.776  0.0940  0.0676 -0.1386
 8816W        W25663   6.279   5.416  13.466 -0.1276  0.1887 -0.4863
 8817W        W25664  11.646   7.151   0.443  0.2432  0.1691  0.2635
 8818W        W25665   7.319   5.279  15.839 -0.1782  0.0443 -0.1016
 8819W        W25666   6.308   8.344   3.450  0.0952  0.0375 -0.2372
 8820W        W25667  15.781  17.286  16.218 -0.3605 -0.1767  0.1356
 8821W        W25668  16.936   5.282  15.288  0.0126  0.0379 -0.2426
 8822W        W25669   3.804   6.748  13.500  0.1289  0.0172  0.0598
 8823W        W25670   9.022   0.112   1.610 -0.2785  0.2190 -0.1496
 8824W        W25671   2.764  13.211   2.412 -0.2063  0.0585 -0.0576
 8825W        W25672   2.941   3.549   2.009 -0.0129  0.3797  0.0165
 8826W        W25673  18.080   1.378   1.958 -0.2640  0.0359 -0.0419
 8827W        W25674   5.452   2.703  13.322 -0.0780 -0.1614 -0.0574
 8828W        W25675   7.876  12.684   4.872 -0.1673 -0.0404  0.1360
 8829W        W25676   4.435   4.941  15.811 -0.0528  0.3209 -0.1041
 8830W        W25677   7.872  16.434   1.200 -0.0778  0.0792  0.3475
 8831W        W25678  14.506  17.178  14.287 -0.0479  0.0120  0.3119
 8832W        W25679  15.877  11.133   4.794  0.0655 -0.1328  0.0467
 8833W        W25680   7.630   1.559   1.597 -0.3469  0.0966 -0.2161
 8834W        W25681   6.772   4.328  15.889 -0.1062 -0.0307 -0.1368
 8835W        W25682  10.671   7.655  12.353  0.0300  0.2368 -0.0834
 8836W        W25683  10.734  14.537   3.719 -0.3217 -0.3231 -0.1391
 8837W        W25684  16.746   0.389  11.239  0.1867 -0.0499 -0.4351
 8838W        W25685  12.169   7.325  13.000 -0.0593 -0.0218 -0.1193
 8839W        W25686   9.162   6.438   4.755 -0.2914  0.2151  0.1812
 8840W        W25687  14.199  17.912  16.266 -0.0047 -0.1629  0.3008
 8841W        W25688   4.228   5.654  13.771 -0.3611  0.2366  0.0502
 8842W        W25689   0.997  11.609  13.114  0.2594  0.1854  0.1741
 8843W        W25690  15.559   0.884   3.334  0.0951 -0.0585  0.1300
 8844W        W25691  13.087  10.512   4.191 -0.0917  0.0055 -0.1808
 8845W        W25692   7.991   2.972   5.461  0.0156 -0.1823 -0.1706
 8846W        W25693   0.074  17.673   0.487  0.1445  0.1511  0.0989
 8847W        W25694   6.289   2.025   0.756  0.2750  0.4096  0.1002
 8848W        W25695  12.529   3.123   2.725  0.3424  0.1300  0.0057
 8849W        W25696  12.614   0.598   1.271 -0.0297  0.2273  0.2881
 8850W        W25697  16.722   9.559   1.190  0.4638  0.0025  0.1696
 8851W        W25698  15.518   8.879  12.972  0.0363  0.2833 -0.0274
 8852W        W25699   5.634  16.497   3.665 -0.0007 -0.4434  0.2322
 8853W        W25700   6.642  14.519  14.406 -0.1072 -0.1381 -0.1301
 8854W        W25701   8.192   0.514  13.995  0.0149 -0.0775  0.0478
 8855W        W25702  10.500   9.412  16.379  0.2653 -0.2801  0.0404
 8856W        W25703   2.944  18.009  14.199 -0.0158  0.0699  0.2430
 8857W        W25704   4.232  14.539   5.725 -0.1490  0.0425 -0.0910
 8858W        W25705  17.034   8.989  14.698 -0.3523 -0.0660 -0.0649
 8859W        W25706   4.055  14.545  12.346  0.2533 -0.0906 -0.3803
 8860W        W25707   2.057  10.564   1.164  0.0591  0.0257 -0.2169
 8861W        W25708   8.289  10.596  13.521  0.1123  0.0926 -0.0176
 8862W        W25709   5.565   9.670   0.366  0.1155  0.2483 -0.0447
 8863W        W25710  17.108   9.678  16.292 -0.2522  0.0505 -0.1350
 8864W        W25711  15.850  11.370   2.757  0.0195 -0.1314  0.0615
 8865W        W25712  12.792  10.516  12.298 -0.2335  0.0235  0.0896
 8866W        W25713   2.479  18.176  11.743 -0.1417  0.0965  0.2334
 8867W        W25714   2.156   1.895   3.227  0.1213 -0.1358 -0.2514
 8868W        W25715   1.974  15.793  16.072  0.0037 -0.1031  0.3681
 8869W        W25716  17.493   1.457   2.916 -0.2595 -0.0774 -0.2111
 8870W        W25717   2.212   7.667  15.106 -0.2640 -0.1212  0.1700
 8871W        W25718  13.936   7.486  12.118 -0.0228  0.2620 -0.1429
 8872W        W25719   3.096  10.007   3.261 -0.0802 -0.0048 -0.1284
 8873W        W25720  17.152   2.315   3.089 -0.2170  0.1928  0.1992
 8874W        W25721  16.755   2.489  16.158  0.0872  0.3453  0.0461
 8875W        W25722  13.322   8.304   2.076  0.1977 -0.4753  0.0842
 8876W        W25723   7.921  14.433   5.214 -0.1130 -0.1265  0.0079
 8877W        W25724   3.139  10.834   2.372  0.0177  0.1156 -0.0663
 8878W        W25725  15.856   2.221  12.025 -0.0364 -0.1975  0.0300
 8879W        W25726   2.785   2.885   3.120 -0.1433  0.2386  0.2562
 8880W        W25727   8.749   7.177  15.870  0.0184  0.0410  0.2676
 8881W        W25728   6.178  16.414  12.282 -0.1027 -0.1609  0.0273
 8882W        W25729  17.011  12.528  16.282 -0.1502 -0.0108  0.4142
 8883W        W25730   6.763  15.217   4.406 -0.0412 -0.0987  0.1798
 8884W        W25731   6.903   6.602   4.244 -0.1351 -0.2119 -0.0573
 8885W        W25732  17.300   4.602  11.314 -0.1520 -0.0593  0.0519
 8886W        W25733   4.603  18.155   1.322 -0.0817  0.1958  0.0904
 8887W        W25734  16.237   1.521  12.771 -0.2007 -0.1827  0.0144
 8888W        W25735   4.189  10.563   4.963  0.0561 -0.0736  0.0447
 8889W        W25736  17.461   2.515   4.367 -0.1200  0.1134 -0.4455
 8890W        W25737   5.893   1.308   2.267 -0.2446 -0.1266 -0.1762
 8891W        W25738  16.257   0.263  13.490 -0.0030  0.3249 -0.1681
 8892W        W25739  10.634  14.851   4.664 -0.1533 -0.0944 -0.0362
 8893W        W25740  16.513   0.500   0.643  0.1517  0.1330 -0.2740
 8894W        W25741  10.644  13.120  16.326 -0.1069  0.0538  0.1768
 8895W        W25742   2.427  15.096   1.224  0.0443 -0.2847  0.0482
 8896W        W25743  11.537  11.900  15.325 -0.0909  0.0195  0.0819
 8897W        W25744   6.092   8.098   3.889 -0.0929  0.0324  0.0324
 8898W        W25745   2.926   6.775  14.436 -0.1713 -0.0173 -0.1349
 8899W        W25746   3.442   9.048  12.089  0.2107 -0.3053 -0.2720
 8900W        W25747  13.444  16.322   0.950  0.1213 -0.0074  0.1409
 8901W        W25748   4.837   5.503   2.589  0.0752 -0.0819  0.1343
 8902W        W25749   4.695   6.884  14.877  0.0472  0.1041 -0.3323
 8903W        W25750  11.714   6.422  13.342  0.0810  0.0175 -0.0849
 8904W        W25751  10.481   2.269  16.506  0.0126 -0.2094 -0.2043
 8905W        W25752  12.467  17.245  11.694 -0.2398  0.1395  0.0578
 8906W        W25753  16.533  12.505  16.192  0.2345  0.1897 -0.0760
 8907W        W25754  16.723  16.459   1.487  0.0227 -0.1189  0.1249
 8908W        W25755   5.316   9.313  15.565  0.0830 -0.0279  0.2012
 8909W        W25756   5.784  12.997  13.040 -0.0656 -0.2055  0.2627
 8910W        W25757  13.798   5.049   4.791 -0.1656  0.1679 -0.0997
 8911W        W25758  17.824   2.088   4.909  0.1320 -0.1840  0.2632
 8912W        W25759  13.357   8.907  15.432  0.0136 -0.0805  0.0229
 8913W        W25760  16.752  13.365   0.910  0.1560  0.0960  0.6151
 8914W        W25761   6.045  13.128  11.920  0.0770  0.2831 -0.2049
 8915W        W25762  15.888  12.718   2.485 -0.0820  0.0378  0.1533
 8916W        W25763  12.759  16.299   3.022 -0.2236 -0.2353 -0.1056
 8917W        W25764   1.905   6.187   5.304  0.1763 -0.0953  0.0395
 8918W        W25765  17.220   6.569   3.716  0.0506  0.0712 -0.1772
 8919W        W25766  13.108   1.242  13.937  0.2170  0.1876  0.0058
 8920W        W25767   4.572  15.954  13.502 -0.2246 -0.0978  0.0871
 8921W        W25768  11.672  11.407   2.854  0.0360  0.0314 -0.1214
 8922W        W25769  12.528  14.729  16.375  0.0087 -0.0131  0.3370
 8923W        W25770   3.620   7.452  14.534  0.0831 -0.3027 -0.3071
 8924W        W25771  14.800   5.121   3.702  0.1336  0.0270  0.0412
 8925W        W25772   3.222   0.081   4.160 -0.1563  0.2350 -0.3242
 8926W        W25773   2.509   2.956  15.031  0.0953 -0.0118  0.0146
 8927W        W25774   4.993  12.012   1.052 -0.0209  0.1872  0.2209
 8928W        W25775  11.033   9.367  13.800 -0.0791  0.1253  0.0849
 8929W        W25776   8.109   0.889  15.784 -0.0092 -0.2974  0.0395
 8930W        W25777   9.858  11.928  14.475  0.0393  0.1325 -0.0941
 8931W        W25778  13.250   2.428  12.289 -0.1240 -0.1144 -0.0897
 8932W        W25779   2.040  13.362   4.899  0.1249 -0.3005 -0.2257
 8933W        W25780  15.936  15.408   4.734 -0.0761  0.2730 -0.0046
 8934W        W25781  16.135  12.221  16.125 -0.0349 -0.1954 -0.3007
 8935W        W25782  12.379  15.207   3.096 -0.0089  0.1407  0.2249
 8936W        W25783  16.588  13.400  13.453 -0.1001  0.3284 -0.1069
 8937W        W25784  16.777   9.110  13.599  0.1534 -0.4191 -0.0745
 8938W        W25785  11.707  12.634   0.845  0.2466 -0.2784 -0.0166
 8939W        W25786  10.570  16.031   2.645  0.0721 -0.1816 -0.0213
 8940W        W25787  10.688   4.576  11.935 -0.1396 -0.1550 -0.3758
 8941W        W25788  14.467   9.747   1.196 -0.0842  0.1423 -0.0356
 8942W        W25789   2.918   5.608  10.372 -0.0634  0.1000  0.0124
 8943W        W25790  10.356   3.114  16.041 -0.0241 -0.1060 -0.0117
 8944W        W25791  18.089   6.110  15.262  0.3121 -0.1539  0.3253
 8945W        W25792   5.293   7.802  15.089  0.3804  0.0436  0.2329
 8946W        W25793   4.271   9.367  15.717 -0.0231  0.4089  0.0315
 8947W        W25794  17.702   1.876  15.471  0.2693 -0.0313 -0.2882
 8948W        W25795   5.286  12.237   3.171 -0.0868 -0.0296 -0.0129
 8949W        W25796   8.163   9.718   5.087 -0.0616 -0.2010 -0.0488
 8950W        W25797   0.892   9.688  14.592  0.1052  0.3332  0.0036
 8951W        W25798  14.728  15.262   4.046 -0.2607  0.1890 -0.0162
 8952W        W25799   3.196  13.293  16.374  0.3363  0.1238  0.2009
 8953W        W25800  10.254  15.057   3.374  0.0923 -0.2004  0.0307
 8954W        W25801   2.842  13.769   3.040 -0.1353  0.0028  0.5111
 8955W        W25802  15.797  13.129   3.222  0.1812  0.2184 -0.2425
 8956W        W25803   9.323   2.503  14.177  0.0877 -0.1952  0.3050
 8957W        W25804  10.744  15.359  10.245 -0.0092 -0.2866 -0.1074
 8958W        W25805   5.952  10.217   4.504  0.1153 -0.1105  0.0759
 8959W        W25806   8.873   1.047   5.613 -0.1789 -0.0811 -0.0959
 8960W        W25807  16.737   3.876   4.290  0.0274 -0.1490  0.4301
 8961W        W25808  15.400  12.472   2.503  0.0845  0.2934 -0.0208
 8962W        W25809  13.586  13.411  13.622  0.0859 -0.3686 -0.3292
 8963W        W25810   0.571   2.452   4.611 -0.3369  0.0922 -0.4239
 8964W        W25811  14.398   9.025   2.356  0.0241  0.0865 -0.0493
 8965W        W25812  13.935  14.003   4.038 -0.2873  0.1131  0.1347
 8966W        W25813  15.564   9.351  13.815  0.0817  0.2114  0.2081
 8967W        W25814  11.578   5.712   2.870 -0.2889 -0.1246 -0.1304
 8968W        W25815  16.482  16.172   1.840 -0.1536 -0.0900 -0.0516
 8969W        W25816   7.765  11.610   2.307 -0.1353  0.0110  0.0213
 8970W        W25817  12.719  16.155  15.504 -0.0175 -0.0726 -0.0449
 8971W        W25818   0.528   2.320  12.524 -0.2357 -0.0083  0.1803
 8972W        W25819  17.381  16.997  12.063 -0.3273 -0.0071 -0.0039
 8973W        W25820   0.019  13.817   5.287  0.0100 -0.7253 -0.1054
 8974W        W25821   2.829   6.201  12.962  0.1686 -0.0041  0.1161
 8975W        W25822   3.506  13.568  15.820 -0.1152 -0.1163 -0.2403
 8976W        W25823  10.353   3.563   1.481  0.0955 -0.0034 -0.0020
 8977W        W25824   4.990  10.318  12.139 -0.1320  0.0278  0.1093
 8978W        W25825   7.296   8.600   4.279 -0.0040  0.0446  0.3257
 8979W        W25826   4.396   8.759  15.561  0.1092 -0.3798 -0.0331
 8980W        W25827   2.816  15.669  13.700 -0.0433 -0.1891 -0.2068
 8981W        W25828   0.756   3.801  11.527  0.0657 -0.4056  0.6435
 8982W        W25829   7.720   4.660  16.349 -0.3479 -0.1771 -0.2064
 8983W        W25830  13.523  10.718  14.997 -0.2803 -0.0823 -0.0737
 8984W        W25831   0.846  16.813  13.748  0.1461  0.0625  0.2119
 8985W        W25832  13.264   0.066   6.178  0.1429 -0.2745 -0.3929
 8986W        W25833   5.729   3.108   2.296  0.1066  0.0540 -0.1072
 8987W        W25834   7.084   4.812   1.510 -0.1384  0.0437  0.0422
 8988W        W25835  11.052   2.767   1.683 -0.2293  0.2699  0.2249
 8989W        W25836   7.368  13.702   5.408  0.0179  0.0534 -0.0555
 8990W        W25837  10.400  10.605   1.460  0.3483 -0.1331  0.1685
 8991W        W25838  11.663   5.076  16.140  0.0666  0.2444 -0.0398
 8992W        W25839   6.333  14.441  12.134 -0.2072  0.1325  0.2195
 8993W        W25840   6.464  10.636   0.131  0.0618 -0.0572 -0.0231
 8994W        W25841   6.041   0.123   3.012 -0.4399  0.1229  0.1236
 8995W        W25842   2.072   2.795  12.867  0.1688  0.1488 -0.0192
 8996W        W25843  16.969   4.235   1.219  0.2248 -0.0968  0.2215
 8997W        W25844  12.686   7.059   2.108  0.2817 -0.0019 -0.1211
 8998W        W25845  11.778  15.165   4.474  0.3516 -0.1433 -0.0009
 8999W        W25846   4.737   7.405  15.139  0.1163  0.1515  0.2836
 9000W        W25847  11.286   1.097   1.395 -0.2357  0.0670 -0.0024
 9001W        W25848   0.075   9.995  15.295 -0.3005  0.3495 -0.0799
 9002W        W25849   5.688   5.755   2.172 -0.0184 -0.0602 -0.0654
 9003W        W25850  11.747   0.851   0.875  0.0209 -0.1844 -0.0454
 9004W        W25851   7.888  12.451  13.414  0.0866  0.3674  0.0587
 9005W        W25852  15.475  10.771   4.599 -0.2451 -0.1360  0.1359
 9006W        W25853  15.739  15.312  14.637 -0.2398 -0.0822 -0.2003
 9007W        W25854  10.195  10.506  15.632 -0.2076  0.1537  0.0963
 9008W        W25855   3.121   2.143  11.643 -0.1345  0.0239  0.2942
 9009W        W25856  14.386   1.430  13.325 -0.2238  0.1478  0.1040
 9010W        W25857  15.140  15.322  13.192 -0.2180  0.0912  0.1098
 9011W        W25858   9.517   1.220  12.842 -0.1997 -0.1685  0.0470
 9012W        W25859  17.708  13.027  15.710 -0.0140  0.1399 -0.1327
 9013W        W25860  15.015   8.086  15.743 -0.0342  0.0014 -0.2094
 9014W        W25861   4.017  15.364   0.957 -0.0632 -0.0786  0.1307
 9015W        W25862   8.165   4.286   0.630 -0.1087 -0.0967  0.1851
 9016W        W25863   7.360  13.565  16.102  0.0183  0.2107  0.1774
 9017W        W25864  11.411   9.136  15.222  0.0256  0.0722 -0.0384
 9018W        W25865  12.947   9.483  16.160  0.0303 -0.1298 -0.0491
 9019W        W25866  14.604  13.582  14.245  0.0529  0.1517  0.1345
 9020W        W25867  15.306   6.994   0.650  0.1313  0.0511  0.0305
 9021W        W25868   3.239  16.205   2.633 -0.1123 -0.0108 -0.0227
 9022W        W25869  12.843   3.220  12.839  0.1521  0.1935  0.1174
 9023W        W25870  13.881  16.520  15.076  0.2664 -0.2862 -0.3177
 9024W        W25871  17.221   0.200  12.083  0.1409 -0.0293 -0.0112
 9025W        W25872   4.264  17.203   4.784 -0.0024 -0.0197  0.1806
 9026W        W25873   4.106   1.593   4.501 -0.0186  0.1157  0.1408
 9027W        W25874  17.047  12.090   3.712 -0.3663 -0.0467 -0.1792
 9028W        W25875  15.590  16.506  12.187 -0.3198 -0.3553 -0.2278
 9029W        W25876   9.817  15.745  14.453 -0.0601 -0.1114 -0.2530
 9030W        W25877  14.307   8.622   0.441  0.0172  0.0150  0.0116
 9031W        W25878  13.679   7.990   1.893  0.3513 -0.1637 -0.1997
 9032W        W25879  11.263   2.830   0.301  0.1553 -0.0884  0.0266
 9033W        W25880  13.980  10.790   2.692  0.1876  0.2468 -0.1348
 9034W        W25881  13.444   7.990  12.592  0.0157  0.3336  0.0972
 9035W        W25882   6.788  14.929   2.772  0.1968  0.2665 -0.0928
 9036W        W25883   6.668  15.777   1.083 -0.1568  0.0579 -0.0054
 9037W        W25884  17.302  14.248   4.313 -0.0951 -0.1868  0.0928
 9038W        W25885   4.066  17.322   1.298 -0.1276  0.0123 -0.1729
 9039W        W25886   9.051  12.055   4.464  0.1887  0.2753 -0.1313
 9040W        W25887   4.369  17.427   1.747 -0.2033  0.1194  0.1191
 9041W        W25888   5.321   9.720   3.939 -0.3507  0.0064  0.1058
 9042W        W25889   8.567  14.733  13.057 -0.0725 -0.2797 -0.0559
 9043W        W25890  17.694   1.105  14.454 -0.1489 -0.0279  0.2015
 9044W        W25891   2.207   7.000   3.603 -0.0119 -0.0902  0.0950
 9045W        W25892   0.074   7.704   2.206  0.2363  0.0499 -0.2192
 9046W        W25893   5.054  15.053  13.750  0.1657  0.3551  0.0130
 9047W        W25894  14.947   3.039   5.840 -0.1409 -0.1253  0.0943
 9048W        W25895   7.595   0.006   4.147 -0.0646 -0.1527  0.0449
 9049W        W25896  10.451  14.855  15.648  0.0667  0.0564  0.1209
 9050W        W25897  15.382   4.428   1.406  0.2108 -0.0802 -0.0642
 9051W        W25898   8.694   9.492   2.063 -0.0184 -0.0806 -0.0393
 9052W        W25899  13.075   7.780  11.437 -0.0937 -0.0556 -0.1246
 9053W        W25900   0.511  10.923  12.151 -0.2486  0.1115 -0.1153
 9054W        W25901   1.315  11.636   2.416  0.0014 -0.1591 -0.2540
 9055W        W25902   7.015  14.167   2.315 -0.2906 -0.1811 -0.1466
 9056W        W25903  14.242   6.293   1.629 -0.2570  0.0658  0.0504
 9057W        W25904   1.197  16.320  16.052 -0.3575 -0.3234 -0.0128
 9058W        W25905  17.336  16.826  14.602 -0.1460  0.2187 -0.1492
 9059W        W25906   7.757  13.806  16.344 -0.1476 -0.0402 -0.1667
 9060W        W25907  10.601   1.794   3.848  0.2011 -0.1708 -0.0423
 9061W        W25908   7.027   8.425  12.238 -0.0603 -0.3117 -0.1472
 9062W        W25909   7.603  10.708   4.699 -0.1164 -0.2189  0.0312
 9063W        W25910   2.222  10.155  15.385  0.1949  0.0702 -0.0329
 9064W        W25911   3.494  12.862   6.224 -0.0185 -0.2795 -0.0322
 9065W        W25912   9.867  16.927   3.175  0.2312 -0.1345 -0.2464
 9066W        W25913   5.964  13.969   0.095  0.1608  0.1293 -0.0681
 9067W        W25914   5.082  17.080   5.329 -0.0827 -0.3085 -0.2839
 9068W        W25915   1.526  17.407   0.418  0.1524 -0.2895  0.2254
 9069W        W25916   3.700   7.278   1.918  0.0277 -0.0747  0.2098
 9070W        W25917  18.076  13.695  15.609  0.0799 -0.2292 -0.1253
 9071W        W25918  12.993   6.538  15.495  0.0866  0.3879  0.2810
 9072W        W25919   5.884  11.474  16.572 -0.2353  0.2427  0.3840
 9073W        W25920   3.128  16.794  12.958  0.1189 -0.1041 -0.1537
 9074W        W25921  16.684   1.601   1.270 -0.1470 -0.1692  0.1311
 9075W        W25922  12.032  10.615  16.257  0.2332  0.1266 -0.2740
 9076W        W25923   0.280   3.064  15.930 -0.0082 -0.0371  0.2206
 9077W        W25924   9.174  14.988   0.188 -0.0556  0.1970  0.1173
 9078W        W25925  14.160   3.623   5.069  0.0998  0.2051  0.0806
 9079W        W25926  14.654   5.830  14.957  0.3774 -0.2580 -0.0001
 9080W        W25927   5.867   0.038   0.335  0.1548 -0.0193  0.1225
 9081W        W25928   3.375   0.850  13.460  0.1102  0.2594  0.1524
 9082W        W25929  11.960   5.401  15.909  0.1951 -0.1052  0.1930
 9083W        W25930  13.533   7.496  11.546  0.0629 -0.0585  0.3998
 9084W        W25931  18.093   2.462  15.409 -0.0064  0.0939 -0.1685
 9085W        W25932   1.034   0.047   1.192 -0.0307  0.3426  0.1216
 9086W        W25933  15.132  13.264   0.466 -0.1385 -0.2416 -0.1661
 9087W        W25934   5.155  17.565   0.213  0.2118  0.0521 -0.0324
 9088W        W25935   1.307   1.172   5.418  0.1839  0.2035 -0.4487
 9089W        W25936  12.361   3.903  12.937  0.1265  0.1484 -0.1099
 9090W        W25937   3.663  18.078  12.487 -0.3453 -0.0585  0.1533
 9091W        W25938   6.973   6.601   2.839 -0.4723  0.1550  0.1047
 9092W        W25939  15.575   4.613  13.460 -0.0539  0.0711 -0.1831
 9093W        W25940   1.588   8.520  14.077  0.2039 -0.2571 -0.2357
 9094W        W25941  17.496  16.734  12.473  0.0435 -0.0043  0.0226
 9095W        W25942   2.106  14.574   0.659 -0.0035  0.0692  0.4255
 9096W        W25943  10.685  16.802   4.396  0.1637 -0.0374  0.3954
 9097W        W25944  10.908   6.524   2.939 -0.2864  0.1571  0.0219
 9098W        W25945   9.234   8.845   4.982 -0.2913  0.0187  0.0606
 9099W        W25946   5.666   7.102   1.157 -0.0086  0.0466  0.1783
 9100W        W25947   5.543  12.361  13.747 -0.2491  0.1640 -0.0834
 9101W        W25948   1.643  13.957  15.649  0.1967 -0.2518  0.0838
 9102W        W25949   8.263   1.089  12.095  0.3864  0.3305 -0.0667
 9103W        W25950   4.982   6.773   2.749  0.0329 -0.2198 -0.0390
 9104W        W25951  16.714  16.197   6.030 -0.0255 -0.1093  0.4529
 9105W        W25952  15.799   0.388   1.514  0.0709  0.0384 -0.4224
 9106W        W25953   7.168   1.531   1.807 -0.1026 -0.0714 -0.2102
 9107W        W25954  11.167  11.337   5.312  0.0032 -0.0670 -0.1206
 9108W        W25955   2.939   6.551   0.635  0.0694 -0.2713  0.0033
 9109W        W25956   5.031  11.828  14.939  0.4020  0.2274 -0.0816
 9110W        W25957   2.396  13.210   1.063 -0.1415  0.3797 -0.1348
 9111W        W25958   7.343  16.387   3.185 -0.2708 -0.0599 -0.1573
 9112W        W25959   1.565   0.840   1.767 -0.2813  0.1613 -0.2133
 9113W        W25960   6.906  12.386   2.353  0.3735  0.0282 -0.0462
 9114W        W25961   9.626  16.125  14.111  0.3705 -0.0325  0.1098
 9115W        W25962   0.797   9.875  13.124  0.2614  0.1527 -0.0361
 9116W        W25963  10.104  11.097  12.947  0.0154  0.2548  0.2857
 9117W        W25964  11.836  13.208  11.529  0.2216 -0.1811  0.0750
 9118W        W25965   1.401   1.501   0.924  0.0832  0.0101 -0.0226
 9119W        W25966   0.743  12.029   1.936 -0.1418 -0.1638  0.1711
 9120W        W25967  16.357  13.363   1.208  0.0373  0.1550  0.0860
 9121W        W25968   5.196   9.725   4.567  0.0086  0.0689 -0.0912
 9122W        W25969  10.593   9.050  12.207 -0.1842  0.1473  0.0704
 9123W        W25970   6.165   2.337  15.756 -0.1395 -0.2843 -0.1753
 9124W        W25971  15.310   1.892   5.950 -0.2794  0.1158  0.0165
 9125W        W25972   9.734  11.959  15.958 -0.1181 -0.2883  0.2657
 9126W        W25973   4.061   5.342   3.491  0.1595 -0.0655 -0.1634
 9127W        W25974   5.434  11.587   3.947 -0.3787  0.1641 -0.2846
 9128W        W25975  13.108   3.347  15.726 -0.0623 -0.1523 -0.0674
 9129W        W25976  14.923   2.392   3.343 -0.0486  0.1625 -0.0655
 9130W        W25977   1.506  12.247   0.151 -0.4251 -0.0538 -0.0708
 9131W        W25978  11.836   7.375  15.024  0.0027  0.0406 -0.0050
 9132W        W25979  15.885   7.564  15.785 -0.0973  0.2363  0.2100
 9133W        W25980  10.110   5.824   5.669  0.1902  0.0553 -0.0731
 9134W        W25981   6.185   4.948  11.678 -0.2933  0.1120 -0.1195
 9135W        W25982  14.156   2.232  13.792  0.1611  0.1319 -0.1721
 9136W        W25983   6.672   4.829  10.799  0.0796 -0.0474  0.3085
 9137W        W25984  16.512   5.794  12.513  0.2799 -0.3547 -0.0283
 9138W        W25985  11.047   5.572   2.973  0.0764  0.1424 -0.2679
 9139W        W25986   7.133   2.970  13.846  0.1799 -0.0026  0.2240
 9140W        W25987  13.418  15.847  15.175  0.0795  0.0319  0.1380
 9141W        W25988   9.836  11.303   1.498 -0.1790  0.1494  0.1094
 9142W        W25989   5.561   3.273  14.646 -0.1617  0.0640 -0.1532
 9143W        W25990  16.376   2.174  15.899 -0.0191 -0.3100  0.0115
 9144W        W25991   6.631  13.315   5.389  0.0229  0.0507 -0.1763
 9145W        W25992  16.222  13.579   6.366  0.2702  0.1301 -0.3408
 9146W        W25993  16.865  14.476  12.798 -0.0569 -0.2206 -0.2888
 9147W        W25994  10.718   0.605   6.410 -0.1480 -0.2925  0.3426
 9148W        W25995  15.560   4.121  12.721 -0.0193 -0.0766 -0.0563
 9149W        W25996  17.545   8.509   5.227 -0.2367 -0.3494 -0.0478
 9150W        W25997   8.407  14.366   3.461 -0.2260  0.1568 -0.1910
 9151W        W25998  18.119   6.761   2.115  0.0352 -0.0155  0.1185
 9152W        W25999   9.164   6.328   4.262  0.0933 -0.0791  0.2455
 9153W        W26000  17.278   9.283   4.156 -0.2657  0.2671 -0.1124
 9154W        W26001   0.751  11.526   2.431  0.4160 -0.2853  0.2187
 9155W        W26002  15.774   3.249  12.873  0.0793 -0.0668 -0.1561
 9156W        W26003  17.833   5.688  15.725  0.2093 -0.0865  0.2618
 9157W        W26004  12.555   4.976   4.687  0.2509 -0.0187  0.1328
 9158W        W26005  16.636   5.373  14.103  0.0411 -0.1089  0.0657
 9159W        W26006   2.268  10.653  15.566 -0.2653 -0.3967  0.0916
 9160W        W26007   6.908  11.288   3.168 -0.2803  0.0964 -0.0543
 9161W        W26008  14.903   0.494  14.678 -0.1956 -0.2904 -0.1165
 9162W        W26009   8.391   4.607   3.943 -0.2145  0.0452  0.0459
 9163W        W26010  15.520   2.067   1.587  0.2955 -0.1960 -0.1571
 9164W        W26011   3.136   4.878   2.933 -0.0671 -0.0346  0.2342
 9165W        W26012  11.241  14.805  14.419 -0.2061  0.1967  0.2316
 9166W        W26013   4.817   7.833   5.068 -0.0979  0.0395  0.2370
 9167W        W26014   1.047   5.397   2.933 -0.0840 -0.1233 -0.2556
 9168W        W26015  15.476   5.867  14.388  0.0556 -0.3712 -0.0849
 9169W        W26016   8.734   4.358  13.910 -0.0665  0.0156 -0.3116
 9170W        W26017  17.624   7.029   4.836 -0.0101  0.3220  0.0842
 9171W        W26018   5.090   7.164   2.055  0.0542 -0.4321 -0.3508
 9172W        W26019   0.759   4.607  14.846 -0.1481  0.2788 -0.0461
 9173W        W26020   8.101   8.081  11.565  0.0490  0.0806  0.1611
 9174W        W26021  15.672  14.816  12.608 -0.1640  0.1673 -0.0089
 9175W        W26022  10.928  15.930  16.259 -0.2267 -0.1029 -0.1136
 9176W        W26023  15.337   9.149   4.729 -0.1692 -0.1345  0.0712
 9177W        W26024   1.722   7.836   0.967  0.2065 -0.0055 -0.2128
 9178W        W26025   8.421  17.435   5.420 -0.0399 -0.2608 -0.1058
 9179W        W26026   3.338   3.128  11.478  0.2511 -0.0701  0.1182
 9180W        W26027   2.062   3.887   0.485  0.3390  0.0786 -0.2454
 9181W        W26028  15.146   6.464  15.551  0.2386  0.3063  0.1809
 9182W        W26029   5.859   7.209  14.785  0.0195  0.0128  0.1256
 9183W        W26030  15.514   9.988  13.662 -0.0519  0.1953 -0.1161
 9184W        W26031  17.380  14.714   1.459  0.0058  0.0032 -0.1246
 9185W        W26032   1.080  13.280  12.888 -0.0224  0.1047 -0.1341
 9186W        W26033   4.135  10.109  13.599  0.4315  0.0766  0.0366
 9187W        W26034   2.281  17.923  13.594  0.1649 -0.0180  0.1063
 9188W        W26035  13.096   9.996  15.528 -0.3160 -0.0078  0.3375
 9189W        W26036  17.927  13.461  14.153  0.1172 -0.0248  0.1269
 9190W        W26037   9.161  17.602   4.961 -0.0205  0.0921 -0.0323
 9191W        W26038   4.041   7.917   0.862  0.2913 -0.2000 -0.1911
 9192W        W26039  13.316  14.738  13.829  0.2482  0.4284 -0.1155
 9193W        W26040   2.101   1.736   0.463 -0.0407 -0.1336  0.1631
 9194W        W26041  17.595  17.543  16.192 -0.1172 -0.0969 -0.1221
 9195W        W26042   8.826   8.238  13.732 -0.0873 -0.4369 -0.0259
 9196W        W26043   7.671  14.542  15.177  0.0936 -0.0915  0.4032
 9197W        W26044  14.587  12.173  14.530 -0.0038  0.1033  0.1471
 9198W        W26045  12.058  13.627   4.810  0.2974 -0.0037  0.1133
 9199W        W26046   6.824   2.687   2.778 -0.3742  0.0533  0.1142
 9200W        W26047  12.240  16.141  15.389 -0.3119 -0.2173  0.2788
 9201W        W26048   0.831   8.636  12.291 -0.2692 -0.0629 -0.0015
 9202W        W26049  14.966  16.136  11.770 -0.0587  0.1449 -0.1290
 9203W        W26050   0.881  14.968  14.510  0.0605  0.3877  0.0668
 9204W        W26051   3.108   7.059  16.184  0.0709 -0.1836 -0.0164
 9205W        W26052   5.288  12.935   4.377 -0.0318  0.2039  0.1424
 9206W        W26053   1.616   0.565  13.882 -0.0360 -0.0443 -0.2695
 9207W        W26054  14.822  13.139   0.044  0.1261 -0.0933 -0.1317
 9208W        W26055  12.047   1.433  12.100 -0.1223 -0.1259 -0.0401
 9209W        W26056   4.253  13.913   3.184 -0.1619 -0.0977 -0.3640
 9210W        W26057   2.670  15.146  14.346 -0.0243 -0.2534  0.0307
 9211W        W26058   8.536  12.555  14.964 -0.1187 -0.0937  0.0137
 9212W        W26059  15.353  11.992   2.650 -0.0198  0.3805 -0.0922
 9213W        W26060  11.798   3.762   4.760 -0.1679 -0.0823  0.0609
 9214W        W26061   0.576  14.615  13.916 -0.1584 -0.0789 -0.0021
 9215W        W26062  18.055  10.934  12.864  0.0446 -0.5098  0.4786
 9216W        W26063   6.013   4.385  14.564 -0.0234  0.0194 -0.0242
 9217W        W26064   6.371  14.199  14.664  0.1456 -0.0816 -0.1237
 9218W        W26065  17.355   3.961  13.313  0.3219 -0.0494 -0.1653
 9219W        W26066   8.661   9.248  13.485  0.3794  0.1551 -0.2918
 9220W        W26067   2.789   5.406   2.556  0.1323  0.0018 -0.0145
 9221W        W26068   3.392   1.482  14.056  0.3234  0.2125 -0.1220
 9222W        W26069   8.875   8.232   3.664  0.1281  0.0086  0.0293
 9223W        W26070  16.222   6.419   1.762  0.2704 -0.1891 -0.2065
 9224W        W26071   2.462  16.419   3.308 -0.1462 -0.2106  0.1264
 9225W        W26072   1.569  15.321   2.338  0.2548  0.1601 -0.3351
 9226W        W26073  16.068   5.984   4.285  0.0041 -0.0413 -0.2727
 9227W        W26074  18.144   8.642  16.232 -0.0013 -0.2992 -0.0028
 9228W        W26075  14.380   9.431  14.526  0.3284 -0.1392  0.1163
 9229W        W26076  15.276   5.758  13.898 -0.0657 -0.0827 -0.0616
 9230W        W26077  16.935   2.129   2.050  0.0646 -0.1848 -0.0896
 9231W        W26078  13.945  10.996   4.121 -0.0420  0.1090 -0.2348
 9232W        W26079  14.170   6.561  12.356  0.3557 -0.0824  0.2875
 9233W        W26080  11.014   4.402  15.815  0.2181  0.0246  0.3134
 9234W        W26081  18.161  10.636   0.964 -0.0158 -0.0806  0.0451
 9235W        W26082   6.370   8.005   0.606 -0.1699  0.5068  0.1044
 9236W        W26083  10.394   7.185   3.174  0.0109  0.0012  0.4420
 9237W        W26084  15.920  17.708   4.203  0.0105 -0.1451 -0.1077
 9238W        W26085   7.351  15.173  13.417 -0.1953 -0.1935 -0.2926
 9239W        W26086   5.338   8.479   4.820 -0.2176  0.0500 -0.0020
 9240W        W26087  17.821   0.546  11.470 -0.0464  0.1290  0.3242
 9241W        W26088  16.812  12.609   5.637  0.3828  0.3018  0.2722
 9242W        W26089   2.113   0.248  14.773  0.0906  0.3440 -0.3953
 9243W        W26090  15.266  16.364  13.587  0.1361 -0.0694  0.1350
 9244W        W26091   2.332   7.957   2.649 -0.4080 -0.1864  0.0080
 9245W        W26092  14.875  10.400   0.582 -0.1335  0.1565  0.2044
 9246W        W26093  16.319   1.918  14.385  0.2793 -0.0527  0.1544
 9247W        W26094   3.322  10.457   0.596  0.1844 -0.0321 -0.1157
 9248W        W26095  10.107  14.198  11.759  0.0580  0.1940  0.1462
 9249W        W26096   3.162   7.923   3.751  0.2558  0.4052  0.1129
 9250W        W26097  18.137  10.432  12.077  0.0701  0.1072 -0.1058
 9251W        W26098   9.491  18.088   4.803  0.0378  0.0510  0.1777
 9252W        W26099   1.885   4.662   3.154  0.0249 -0.1779 -0.2848
 9253W        W26100  13.032   8.711   0.313 -0.0271  0.1816  0.2893
 9254W        W26101   0.922  10.909  14.066  0.1085  0.1849  0.1789
 9255W        W26102   9.784  11.753   3.302  0.2094 -0.1939 -0.4927
 9256W        W26103  14.659   4.918   4.148  0.2053  0.1298  0.3254
 9257W        W26104   9.340   2.487   3.392 -0.2834 -0.0470  0.1357
 9258W        W26105  14.936   9.410  15.047  0.2704  0.3979  0.0777
 9259W        W26106   4.970  10.002   4.196  0.1303  0.2218 -0.0227
 9260W        W26107   8.252   8.749  15.154 -0.1531  0.1883  0.0238
 9261W        W26108  12.052   1.050   3.820 -0.0227  0.1056 -0.1023
 9262W        W26109   2.400  15.889  13.851  0.1440  0.1521  0.1750
 9263W        W26110  10.856   1.885  16.464  0.1683 -0.0141 -0.2177
 9264W        W26111   2.866   9.592   2.955  0.0634  0.4106 -0.1488
 9265W        W26112  15.854  10.335  11.834 -0.0211  0.0712  0.1334
 9266W        W26113  17.541  16.986   4.591  0.1925 -0.2680 -0.0092
 9267W        W26114  13.303  15.802   0.888 -0.1986  0.0312 -0.1810
 9268W        W26115   5.983  14.226   3.350 -0.1779  0.0948 -0.1545
 9269W        W26116   0.214   0.154   3.828  0.0117  0.2151 -0.2286
 9270W        W26117  12.858   8.480  14.711  0.1875  0.2689  0.2585
 9271W        W26118  13.241   5.562   4.269 -0.1845  0.1678 -0.2085
 9272W        W26119   7.235   4.261  15.804  0.2745 -0.1205 -0.1164
 9273W        W26120   6.561   0.956   3.168 -0.0579  0.1699  0.0177
 9274W        W26121  16.200  11.472   4.953  0.1568 -0.0425  0.1128
 9275W        W26122   2.588  16.048  16.617 -0.0717  0.3411  0.2695
 9276W        W26123   9.171  13.126  13.613 -0.1711  0.0072 -0.2797
 9277W        W26124  17.997   7.425  14.962  0.1345  0.2656  0.1099
 9278W        W26125   1.863   3.202   4.844  0.2784  0.4063 -0.0557
 9279W        W26126   5.559   0.401   4.579 -0.3163  0.2179 -0.1994
 9280W        W26127  18.021  13.501  13.587 -0.1370  0.2636 -0.0164
 9281W        W26128   9.265   6.550  15.509  0.2806  0.2988  0.2048
 9282W        W26129   1.867   9.342   2.312 -0.1805 -0.3637  0.0276
 9283W        W26130  12.226  17.488  16.302 -0.0819 -0.4776  0.0286
 9284W        W26131  12.505  14.715   2.994 -0.0615  0.0128  0.0854
 9285W        W26132   9.602  17.325  13.650  0.2243 -0.0746 -0.1936
 9286W        W26133  11.478  15.705  12.253  0.2141 -0.1344  0.1940
 9287W        W26134   6.497  17.717  13.317 -0.0969  0.2766 -0.1402
 9288W        W26135  15.334  13.264  16.574 -0.1363  0.1637 -0.1345
 9289W        W26136  16.399   9.654   0.829  0.0420  0.0805  0.0384
 9290W        W26137   6.469  15.589  11.577 -0.0606 -0.2782 -0.2134
 9291W        W26138  14.129   1.669   3.444 -0.0263 -0.1684 -0.0310
 9292W        W26139   2.716  12.834  13.579  0.2835 -0.1818  0.1551
 9293W        W26140   1.283   4.669  14.666 -0.3488  0.0265  0.0143
 9294W        W26141   5.615   2.169  13.298 -0.0331  0.0213 -0.0807
 9295W        W26142   5.642  16.719   5.177  0.3069  0.1774 -0.1183
 9296W        W26143  13.409  15.612   0.459  0.0369 -0.0514  0.2330
 9297W        W26144  12.629   5.112  15.600  0.2980 -0.0292 -0.2032
 9298W        W26145  11.041  11.961  15.406 -0.3203  0.0650 -0.0085
 9299W        W26146  12.539  15.357   5.487 -0.1693  0.1321  0.3084
 9300W        W26147   6.244   1.025   1.068  0.2595 -0.1257  0.0825
 9301W        W26148   3.964   9.551  14.478 -0.2087  0.0409  0.3131
 9302W        W26149  14.410   1.485   3.067  0.1489 -0.1891  0.1384
 9303W        W26150  13.686   3.630  16.228 -0.0878  0.2981 -0.0988
 9304W        W26151   6.585  10.146  14.128 -0.0480 -0.2635  0.0970
 9305W        W26152  14.101  17.241  11.970 -0.1909  0.4535  0.2345
 9306W        W26153   9.183   6.173  14.450  0.2609 -0.0821  0.0002
 9307W        W26154  15.178   5.594  11.862  0.0052 -0.1012 -0.4490
 9308W        W26155   0.920  12.943   2.014  0.3804 -0.2029  0.2184
 9309W        W26156   8.621  17.469  15.474  0.1229 -0.0765  0.2110
 9310W        W26157  12.602  14.496   2.483  0.3661 -0.0123  0.3069
 9311W        W26158   1.477  11.169  14.235 -0.1125  0.1449 -0.3890
 9312W        W26159   5.019  18.079  14.645  0.0699  0.0154  0.1069
 9313W        W26160  15.523   5.267   4.407 -0.0110  0.2505  0.1784
 9314W        W26161  10.002  13.735  11.711  0.1083  0.0958 -0.2918
 9315W        W26162  10.468   8.253  11.605  0.1821 -0.0244 -0.3839
 9316W        W26163  14.124   5.910  13.008  0.0435 -0.2015  0.2691
 9317W        W26164  15.569   1.494  14.489 -0.1718  0.2438 -0.0367
 9318W        W26165   7.658  11.245   2.666  0.2323  0.2938  0.2375
 9319W        W26166  18.057   9.233  15.769  0.2139 -0.6032 -0.0665
 9320W        W26167  10.276   6.136   0.284 -0.0273 -0.1642 -0.1757
 9321W        W26168  12.591   2.453   2.104 -0.1944  0.1927 -0.1782
 9322W        W26169   0.250  11.967  15.447 -0.0451  0.1847 -0.2794
 9323W        W26170   5.634  11.932  13.461  0.1201 -0.0772 -0.1816
 9324W        W26171   4.733  15.924   4.782  0.0264  0.1812 -0.0855
 9325W        W26172   1.438   8.223   0.245  0.0089  0.1762  0.1769
 9326W        W26173   7.456  12.024  13.181  0.2973 -0.0884  0.2804
 9327W        W26174   4.738  17.563  14.528 -0.0378  0.1127  0.0802
 9328W        W26175  12.807   2.108  12.580  0.2536 -0.0386 -0.0795
 9329W        W26176   3.370   7.482  13.089 -0.0231  0.1004  0.2538
 9330W        W26177  14.386   2.386  14.522 -0.1542  0.0703 -0.0975
 9331W        W26178  17.640  15.869  11.805 -0.0573 -0.0077 -0.1482
 9332W        W26179   0.053   8.751  13.060  0.2678 -0.3708 -0.2072
 9333W        W26180  13.985  15.763   3.954  0.1547  0.0935  0.0677
 9334W        W26181   5.290  17.193  16.323 -0.1324  0.2300 -0.0774
 9335W        W26182   6.227   6.235   0.784 -0.0959 -0.0310  0.1134
 9336W        W26183   3.786  10.765   5.042  0.0409 -0.0639 -0.0815
 9337W        W26184  15.960   8.749   1.694 -0.1163 -0.0132  0.1045
 9338W        W26185   1.381   7.523  16.254  0.1690 -0.0974  0.1258
 9339W        W26186  15.290  10.775  13.820  0.3534 -0.1843  0.0170
 9340W        W26187   4.190  16.291   0.400  0.2410  0.1264  0.0447
 9341W        W26188   1.187   3.651   0.865 -0.0426 -0.0105  0.0971
 9342W        W26189   7.537  13.182  13.174 -0.0764 -0.2317  0.1464
 9343W        W26190   0.315  11.567  14.637  0.1535 -0.0328 -0.0933
 9344W        W26191  13.831   8.535  15.407 -0.0884  0.0224 -0.3360
 9345W        W26192   2.330  14.261  14.100 -0.1942 -0.1739 -0.0683
 9346W        W26193   0.656  17.511   3.542 -0.3026 -0.3046  0.0662
 9347W        W26194  17.997   1.597   5.221  0.0740 -0.0278  0.1074
 9348W        W26195   6.388  16.117  13.518  0.0448 -0.0142 -0.2497
 9349W        W26196  13.614   9.545   3.993  0.1960  0.2045 -0.0058
 9350W        W26197  13.210  14.034   4.955  0.2044  0.0264 -0.0038
 9351W        W26198   2.294   9.830   2.877 -0.2231 -0.3031  0.1185
 9352W        W26199  17.352   0.209  15.764  0.1106 -0.0458 -0.1087
 9353W        W26200  11.355  16.944   2.532 -0.2105 -0.0512  0.0048
 9354W        W26201   9.442   0.533  13.730 -0.3607 -0.0387 -0.1814
 9355W        W26202   5.662   4.107  12.583 -0.2630 -0.1145  0.0805
 9356W        W26203   2.007   4.175   3.639  0.2763  0.2957  0.4021
 9357W        W26204  10.446   1.140   3.017 -0.1643  0.0665 -0.4305
 9358W        W26205  13.659  12.187   3.649  0.1626  0.0239 -0.1957
 9359W        W26206   9.188  14.251   1.138  0.1417 -0.1662 -0.1670
 9360W        W26207  17.812  17.237   4.100 -0.1790 -0.2199  0.1677
 9361W        W26208   5.996  17.192  16.556 -0.1834 -0.0232 -0.0182
 9362W        W26209  14.054   9.631  14.939  0.2904  0.1829  0.2057
 9363W        W26210   1.768  13.780   4.287  0.0228  0.0795  0.1375
 9364W        W26211  14.379  17.085   4.378 -0.0218 -0.0194  0.3461
 9365W        W26212  11.170  13.637  14.205  0.3227 -0.0889 -0.1714
 9366W        W26213   8.165   0.043   1.079  0.0424  0.0989 -0.0655
 9367W        W26214  15.860  10.486   6.044 -0.0073  0.0028 -0.2246
 9368W        W26215  12.714  14.630  13.228  0.2841 -0.0228 -0.1606
 9369W        W26216  16.327  15.866   2.324 -0.2491 -0.2815 -0.1560
 9370W        W26217   5.226  14.182  13.211  0.4183  0.0651  0.1146
 9371W        W26218   0.077   2.028   0.625  0.0398  0.0385  0.2585
 9372W        W26219   7.697   0.905  13.737  0.0683 -0.1645  0.0378
 9373W        W26220   1.271  10.695  12.690 -0.1114  0.2570  0.0987
 9374W        W26221  12.856  15.176   1.130  0.0608  0.1291  0.0720
 9375W        W26222   0.370   6.653  12.061  0.0426  0.3646  0.2925
 9376W        W26223   7.049   1.605   3.918 -0.1883  0.3665  0.0338
 9377W        W26224   6.287   3.428  11.121  0.0505  0.1242 -0.0689
 9378W        W26225   4.746  12.314  15.818  0.1300  0.2290 -0.0561
 9379W        W26226  12.284   2.976  12.505 -0.3583 -0.2509 -0.1005
 9380W        W26227  12.386   0.560   3.998  0.0386 -0.2723  0.2720
 9381W        W26228   3.895  13.796  13.069 -0.2099 -0.2915 -0.3604
 9382W        W26229   2.856  14.709  14.612  0.3269 -0.0128  0.3732
 9383W        W26230  14.722   8.689   3.968  0.0533 -0.2776 -0.0405
 9384W        W26231   7.164   3.809   1.566 -0.0074  0.1230 -0.2985
 9385W        W26232   5.340   7.964   4.103 -0.0037 -0.3631  0.1902
 9386W        W26233   5.923  10.593  11.536  0.0912 -0.2947  0.0373
 9387W        W26234   5.587  12.338   0.220 -0.0316  0.0110  0.1174
 9388W        W26235   5.973  11.721   4.647  0.1529 -0.0003  0.0610
 9389W        W26236   7.789   3.839  11.448 -0.1448  0.4436 -0.0488
 9390W        W26237   3.546  14.086  13.155  0.1361  0.2600 -0.1509
 9391W        W26238  10.450  16.432  14.071  0.0627  0.0005  0.0049
 9392W        W26239  10.330   5.475  15.118  0.0461  0.0485  0.3343
 9393W        W26240   3.552   0.315  16.276  0.0494 -0.1299  0.1201
 9394W        W26241   4.825   5.868  12.309  0.1658  0.1629  0.3519
 9395W        W26242  15.271   4.854   1.175  0.0411 -0.0894  0.3185
 9396W        W26243   1.125   6.436  16.065 -0.1370 -0.0368 -0.2100
 9397W        W26244  17.596  14.251   3.197 -0.2671 -0.1326 -0.0163
 9398W        W26245  10.703  16.397  15.440  0.3410 -0.1676  0.1000
 9399W        W26246   1.048  15.566   0.483 -0.2407 -0.0125  0.0828
 9400W        W26247   9.811  13.317   3.696  0.2983  0.0053  0.2096
 9401W        W26248   4.297  17.739   2.756  0.2775  0.1608 -0.2098
 9402W        W26249  11.246  14.100  14.896  0.1422 -0.2921  0.0859
 9403W        W26250   1.006   6.726  14.618  0.0939 -0.1710 -0.1520
 9404W        W26251   3.717  16.359  16.426  0.0831  0.2124  0.2389
 9405W        W26252  13.915  16.278  16.207 -0.1290  0.0064 -0.1524
 9406W        W26253   4.473  15.756  14.729  0.1285 -0.0066  0.5035
 9407W        W26254  15.554  12.896  15.547 -0.0698  0.1164  0.2106
 9408W        W26255  11.174  15.459  15.671 -0.1219  0.1797  0.0240
 9409W        W26256  13.268   1.449  16.463 -0.0048 -0.0388  0.0911
 9410W        W26257  14.799  15.950   5.682  0.2090  0.0787 -0.2658
 9411W        W26258  16.889  16.695  13.300 -0.0277 -0.0992  0.0067
 9412W        W26259  17.294  16.062   1.964  0.0656 -0.2237 -0.3275
 9413W        W26260  16.489   6.549  16.588  0.1128  0.1076  0.0777
 9414W        W26261  11.081   8.254   0.878  0.1822  0.1911 -0.0666
 9415W        W26262   8.184  12.048  13.604  0.0066 -0.0032  0.2734
 9416W        W26263   1.313  12.246  13.737 -0.4022  0.4606 -0.0475
 9417W        W26264  14.783  12.660   3.684 -0.0628  0.0321 -0.1593
 9418W        W26265  18.107  13.369   1.850 -0.0643 -0.1924 -0.1327
 9419W        W26266  15.639   3.610  11.334  0.0545 -0.1533  0.0715
 9420W        W26267   7.649  16.857   1.370 -0.2112  0.0480 -0.1690
 9421W        W26268  12.326  13.502  12.185 -0.3866  0.0137 -0.1688
 9422W        W26269  12.084   8.269   2.442 -0.2450  0.1409 -0.1165
 9423W        W26270  10.338  12.743  15.091  0.0133  0.0358 -0.1462
 9424W        W26271  10.680  17.042   4.878 -0.0213 -0.2512  0.3449
 9425W        W26272   9.225  11.609   0.396 -0.1885 -0.0563 -0.1649
 9426W        W26273  10.000  10.106  15.822 -0.0871  0.0878 -0.5778
 9427W        W26274  10.188  17.937   3.227 -0.0472 -0.0681 -0.0631
 9428W        W26275   2.068   8.742  15.341 -0.0199  0.0529  0.0450
 9429W        W26276   0.802   0.922   1.666 -0.0106 -0.1993  0.3452
 9430W        W26277  13.092  12.961   4.803  0.1804 -0.0735 -0.3231
 9431W        W26278   9.860   0.138   1.230  0.2236 -0.0890 -0.0146
 9432W        W26279   7.323   8.373   3.841  0.0560 -0.0696 -0.3194
 9433W        W26280   3.826  11.514   2.749  0.0905 -0.1533 -0.2823
 9434W        W26281  13.658   7.396   0.832  0.0351  0.0175  0.1471
 9435W        W26282  11.430   3.727   3.366 -0.0607  0.0707 -0.4086
 9436W        W26283   8.163   1.779   0.897 -0.1929 -0.1244  0.0405
 9437W        W26284  13.033   1.084   2.967 -0.0045 -0.0529  0.1103
 9438W        W26285  17.770  15.668  14.250  0.1040  0.0968 -0.1611
 9439W        W26286   5.130   2.642   3.638  0.2027 -0.0497 -0.0074
 9440W        W26287   3.248   2.132  14.866  0.1965  0.1356 -0.2804
 9441W        W26288   2.532   3.710  12.326  0.1192  0.0006 -0.1145
 9442W        W26289  12.382  15.851  12.066  0.0941  0.2998  0.3079
 9443W        W26290  16.437   3.002  14.749  0.4015 -0.2566  0.2277
 9444W        W26291  12.477   0.554   4.628  0.0043 -0.0257 -0.2914
 9445W        W26292  11.612  10.025  13.805  0.0371  0.0993  0.4970
 9446W        W26293   4.272  16.000   2.260  0.0851 -0.1533  0.2290
 9447W        W26294  10.051  12.720  15.807  0.1999 -0.1752 -0.0361
 9448W        W26295   1.603   5.330  15.526 -0.2224 -0.0309  0.3137
 9449W        W26296  15.770   0.976   1.315  0.0132  0.1240 -0.0333
 9450W        W26297   7.520  10.315   3.811  0.0401  0.0979 -0.2029
 9451W        W26298   1.804   9.817   4.679  0.0534 -0.0810  0.0393
 9452W        W26299  11.585   6.881  13.570 -0.0383  0.0930 -0.0848
 9453W        W26300   6.818   4.938  14.112  0.3844  0.0902  0.1472
 9454W        W26301   9.346   3.898   2.308 -0.4895  0.1505  0.1230
 9455W        W26302  17.800   4.186   2.672  0.0432  0.2153 -0.2134
 9456W        W26303  10.981   6.919   1.976 -0.0459  0.0310  0.0594
 9457W        W26304  10.028  14.960  13.976  0.1653  0.2597 -0.0383
 9458W        W26305   6.698   0.158   0.220  0.0157 -0.0965 -0.2673
 9459W        W26306  11.161   3.175  14.600 -0.0073  0.1954 -0.2468
 9460W        W26307   3.398  15.711  15.292 -0.0265 -0.0317  0.5217
 9461W        W26308  10.807  10.159  12.441  0.0608 -0.3894 -0.1502
 9462W        W26309  16.764  15.338   0.273 -0.3845 -0.0131  0.2366
 9463W        W26310   7.508   6.502   4.593 -0.2091 -0.0823  0.0619
 9464W        W26311   5.768   2.104  15.014 -0.1625  0.2655  0.1213
 9465W        W26312  15.706   6.625  16.068  0.0590  0.0580 -0.0811
 9466W        W26313   6.874   3.865  13.936 -0.0568  0.1491 -0.0264
 9467W        W26314  17.427   3.785   0.247  0.2287 -0.2265  0.2616
 9468W        W26315  14.709   1.035  15.606 -0.0511 -0.1789 -0.0033
 9469W        W26316   9.798  16.022   5.104  0.0801 -0.2215 -0.0555
 9470W        W26317   6.406   7.850  16.274  0.3843 -0.0825  0.2278
 9471W        W26318   1.938  15.356   0.615  0.1197 -0.1661  0.1335
 9472W        W26319  17.746  12.594   5.817  0.0107  0.3155  0.0989
 9473W        W26320   3.196   3.429   0.992 -0.1904  0.4966  0.0203
 9474W        W26321  11.739   7.336  13.379  0.1156 -0.1423  0.0331
 9475W        W26322  12.352   0.203  16.455 -0.1334 -0.1918  0.0499
 9476W        W26323   2.828   9.347   3.452 -0.0071 -0.1114  0.0426
 9477W        W26324  11.539   7.992   0.012 -0.0970  0.1374 -0.1787
 9478W        W26325   7.155   3.542  16.254 -0.1525  0.1917 -0.1973
 9479W        W26326  13.341   9.115  12.284  0.0634  0.2323  0.1843
 9480W        W26327  17.285  16.898  12.923 -0.1403 -0.0205 -0.1002
 9481W        W26328  10.399   0.356  15.309  0.0472  0.2254 -0.0498
 9482W        W26329  14.531   6.952   3.330  0.1829  0.1123  0.0978
 9483W        W26330   5.851  12.149  15.304  0.2434  0.1591  0.0390
 9484W        W26331  14.345  15.546  13.730 -0.3564 -0.0762  0.0025
 9485W        W26332   4.213  15.476   1.746 -0.1348  0.2657 -0.1217
 9486W        W26333  11.680   3.585  14.708  0.0590  0.1106 -0.0486
 9487W        W26334   3.627  10.488  12.974 -0.0316 -0.0397 -0.2079
 9488W        W26335  17.292   9.452  14.992 -0.0386  0.1551  0.1149
 9489W        W26336  14.755   0.773   3.214  0.2535  0.0350 -0.0479
 9490W        W26337   2.462  12.558   2.330 -0.2697 -0.1473 -0.2334
 9491W        W26338  16.410   6.568   3.277  0.0399 -0.0835  0.0722
 9492W        W26339   4.440  15.646   2.615  0.5137 -0.0723  0.3821
 9493W        W26340  17.055  11.163   4.988  0.4066 -0.1702 -0.0751
 9494W        W26341   1.202  10.154  13.013  0.2933  0.0509 -0.2308
 9495W        W26342  15.027  13.093   3.521 -0.1238  0.2990 -0.2531
 9496W        W26343  14.827  14.792  12.738 -0.0851 -0.2227 -0.2488
 9497W        W26344   0.337  17.608  16.113  0.1304 -0.0742 -0.0195
 9498W        W26345  11.593  13.783   3.910 -0.0827  0.3201 -0.0812
 9499W        W26346  11.399  14.907   2.631  0.0341  0.1650 -0.0768
 9500W        W26347  14.588  11.968   0.660 -0.3945  0.0695  0.2273
 9501W        W26348   6.459   5.632  16.318  0.1011  0.1300  0.1225
 9502W        W26349   3.176   8.775   1.274 -0.1588  0.0333  0.0016
 9503W        W26350  14.983   4.720   4.480 -0.1189 -0.1289  0.1821
 9504W        W26351  16.444  16.445   3.936 -0.0379 -0.1455 -0.1198
 9505W        W26352   7.483   4.739  15.924  0.4012  0.2565  0.2064
 9506W        W26353   8.352   3.181   4.018  0.3971  0.0683 -0.2672
 9507W        W26354  10.395  15.235   4.959 -0.0979  0.1016 -0.2215
 9508W        W26355  15.012  17.167  11.692 -0.0196  0.0448  0.3006
 9509W        W26356   0.269   9.250  12.763  0.1076  0.2853 -0.3352
 9510W        W26357   9.076  14.308   3.142  0.1839 -0.2633 -0.1133
 9511W        W26358  17.144   0.372  12.515  0.0804 -0.0267 -0.1991
 9512W        W26359   2.831   7.196  12.623  0.2688 -0.3263  0.1270
 9513W        W26360  15.692  11.832  12.589 -0.0201  0.1127  0.0673
 9514W        W26361   2.030   0.936  15.838 -0.1415  0.0464  0.2962
 9515W        W26362  12.439  13.212  12.617  0.0882 -0.2479  0.0109
 9516W        W26363  17.394   8.930  11.823 -0.4383 -0.1510  0.1047
 9517W        W26364  14.102   1.779   4.677 -0.0853  0.1592 -0.0732
 9518W        W26365  11.066   0.514  13.484  0.1012  0.0208  0.1026
 9519W        W26366  11.353   6.386   5.475 -0.3467  0.1386  0.1697
 9520W        W26367   3.448   0.060   2.948  0.2801 -0.0694 -0.0822
 9521W        W26368   2.030  16.827  16.223  0.0105 -0.3762  0.0485
 9522W        W26369   3.032  15.452  15.625 -0.2230  0.1903 -0.1546
 9523W        W26370   2.964  16.686  16.026 -0.0754  0.0594  0.0082
 9524W        W26371  16.503   1.766   3.906 -0.0139 -0.1500  0.0394
 9525W        W26372  14.007   7.131  12.948  0.2147 -0.1037 -0.4547
 9526W        W26373   5.475   0.731  14.997  0.1842 -0.1360 -0.0657
 9527W        W26374  10.709  16.783   1.878 -0.4065 -0.0160 -0.3861
 9528W        W26375   3.753  10.399   2.061 -0.2824  0.0498  0.1408
 9529W        W26376   7.192   0.212  10.683 -0.0589  0.0152 -0.2117
 9530W        W26377   3.744  15.978  13.881  0.0450  0.2739  0.2898
 9531W        W26378  11.421  11.161   3.638 -0.4419  0.4297  0.0493
 9532W        W26379  12.522   6.655  14.228  0.2588  0.0421  0.4679
 9533W        W26380  12.865  13.517   1.173  0.1175 -0.1286 -0.1286
 9534W        W26381   2.377   2.097   2.367  0.2732 -0.1467  0.0891
 9535W        W26382   5.455  13.940   2.455  0.2400 -0.4255  0.0960
 9536W        W26383   5.771  14.802   1.062  0.2581  0.1952 -0.1868
 9537W        W26384  13.476   2.914  15.704  0.1267  0.0927  0.1570
 9538W        W26385   0.534   1.213   0.587 -0.1231  0.0697  0.2312
 9539W        W26386   2.443   5.427   1.640  0.2079 -0.0851  0.2536
 9540W        W26387   8.963  14.042  15.481  0.1302  0.0344 -0.0658
 9541W        W26388   6.837  12.048  16.263  0.2217  0.3538  0.0626
 9542W        W26389   0.791   9.362   3.149  0.1250  0.0144 -0.1393
 9543W        W26390  17.514   9.281  12.175 -0.1860 -0.0903  0.1217
 9544W        W26391   8.408  13.225   0.851  0.0820  0.0242 -0.1229
 9545W        W26392  11.829   5.917  11.402 -0.1981 -0.0286  0.0922
 9546W        W26393   9.849  11.230   5.230  0.2233 -0.1599 -0.2083
 9547W        W26394   0.701  10.947   4.353  0.0669 -0.0389 -0.2891
 9548W        W26395   5.227  17.561  13.823  0.2533 -0.0096  0.0080
 9549W        W26396  11.662  10.540  14.164  0.0179 -0.0479  0.0015
 9550W        W26397  10.252  12.517  12.368 -0.1579 -0.0362 -0.3196
 9551W        W26398  14.344  13.386   0.719 -0.0664 -0.3317  0.1476
 9552W        W26399   6.528   4.966   0.748 -0.2275  0.1271  0.2051
 9553W        W26400   2.437  15.307  13.908 -0.0181  0.3086  0.1564
 9554W        W26401   7.743   5.084   0.655 -0.0842 -0.0938 -0.0333
 9555W        W26402  13.564  11.368  12.196 -0.0262  0.2023 -0.1113
 9556W        W26403   6.832  17.693  15.000  0.1849  0.1201 -0.0456
 9557W        W26404   3.448  17.254  12.936 -0.2867  0.1005  0.2354
 9558W        W26405   0.423  14.346  11.180 -0.1069  0.2424  0.0154
 9559W        W26406   6.355   7.653  11.430  0.2318  0.1722 -0.1212
 9560W        W26407   6.220  17.686  14.812 -0.3381  0.2563  0.2686
 9561W        W26408   2.397  13.674   3.203  0.2361  0.1659 -0.2426
 9562W        W26409   3.299   5.303  12.240 -0.1353  0.1045 -0.0954
 9563W        W26410   3.427  15.256   4.933  0.0860 -0.1533  0.0115
 9564W        W26411   7.503  17.804   4.559  0.2614 -0.0591  0.0310
 9565W        W26412  10.511   9.456  14.046  0.0952 -0.0540  0.1970
 9566W        W26413   2.902  10.927   5.933 -0.1981  0.0352  0.0888
 9567W        W26414   0.564  10.420  11.858  0.0861  0.3000 -0.0119
 9568W        W26415  17.916  16.750  11.960 -0.0792  0.2519  0.2866
 9569W        W26416  13.538   3.114   3.296 -0.0472 -0.1439 -0.1937
 9570W        W26417   1.126  10.126  15.463  0.0253 -0.1592  0.0460
 9571W        W26418   3.069   4.360  11.668  0.2075 -0.3282 -0.0974
 9572W        W26419   2.771   0.357   5.364  0.1400 -0.0111 -0.1057
 9573W        W26420  16.090   2.172   1.918 -0.3467 -0.0999 -0.0759
 9574W        W26421  16.645   3.327   1.282  0.2289 -0.3384 -0.3841
 9575W        W26422   3.945  10.669  13.830  0.1329 -0.0983  0.1912
 9576W        W26423  12.933  14.445  15.661  0.0702  0.1925  0.0299
 9577W        W26424  11.910   2.447  14.855  0.0843 -0.0787  0.0223
 9578W        W26425  15.740  17.264   4.036 -0.1031 -0.0485 -0.0194
 9579W        W26426   8.166  14.913  11.904  0.2960 -0.3238  0.2882
 9580W        W26427  16.085  10.584  14.455  0.3191  0.0308  0.2016
 9581W        W26428  12.525  11.423  13.109  0.0412 -0.0839 -0.1821
 9582W        W26429  11.701   2.291  14.343  0.2994  0.0405 -0.2976
 9583W        W26430  13.100   2.643   2.194  0.0976 -0.1297 -0.2884
 9584W        W26431  11.624   2.274   1.542  0.3213 -0.1770  0.1427
 9585W        W26432   8.496  14.533  15.002 -0.1861 -0.0756 -0.0556
 9586W        W26433  13.360  13.370  11.453  0.3452  0.1861 -0.1234
 9587W        W26434  14.952   5.890  11.435 -0.3212  0.1561  0.0913
 9588W        W26435   7.826   6.050   1.795 -0.3135 -0.3176 -0.1860
 9589W        W26436   8.562   7.500  11.575 -0.0349 -0.2407  0.2067
 9590W        W26437  16.960  11.799   1.618  0.0430 -0.1173 -0.1232
 9591W        W26438   3.331  11.333  13.345 -0.1991 -0.0546  0.0757
 9592W        W26439   4.397   7.142  12.871 -0.0816  0.0476  0.0655
 9593W        W26440  17.954  15.325  14.629 -0.2310 -0.0776  0.1422
 9594W        W26441   7.349  11.487   2.991  0.5000  0.0408  0.2197
 9595W        W26442  10.008   1.981   1.444 -0.0960 -0.0105 -0.0402
 9596W        W26443   0.182   1.216  11.681  0.3040  0.1290  0.4177
 9597W        W26444   6.650   3.306   1.949  0.1790 -0.4593  0.0517
 9598W        W26445  10.229   2.107  11.998  0.0444  0.1532 -0.2723
 9599W        W26446   5.991  11.264   3.297 -0.0293  0.0771  0.3759
 9600W        W26447  15.257  12.023  16.590  0.1122  0.1260  0.1548
 9601W        W26448   0.055  11.741   1.320 -0.0846 -0.0204 -0.2113
 9602W        W26449  11.971   6.772  13.924  0.3434  0.0576  0.2276
 9603W        W26450  16.488  17.901   5.187 -0.1478  0.2556  0.1809
 9604W        W26451   5.554   5.993  13.067  0.0093  0.0544 -0.0521
 9605W        W26452   3.175  12.396  16.610 -0.0938  0.2835 -0.2690
 9606W        W26453   9.079  16.644   5.081  0.0235 -0.1106  0.0725
 9607W        W26454  14.182   6.685  14.214 -0.3686  0.1205 -0.0605
 9608W        W26455  14.804  12.922  14.845 -0.1923  0.0692 -0.0836
 9609W        W26456  11.374  12.252   1.085  0.2592 -0.0509  0.3312
 9610W        W26457  10.673  15.323  15.565 -0.4229  0.1621 -0.4293
 9611W        W26458  17.328  14.658   0.576 -0.1834 -0.2273  0.2638
 9612W        W26459   0.698  15.445  14.493 -0.1474  0.2201 -0.0295
 9613W        W26460   1.973   6.549   0.941  0.2682  0.0045  0.0818
 9614W        W26461   5.716   8.011  12.001 -0.0350 -0.1100  0.3273
 9615W        W26462  17.319  11.795  16.434  0.0060  0.2093 -0.1264
 9616W        W26463   8.864  17.694   5.364 -0.0097  0.5535 -0.4038
 9617W        W26464  14.539   2.375  11.892  0.1015 -0.2140 -0.0046
 9618W        W26465   4.251   6.123   4.126  0.2583 -0.5687 -0.3643
 9619W        W26466   5.956   8.543  11.837 -0.2863 -0.0664  0.0260
 9620W        W26467  12.227   1.025  15.602  0.3921  0.0855 -0.3060
 9621W        W26468   3.309  16.869   5.872  0.3276 -0.0147 -0.0986
 9622W        W26469   6.873   6.304   1.489 -0.3956  0.0965 -0.1354
 9623W        W26470   4.824   5.314  16.500 -0.1490 -0.3691 -0.0651
 9624W        W26471   7.710   2.319   2.000  0.0377 -0.1172  0.1620
 9625W        W26472  11.484   4.033  12.482 -0.1315  0.1002 -0.0442
 9626W        W26473  15.778  17.577   3.570 -0.1316  0.2302 -0.1453
 9627W        W26474  15.675  11.129  15.701  0.1163  0.2585 -0.0013
 9628W        W26475  12.528   9.513   5.458  0.0636  0.0637 -0.0797
 9629W        W26476  15.345   7.765   2.515  0.0507 -0.0489 -0.1387
 9630W        W26477   3.085   3.592   2.807 -0.0780  0.0912  0.1540
 9631W        W26478  13.673   1.824  14.464  0.0346  0.4790  0.0496
 9632W        W26479  13.143  11.682  12.086  0.1076 -0.0173  0.3244
 9633W        W26480  15.464   7.086  14.553 -0.1693  0.0511  0.0374
 9634W        W26481   1.961  11.890  11.663 -0.1103 -0.0040 -0.0359
 9635W        W26482   6.420  10.596  11.443  0.2323  0.0229  0.2464
 9636W        W26483  10.739   7.480   1.905  0.0534 -0.0507  0.4162
 9637W        W26484  14.151   8.413   0.009  0.1228 -0.0159 -0.2075
 9638W        W26485   3.717  14.576   0.120 -0.1448  0.0796  0.1522
 9639W        W26486   7.409  12.692  13.389  0.2397 -0.4851 -0.1139
 9640W        W26487  15.601  17.098  12.138  0.2675 -0.0490  0.2436
 9641W        W26488  12.539   2.356   4.943  0.0357  0.0466 -0.2384
 9642W        W26489   3.299   6.615  13.293  0.1829  0.0454  0.1060
 9643W        W26490   5.594   5.177  14.281 -0.0758 -0.0939  0.1878
 9644W        W26491   5.116   7.708  16.533  0.2294  0.0192  0.0607
 9645W        W26492  12.381   6.836  14.790  0.0669  0.1748 -0.0014
 9646W        W26493   9.406   0.223  11.932  0.0126 -0.0014  0.0294
 9647W        W26494   7.875   3.022   4.997 -0.0247  0.1114  0.0334
 9648W        W26495   0.216  15.845  12.084 -0.1390  0.0398  0.1126
 9649W        W26496  17.388   6.669   1.665 -0.0863 -0.0549  0.1134
 9650W        W26497   4.683   4.080   2.132 -0.3287 -0.2756 -0.0726
 9651W        W26498  13.957  17.855   1.029 -0.1223  0.0959 -0.0037
 9652W        W26499   1.541  11.292   2.820 -0.0353  0.0735  0.1954
 9653W        W26500   7.052  16.454   4.935  0.2047  0.2968  0.0164
 9654W        W26501  14.880  17.487  12.087 -0.1024  0.3894 -0.0627
 9655W        W26502  12.479   0.236   1.616 -0.1423 -0.0893  0.3010
 9656W        W26503  13.806   8.315  12.701  0.0028  0.0757 -0.0066
 9657W        W26504   1.250   5.117   5.059 -0.0495  0.0135 -0.3504
 9658W        W26505   5.424  16.344   3.250  0.2635  0.1751 -0.1873
 9659W        W26506  14.715  16.698   5.211 -0.0261 -0.0002  0.1577
 9660W        W26507   9.430   8.580  12.186  0.2229  0.1659 -0.2206
 9661W        W26508   1.311  13.899   2.063 -0.0645  0.0960 -0.1466
 9662W        W26509  13.361  13.854  11.728  0.4718 -0.0858 -0.1497
 9663W        W26510   4.837   9.043  12.468 -0.1120  0.1586  0.1889
 9664W        W26511   9.414   3.042  11.393  0.0609  0.0106 -0.2239
 9665W        W26512  17.493  12.927  14.896  0.0834  0.0295 -0.1000
 9666W        W26513   6.234   7.283   2.552  0.2198 -0.0231 -0.3576
 9667W        W26514  16.664  15.692   3.555 -0.0934  0.2817 -0.0222
 9668W        W26515  10.081  15.137   1.798  0.2708 -0.1867  0.0211
 9669W        W26516   1.241  10.365  13.594 -0.2294  0.0242  0.1148
 9670W        W26517  17.864   3.277  13.006 -0.1102  0.1530 -0.4092
 9671W        W26518  15.497  12.038   5.064 -0.2336 -0.0908 -0.0624
 9672W        W26519  10.930  12.431   4.654 -0.3232 -0.1741  0.0941
 9673W        W26520   1.984   5.670  11.424 -0.0377 -0.0031  0.0681
 9674W        W26521  14.611   9.382  13.618 -0.1002 -0.0008 -0.1058
 9675W        W26522  14.906  16.635  14.880 -0.2723  0.3326  0.0550
 9676W        W26523   9.056  10.919   1.256  0.1810  0.1481  0.1544
 9677W        W26524  10.206   2.457  12.949 -0.1153 -0.0273 -0.0062
 9678W        W26525  11.894  13.657   2.912 -0.0709  0.0273  0.0721
 9679W        W26526   2.960   0.087  13.124  0.0584  0.2764 -0.2427
 9680W        W26527  16.546  16.699   2.130 -0.2493 -0.0265 -0.0275
 9681W        W26528  15.123   4.494   5.060  0.2845 -0.0626 -0.2120
 9682W        W26529  15.787   3.376  12.229 -0.0761  0.1352 -0.1001
 9683W        W26530   3.455  10.420   4.774  0.0046  0.0518  0.2893
 9684W        W26531  11.374   5.157   3.180 -0.0461 -0.0943  0.2495
 9685W        W26532  15.750   7.252   0.632  0.0922 -0.1007  0.1199
 9686W        W26533  12.630   1.479  11.278 -0.3772  0.0225 -0.3151
 9687W        W26534   6.506  11.808   1.085 -0.3118 -0.0531 -0.0904
 9688W        W26535  13.715   3.212  16.531 -0.0726 -0.0209 -0.0882
 9689W        W26536  15.180   7.363   2.251  0.0397 -0.1882  0.1524
 9690W        W26537   4.755   8.389   4.631  0.0905  0.1651  0.1130
 9691W        W26538  14.514   6.823  13.072  0.0016 -0.1875 -0.2737
 9692W        W26539   1.534   5.387   5.398 -0.1189  0.1362  0.3251
 9693W        W26540   8.740  13.876   0.110 -0.2098 -0.0715 -0.1310
 9694W        W26541  16.298   1.839  16.248  0.0329 -0.2257 -0.1696
 9695W        W26542   4.379   5.707   1.771  0.2978  0.0974  0.0079
 9696W        W26543   0.340   1.998  11.929  0.0125  0.0248 -0.0750
 9697W        W26544   8.561  15.559   4.861  0.1087  0.1891  0.1274
 9698W        W26545  14.074   3.033   3.416 -0.0502 -0.2335 -0.5401
 9699W        W26546  17.026  17.628   5.217  0.0133  0.0160  0.1151
 9700W        W26547   0.003   8.570   5.076  0.3552  0.1209  0.3513
 9701W        W26548  11.217   6.588   0.939  0.1159 -0.2081 -0.3426
 9702W        W26549  16.722   3.038   3.245 -0.4104  0.3299 -0.0457
 9703W        W26550   9.582   4.325   4.829 -0.1073  0.0322  0.1357
 9704W        W26551   5.186  13.852   4.211 -0.0882 -0.1124  0.0875
 9705W        W26552   3.732   4.668  12.998 -0.2928 -0.0315 -0.1907
 9706W        W26553  16.098   1.649  13.255 -0.0796 -0.1649 -0.0838
 9707W        W26554   3.945  10.806   3.385  0.1018 -0.0323 -0.0217
 9708W        W26555   2.345  10.854  14.273  0.1124  0.0258 -0.2047
 9709W        W26556   4.698  11.294   4.455 -0.0621 -0.1448  0.0375
 9710W        W26557  16.649  11.591  16.136 -0.3173  0.0529  0.0147
 9711W        W26558   1.085  17.036   4.354  0.2568 -0.1312 -0.0554
 9712W        W26559   9.727   5.066   0.293 -0.0809 -0.2197  0.0056
 9713W        W26560   7.527  10.681  14.587 -0.0544  0.1395 -0.1253
 9714W        W26561  11.656   4.931  16.616 -0.1311 -0.1764  0.2064
 9715W        W26562  16.219  12.736   1.041 -0.2792 -0.0588 -0.2561
 9716W        W26563  18.065   8.971  15.306  0.3073  0.2663  0.0428
 9717W        W26564   5.950   6.732   4.104 -0.0284 -0.1882 -0.0588
 9718W        W26565  13.205   6.994   5.641  0.1287 -0.3629  0.1861
 9719W        W26566  17.696   5.404   5.373  0.0834  0.2537 -0.1257
 9720W        W26567  10.460   1.538   5.162  0.1936 -0.0802  0.2108
 9721W        W26568   9.582  10.329   4.457  0.0264  0.0508  0.1929
 9722W        W26569   3.989   3.341  13.304  0.1928  0.0437 -0.1304
 9723W        W26570  12.531   9.303   3.453  0.1768 -0.0327  0.1437
 9724W        W26571   9.397   5.903   4.320 -0.1474  0.2210  0.1118
 9725W        W26572  17.988   9.718  16.287  0.1803 -0.0087 -0.1603
 9726W        W26573   3.925   1.853   0.500  0.0007 -0.1818 -0.0162
 9727W        W26574  11.004   9.420  11.530 -0.0881 -0.2726 -0.0300
 9728W        W26575   5.641  15.764  15.506  0.0219  0.1301 -0.0381
 9729W        W26576  10.911   3.641  15.439  0.1563  0.1222  0.1295
 9730W        W26577  13.448  11.413   5.352  0.2714 -0.0371 -0.0542
 9731W        W26578  17.551   6.607  16.146  0.1051 -0.1701  0.0533
 9732W        W26579  10.786  12.184  15.814 -0.1369 -0.2768 -0.2150
 9733W        W26580  15.137   7.900   3.624 -0.0785  0.2252  0.1126
 9734W        W26581  10.846  17.971   5.331 -0.1632 -0.2814  0.4322
 9735W        W26582   0.582   5.956   4.778  0.0695  0.0004  0.0314
 9736W        W26583  10.302  13.979  12.708  0.2026 -0.1633  0.0874
 9737W        W26584   5.483   6.531   4.093 -0.2304 -0.1078  0.0645
 9738W        W26585  14.241   9.332  15.285 -0.0251 -0.1707  0.1629
 9739W        W26586  11.627   6.232   3.025  0.2518 -0.0327  0.0479
 9740W        W26587  16.975   9.535  13.974  0.5857 -0.0331  0.1638
 9741W        W26588  17.525   7.345  15.683 -0.1207 -0.0126 -0.0715
 9742W        W26589  11.367   5.983  13.681 -0.1265 -0.0670 -0.0481
 9743W        W26590   7.383   3.535  15.439  0.1427 -0.0425 -0.1558
 9744W        W26591  16.476   2.026   0.403  0.1341  0.0561 -0.0783
 9745W        W26592   6.904   7.762   0.964  0.1314 -0.1660 -0.0105
 9746W        W26593  10.099   3.658  14.143  0.2891 -0.0036 -0.0542
 9747W        W26594   8.822   7.913   4.539 -0.0980  0.0936  0.0173
 9748W        W26595   8.339  12.837   1.683 -0.2465  0.0209  0.0714
 9749W        W26596   0.971   2.183   3.180 -0.3234  0.0332  0.0061
 9750W        W26597  14.130   0.400   4.898  0.2205 -0.0460 -0.0951
 9751W        W26598   5.544   0.231  12.202  0.1623 -0.0549 -0.3661
 9752W        W26599  16.043  12.181  12.774  0.1526 -0.4272  0.0281
 9753W        W26600   5.567   8.021   1.095 -0.0132  0.1650  0.0905
 9754W        W26601   3.820  13.660   3.359 -0.3164  0.1960  0.0008
 9755W        W26602   7.687   1.665   6.398 -0.0150  0.0299  0.0197
 9756W        W26603   4.226   1.435  11.776  0.1641 -0.0153 -0.1343
 9757W        W26604   2.354   3.162  12.115  0.2667  0.1388 -0.1148
 9758W        W26605   7.533   4.600   4.272  0.1710  0.5288  0.1650
 9759W        W26606  16.932   6.828   0.731  0.0963  0.1328  0.0248
 9760W        W26607   0.295  14.017   4.338  0.0459  0.0581  0.0916
 9761W        W26608  15.754  15.496  16.514  0.1417 -0.0754 -0.1060
 9762W        W26609   4.230  15.306  15.539  0.0445  0.0306  0.2094
 9763W        W26610  14.757   0.303   3.505  0.1022 -0.3105 -0.1131
 9764W        W26611  17.831  12.272  14.205 -0.0421  0.3426 -0.0612
 9765W        W26612   3.022  15.520   5.683  0.0297  0.2797 -0.0690
 9766W        W26613  13.386  15.923  16.576  0.5422  0.4983 -0.0383
 9767W        W26614   0.435  13.631   4.117 -0.2096  0.0877  0.0643
 9768W        W26615   5.522   8.796  12.965  0.2417  0.1268 -0.0817
 9769W        W26616  11.313  12.521  16.599 -0.0034 -0.3503 -0.0972
 9770W        W26617   6.891   3.680   0.592 -0.0314  0.2139  0.0546
 9771W        W26618  14.427   4.063   1.287  0.3636  0.2229 -0.2000
 9772W        W26619   4.085   9.447  12.839 -0.0469  0.1786  0.0791
 9773W        W26620   3.179  15.267  16.055  0.3711 -0.0003 -0.3771
 9774W        W26621  14.485   9.716  15.971 -0.1754 -0.0016  0.1748
 9775W        W26622  15.231  11.684   4.025  0.2239 -0.0226 -0.0746
 9776W        W26623   6.784  10.170   1.461 -0.0774  0.1962 -0.2762
 9777W        W26624   8.058  13.036  12.714 -0.1229 -0.1586 -0.3427
 9778W        W26625  17.911   8.181   5.568 -0.2647  0.0366 -0.1291
 9779W        W26626  16.498  10.602   0.395  0.2015 -0.0902 -0.0519
 9780W        W26627  10.198   1.641  13.945  0.1554 -0.1006 -0.1769
 9781W        W26628  16.492   9.961   2.226 -0.3275  0.0031  0.3773
 9782W        W26629   0.272   7.580   4.042  0.1907  0.1050 -0.2702
 9783W        W26630   8.757   7.105  16.585  0.3753  0.0445 -0.2113
 9784W        W26631   8.306   5.538   2.887 -0.0900  0.0094 -0.0362
 9785W        W26632   1.447   9.768   3.597 -0.1976  0.1542 -0.0702
 9786W        W26633  12.959   2.211   3.843  0.0981  0.0848 -0.0783
 9787W        W26634  16.165  10.084  10.196 -0.2722 -0.0651  0.0011
 9788W        W26635   9.226  13.791  14.706 -0.2650 -0.2457  0.0017
 9789W        W26636   2.002  14.246  15.899  0.1241 -0.2852 -0.0598
 9790W        W26637  12.602  13.160   2.461 -0.3144 -0.1089  0.1847
 9791W        W26638   2.304   4.164   0.185  0.2156  0.0836  0.0408
 9792W        W26639   5.815   5.092   6.012  0.0312  0.2228  0.2452
 9793W        W26640  14.854  12.596  14.441 -0.0241  0.2362 -0.1291
 9794W        W26641   4.157   6.136   3.495  0.1094  0.2092 -0.3123
 9795W        W26642   8.887  18.157  14.997  0.1693 -0.2778 -0.0889
 9796W        W26643   4.379  16.552   0.807  0.0290 -0.0769 -0.0444
 9797W        W26644   4.139  14.244   1.339  0.0180 -0.1209 -0.0650
 9798W        W26645   6.220  10.998  14.491 -0.1448 -0.0377  0.2229
 9799W        W26646  13.004  17.898   5.877 -0.0177  0.0207 -0.0736
 9800W        W26647  12.881   3.618   3.561 -0.1274  0.0659 -0.0107
 9801W        W26648   7.558   4.290   2.145 -0.1659  0.1430  0.4191
 9802W        W26649   9.850   8.534   1.313  0.1014  0.0649  0.0812
 9803W        W26650  10.096  13.668   2.140 -0.1092  0.2007  0.1004
 9804W        W26651  13.466   5.905  14.811  0.2744 -0.2348 -0.0387
 9805W        W26652   6.420  13.721   5.719 -0.0026 -0.0809  0.1901
 9806W        W26653   9.847   4.403  15.338 -0.0277  0.0082  0.2981
 9807W        W26654   4.738   6.919   2.325 -0.4114  0.5597  0.2949
 9808W        W26655  10.283   4.265  12.049 -0.0086 -0.0732  0.0209
 9809W        W26656  15.355  10.660   2.643 -0.0484  0.1778 -0.0636
 9810W        W26657   1.071   2.999  15.984 -0.3291  0.2626 -0.0968
 9811W        W26658   8.589   3.293   1.801 -0.1167 -0.2640 -0.1053
 9812W        W26659   0.853   1.600   2.869 -0.1892  0.0909 -0.0509
 9813W        W26660   5.759  16.818  14.054 -0.2185 -0.0399 -0.1109
 9814W        W26661   7.801   0.392  15.131 -0.1599  0.2351  0.1766
 9815W        W26662   8.110   7.058  12.524 -0.3516  0.0720  0.2226
 9816W        W26663   6.027   7.665  14.344  0.0941 -0.0157  0.0230
 9817W        W26664   3.478   1.557  10.740 -0.1288 -0.1549  0.2094
 9818W        W26665  15.320   2.920   5.110  0.0494  0.1128  0.0477
 9819W        W26666   2.330   6.379   0.382  0.0686  0.0062 -0.0593
 9820W        W26667   3.298  13.074  11.672  0.0902 -0.1265  0.2454
 9821W        W26668   3.425  14.404   5.031  0.0256 -0.0163 -0.1841
 9822W        W26669   7.235  11.268   3.643 -0.1361 -0.0428  0.1917
 9823W        W26670  10.130  11.450   0.352  0.0544  0.1442 -0.2350
 9824W        W26671  11.406  11.478  15.601  0.0540 -0.1673 -0.2576
 9825W        W26672  17.620   0.183  14.516  0.2146 -0.1366 -0.1353
 9826W        W26673   3.704  15.830   2.667  0.0741 -0.4148  0.1366
 9827W        W26674   2.182   9.107   0.587  0.1767  0.2340  0.2834
 9828W        W26675  12.997   0.657   4.788 -0.3405 -0.1508 -0.1063
 9829W        W26676  17.914  17.589   5.050  0.2515  0.1172  0.1801
 9830W        W26677  15.540  17.195  15.090  0.4686  0.2067 -0.2808
 9831W        W26678  15.966   0.649  13.248 -0.1457 -0.1455 -0.2659
 9832W        W26679   6.709   9.044   0.558  0.0950 -0.2361 -0.0985
 9833W        W26680  17.757   7.646   0.551  0.3793  0.4966  0.3312
 9834W        W26681   1.712   6.649   4.983  0.1974  0.1360  0.1386
 9835W        W26682   5.964  17.855   3.299  0.0064  0.0385 -0.0907
 9836W        W26683  13.202  14.034   1.733  0.1263 -0.1445 -0.5528
 9837W        W26684   2.953   2.451  12.711  0.1542 -0.4621  0.3791
 9838W        W26685  14.253   6.018   4.648 -0.0712  0.0658 -0.3541
 9839W        W26686   0.264  13.086   3.223 -0.1378 -0.0544 -0.1181
 9840W        W26687  10.917   1.150  15.632 -0.1601 -0.0760  0.0960
 9841W        W26688  17.938  11.721   4.048 -0.0331  0.2025  0.1777
 9842W        W26689   8.054  14.169  15.005  0.0120  0.2830 -0.2144
 9843W        W26690   0.324   5.677  14.008  0.0782 -0.2820 -0.0773
 9844W        W26691  13.117   2.088  13.504 -0.0254 -0.5123 -0.1247
 9845W        W26692   5.161   2.337   1.800 -0.2012  0.0588 -0.0851
 9846W        W26693  12.640  14.173  13.712 -0.4926  0.0461 -0.0809
 9847W        W26694  13.771  11.490  15.845 -0.1891 -0.3195 -0.0241
 9848W        W26695  11.963   6.524  16.342 -0.1730  0.0706 -0.0575
 9849W        W26696   0.179   7.838  14.740 -0.1076 -0.0918 -0.3421
 9850W        W26697  13.038  11.878  13.693  0.0002  0.1330  0.2621
 9851W        W26698  17.837   4.423   4.794 -0.0093 -0.1680  0.1324
 9852W        W26699   6.950   1.031   4.051 -0.1087  0.0537 -0.1987
 9853W        W26700   6.307  15.889   2.128 -0.2289 -0.0393 -0.0153
 9854W        W26701   1.355   3.952  11.609 -0.1454  0.0659 -0.2572
 9855W        W26702   0.443   9.069   2.961 -0.1403  0.0965 -0.2386
 9856W        W26703   3.341   7.859  12.542  0.2023 -0.1533 -0.0561
 9857W        W26704  11.616   8.975   2.586 -0.3609 -0.0023  0.0147
 9858W        W26705   6.165   5.845  13.737  0.0217  0.0986  0.0427
 9859W        W26706   2.199   6.892  14.496 -0.1228 -0.0250 -0.2720
 9860W        W26707  12.173   7.586  11.701 -0.2677  0.0549 -0.2269
 9861W        W26708   0.723   7.877  16.475  0.1605 -0.0459  0.2401
 9862W        W26709   6.551  17.912  13.808 -0.1281 -0.0047  0.4481
 9863W        W26710   2.089  16.102  13.566  0.0860 -0.0575 -0.1268
 9864W        W26711  10.031  17.379  12.412  0.1625  0.0228  0.1529
 9865W        W26712   6.502  11.030   4.960  0.1324 -0.1504  0.1539
 9866W        W26713   9.310   8.197  14.214 -0.1519 -0.2605 -0.2364
 9867W        W26714   0.605  14.765  15.940 -0.0996  0.0822  0.0043
 9868W        W26715  17.072   1.221   4.215  0.1109  0.0578  0.1340
 9869W        W26716   0.214   9.543  11.632  0.0633 -0.0411  0.1139
 9870W        W26717   7.255   0.612   2.576  0.2009  0.1241 -0.1007
 9871W        W26718   2.398   1.031  11.465 -0.0358 -0.3826 -0.1877
 9872W        W26719  14.743   6.335  11.367  0.1973  0.1017 -0.0045
 9873W        W26720  12.878  10.654  12.896 -0.1517 -0.1652  0.0425
 9874W        W26721  15.567   8.514   2.606 -0.1763  0.0657  0.4224
 9875W        W26722   3.956   4.947   3.755  0.0719 -0.0716 -0.2180
 9876W        W26723   4.134   2.297   2.704 -0.0579 -0.2561 -0.1510
 9877W        W26724   9.954  11.254   4.532 -0.1451 -0.1217  0.2437
 9878W        W26725   1.150  16.347   3.032 -0.1974  0.0896 -0.0871
 9879W        W26726   2.880  12.457   0.628 -0.3684  0.0987 -0.1974
 9880W        W26727  16.645  11.365  11.701 -0.1350  0.2020  0.1589
 9881W        W26728   7.336   5.160   0.175 -0.1307  0.1912  0.2913
 9882W        W26729   3.634   9.652   2.830  0.1802  0.0779  0.1353
 9883W        W26730  10.960   0.675  16.325  0.0732 -0.1754 -0.2526
 9884W        W26731  13.168   9.924   4.120 -0.0278  0.0301  0.0972
 9885W        W26732  13.052   1.066   5.159 -0.1147 -0.0608  0.1326
 9886W        W26733   3.693  12.082  15.751  0.1957 -0.0411  0.2525
 9887W        W26734   0.692  16.803  15.789  0.1481 -0.2528  0.1289
 9888W        W26735  10.382   7.245  11.155  0.3048 -0.1384 -0.3382
 9889W        W26736   2.933  11.317   2.709 -0.0534  0.1088 -0.3273
 9890W        W26737   2.820  10.887  13.511 -0.2169  0.3400  0.2599
 9891W        W26738   4.868  12.536  14.274 -0.1597  0.0216  0.2319
 9892W        W26739  15.206   5.070  12.149 -0.0493 -0.1378  0.1221
 9893W        W26740   1.506   4.397   2.076 -0.0959  0.0071  0.0586
 9894W        W26741   2.441   3.100  11.582  0.0598 -0.0208 -0.1962
 9895W        W26742  10.592   1.384  16.451  0.1183 -0.1092  0.1622
 9896W        W26743  13.039  15.472   0.202 -0.4624 -0.0280 -0.1550
 9897W        W26744  10.719  17.274  16.389  0.1439 -0.6512  0.1659
 9898W        W26745   8.418  14.294   1.826  0.0050 -0.0836 -0.2485
 9899W        W26746  17.712  14.683   4.320 -0.0309  0.0224 -0.0117
 9900W        W26747  16.532   3.619   0.897  0.0410 -0.0078 -0.0558
 9901W        W26748   5.558   4.412   4.279 -0.1741 -0.1564  0.1237
 9902W        W26749   0.825   2.026   3.655  0.2511  0.2092  0.1025
 9903W        W26750   6.847  13.795  13.017  0.0028 -0.2309 -0.0839
 9904W        W26751   0.525   9.098   3.966  0.1125 -0.0771 -0.0598
 9905W        W26752  11.717   0.068   2.279  0.2554  0.1725  0.2358
 9906W        W26753   6.685  10.252  14.668  0.3454  0.1098 -0.0302
 9907W        W26754  16.689   5.719   0.148  0.4712  0.2718  0.2717
 9908W        W26755  14.698  10.923   5.059 -0.0204 -0.0896  0.1084
 9909W        W26756   6.425   6.000   1.596  0.1731 -0.2417 -0.1775
 9910W        W26757  16.774   7.816  15.833 -0.0503 -0.2776 -0.0695
 9911W        W26758  15.378  17.280   2.889  0.2277 -0.0230  0.0727
 9912W        W26759   8.207  16.790   2.766  0.2335 -0.1864  0.1646
 9913W        W26760  12.863  17.760   3.104  0.2072  0.2115  0.2414
 9914W        W26761   0.160   7.559   1.329  0.0684  0.2391 -0.1850
 9915W        W26762   8.217   7.268  12.972 -0.2918  0.1527 -0.0776
 9916W        W26763   4.990   6.021  16.101  0.0843  0.2661  0.0873
 9917W        W26764  10.353  11.919   3.848 -0.2896  0.3340 -0.0425
 9918W        W26765   1.277   9.871  16.288 -0.1092  0.2396  0.1322
 9919W        W26766  12.690   4.850   2.541 -0.1176 -0.2817 -0.4145
 9920W        W26767  13.864   5.598   1.145 -0.0492 -0.0200 -0.0165
 9921W        W26768   7.952   7.465  11.584 -0.0224 -0.2853  0.2244
 9922W        W26769   3.378  15.610  13.846  0.1032 -0.0554  0.1411
 9923W        W26770   3.732  18.055  11.908  0.2314 -0.0435  0.1376
 9924W        W26771   9.395  14.498  12.615 -0.2026 -0.2174 -0.3309
 9925W        W26772   9.222  12.731  15.426 -0.5310 -0.0634 -0.0467
 9926W        W26773   5.162  13.205   1.983 -0.0415 -0.0784  0.1300
 9927W        W26774   3.976   6.233  15.334  0.1378  0.0268  0.2288
 9928W        W26775  14.728   0.424  12.431  0.1562 -0.0118  0.2803
 9929W        W26776   7.697  14.806  13.824  0.0643 -0.1977  0.2361
 9930W        W26777   6.849  16.353   3.410 -0.0524  0.4034  0.0073
 9931W        W26778   2.461  11.140   5.216  0.2033 -0.0098 -0.0911
 9932W        W26779   9.848  18.169  12.117  0.0983 -0.2343 -0.1376
 9933W        W26780  12.739   1.131  15.347 -0.3527  0.0799 -0.2968
 9934W        W26781   4.411  10.766   2.692 -0.0865  0.3101 -0.1060
 9935W        W26782   9.002   0.426   1.211  0.0767  0.2780 -0.1525
 9936W        W26783  16.353  13.248   5.922 -0.1839  0.0625 -0.1674
 9937W        W26784  11.639  13.655  14.541  0.0695  0.1146  0.1280
 9938W        W26785   7.943  12.167   4.827  0.3586 -0.0320 -0.1221
 9939W        W26786   9.505  17.308  12.394 -0.1868 -0.1460  0.1034
 9940W        W26787   0.084   1.842   1.124 -0.2465  0.0420 -0.0485
 9941W        W26788   3.209   2.443   2.487 -0.2027 -0.0564 -0.1717
 9942W        W26789  16.029  13.682  11.726  0.1709  0.2552 -0.2494
 9943W        W26790  16.625   1.546  16.387 -0.1798  0.1329 -0.2839
 9944W        W26791  13.007  10.243   0.064  0.0845  0.1493  0.3694
 9945W        W26792   6.939  17.928  13.301 -0.2475 -0.1712 -0.1675
 9946W        W26793   8.308  10.460   3.577  0.1139 -0.1755  0.3380
 9947W        W26794   9.621   0.190   4.207 -0.1683 -0.1252  0.0040
 9948W        W26795  15.390  10.282   4.824 -0.1231  0.0353 -0.1951
 9949W        W26796  10.221   2.372   1.682 -0.0503  0.2283  0.1275
 9950W        W26797   4.641  15.284   2.323  0.0389 -0.1105 -0.0426
 9951W        W26798  16.500  16.979   4.093  0.0566 -0.0715  0.2276
 9952W        W26799  10.000   6.299  15.991 -0.1870  0.1448 -0.1410
 9953W        W26800   3.672   4.584   4.018  0.2729  0.1107  0.0340
 9954W        W26801  15.675   3.197   2.365  0.2063 -0.1028  0.1099
 9955W        W26802  12.183  14.397   2.818 -0.0453 -0.0609 -0.1400
 9956W        W26803  17.615   3.131   2.785 -0.0127 -0.1187  0.0877
 9957W        W26804   6.780  11.155  11.626 -0.1121 -0.2087  0.0139
 9958W        W26805   7.925   0.410   5.764 -0.0359  0.1012  0.0238
 9959W        W26806  10.277   6.238  13.386  0.0236 -0.1379  0.1018
 9960W        W26807  15.684   1.626  11.338 -0.0910  0.2446 -0.2516
 9961W        W26808   3.552  12.543   3.803  0.1497  0.3417 -0.3371
 9962W        W26809   4.171   7.030   5.034 -0.0686  0.1478 -0.1028
 9963W        W26810   0.658  15.733  13.043 -0.1138 -0.2221  0.3497
 9964W        W26811   3.892  15.963  12.265 -0.3412  0.0783 -0.2371
 9965W        W26812  13.098   5.009   1.392  0.1676 -0.0801 -0.2221
 9966W        W26813   9.149   5.035   0.465  0.2222 -0.2247 -0.2796
 9967W        W26814   6.873  12.390  15.484 -0.1944  0.1874  0.1352
 9968W        W26815   5.857  16.609   4.218  0.0880 -0.1476 -0.0728
 9969W        W26816  13.835   5.650   2.471  0.1057  0.2812 -0.1961
 9970W        W26817   9.589  17.629   1.386  0.1087  0.3160 -0.0198
 9971W        W26818   2.537   0.027   5.068  0.0086  0.0271  0.0754
 9972W        W26819  11.621  17.246  12.665 -0.1974  0.1863  0.0606
 9973W        W26820  17.317  14.689   4.867  0.2798 -0.0458 -0.0542
 9974W        W26821  11.040  16.047  12.268  0.0784  0.2110  0.0348
 9975W        W26822   3.961   7.388   4.754 -0.3955 -0.1552  0.0795
 9976W        W26823  10.147  16.973   1.113  0.2825 -0.3969  0.0703
 9977W        W26824   8.867  10.129   1.521  0.0468  0.0126 -0.2749
 9978W        W26825  12.842   3.280   1.541 -0.1004 -0.3874  0.1764
 9979W        W26826  10.613   4.989   3.936  0.5174  0.3715 -0.0395
 9980W        W26827   6.944   1.107   1.720 -0.2428  0.2546  0.1553
 9981W        W26828   2.652   1.520   4.330  0.1196 -0.1517 -0.0451
 9982W        W26829   2.930  11.269   0.672  0.0642  0.0741 -0.1636
 9983W        W26830  14.968   7.544   1.709 -0.0593 -0.1403 -0.0672
 9984W        W26831  11.735  10.143   2.607  0.1532 -0.1108 -0.0524
 9985W        W26832   5.635   4.859   2.450 -0.2120 -0.4776  0.0334
 9986W        W26833  18.049   6.321  11.689  0.0329  0.1226  0.5052
 9987W        W26834  13.264   1.207  11.692  0.2584 -0.1119  0.0503
 9988W        W26835   5.467   9.972   2.283  0.2267 -0.0590 -0.0954
 9989W        W26836   9.324   7.564   0.809  0.0563 -0.0263  0.0583
 9990W        W26837  16.738  15.272  14.086  0.3049 -0.1219 -0.2019
 9991W        W26838   1.935   3.408   5.812  0.0195 -0.0543 -0.2789
 9992W        W26839  10.036  15.342  13.143 -0.3253 -0.1409  0.1288
 9993W        W26840   5.121   1.642  15.000  0.0825  0.0345 -0.2130
 9994W        W26841   9.703  10.199  12.493  0.2569 -0.3291  0.0096
 9995W        W26842  13.464  14.520  14.724  0.0331  0.1275 -0.0476
 9996W        W26843   7.940  11.212  16.021  0.0653 -0.1379  0.0999
 9997W        W26844  10.724   8.450   1.734 -0.0786  0.1698 -0.0856
 9998W        W26845   2.414   7.914  13.090  0.0656 -0.1876  0.3115
 9999W        W26846   3.177  14.972   3.814  0.0196 -0.0305 -0.0025
10000W        W26847  15.874   8.339   4.523  0.2901  0.0968 -0.2719
10001W        W26848  16.031  15.010   2.084  0.1705  0.0716  0.1950
10002W        W26849  14.308  13.070  13.466 -0.0384 -0.1517 -0.3486
10003W        W26850   4.407   3.190   0.256 -0.1056  0.0113  0.0291
10004W        W26851  15.345  12.581  12.161 -0.1837 -0.1438 -0.0016
10005W        W26852  16.587   0.200   1.012  0.0460 -0.1902 -0.1162
10006W        W26853   6.415  11.829   0.607 -0.3098 -0.0023  0.1763
10007W        W26854   1.087  14.216   3.726 -0.0535 -0.0083 -0.1559
10008W        W26855  13.153  14.220   4.483 -0.1378  0.1227 -0.5254
10009W        W26856  17.894  10.786  11.559 -0.0797  0.0358 -0.1805
10010W        W26857  11.497  14.714   1.735  0.0531  0.0707 -0.2487
10011W        W26858  17.896   4.611   5.256  0.3539 -0.0037  0.1877
10012W        W26859   7.206   8.679  13.051 -0.0309 -0.2054 -0.0586
10013W        W26860   2.746   4.111  14.391  0.0218 -0.0686 -0.2820
10014W        W26861  15.576   8.945  12.117  0.3123  0.2016 -0.4185
10015W        W26862   9.886   8.053   0.404  0.2589 -0.0671 -0.1695
10016W        W26863   8.177  16.348  14.248  0.1166  0.1052  0.2156
10017W        W26864   9.442   8.352  12.642 -0.0130 -0.1690  0.0003
10018W        W26865   5.216  17.927   2.937 -0.1231  0.0922 -0.2064
10019W        W26866   0.392   2.814  14.544 -0.0759 -0.1214 -0.1393
10020W        W26867   8.369  11.387   5.616 -0.1314 -0.4253 -0.2788
10021W        W26868   2.102  17.481  13.949 -0.2029 -0.1902  0.2309
10022W        W26869  15.455   4.905   5.219  0.2060  0.0610  0.0829
10023W        W26870  16.364   3.054  11.157 -0.0433 -0.0703  0.0849
10024W        W26871  17.642   6.928  16.619  0.2032 -0.0834  0.1125
10025W        W26872   7.871   3.779   2.146 -0.1197 -0.1033 -0.2990
10026W        W26873  16.934   9.391   5.284  0.0660 -0.0381  0.0849
10027W        W26874   3.107   5.033   2.460 -0.2429 -0.0640 -0.0267
10028W        W26875  17.948   2.013   0.189  0.1723 -0.1325  0.0903
10029W        W26876  12.503   3.703   0.695  0.1787 -0.2364  0.1452
10030W        W26877  10.493   1.920   1.547 -0.0033  0.0658 -0.1963
10031W        W26878   4.923   8.691  15.641  0.2001  0.1789 -0.1979
10032W        W26879   1.001   9.677   3.779  0.4383  0.0232 -0.3525
10033W        W26880   8.960   0.487  11.966 -0.0617 -0.0540 -0.1501
10034W        W26881   4.925  10.797  13.120 -0.3845 -0.0175 -0.1223
10035W        W26882   3.112   2.257   1.383  0.2254  0.1013 -0.0325
10036W        W26883   6.024   2.760   4.176  0.1822  0.0335  0.1623
10037W        W26884  10.058  16.756   5.264 -0.0436 -0.2047  0.0294
10038W        W26885  10.504   3.974  11.613  0.0899 -0.1300 -0.1781
10039W        W26886  10.786   9.866   5.433  0.0182  0.0150  0.1791
10040W        W26887   6.779   7.477  11.245  0.0309  0.5356 -0.1129
10041W        W26888   7.390  17.384   5.508  0.1210 -0.2844  0.1223
10042W        W26889  14.536   3.811   3.882 -0.2920  0.0777 -0.0920
10043W        W26890   0.183   9.172   2.424 -0.0860  0.1958 -0.0389
10044W        W26891   4.815   3.613  14.939  0.2856  0.1720 -0.1687
10045W        W26892  17.977  11.921  13.350 -0.2883  0.0007 -0.1432
10046W        W26893  15.020  14.322   0.932 -0.0862 -0.1999 -0.0758
10047W        W26894  14.903   9.096   2.498 -0.0810 -0.1401 -0.2128
10048W        W26895  13.758   6.495   5.365 -0.2116 -0.0531  0.3513
10049W        W26896  14.326   2.089   1.972  0.0502 -0.0554 -0.2469
10050W        W26897  13.176   1.173  13.371 -0.3458 -0.1329  0.1841
10051W        W26898  11.171   8.679   3.465 -0.2467  0.0117  0.0274
10052W        W26899   3.702   4.414   0.037  0.2187 -0.0851  0.1515
10053W        W26900  13.864   8.746  14.556 -0.1176  0.0472 -0.0669
10054W        W26901   0.679  12.649   5.486 -0.3049  0.0497  0.3789
10055W        W26902   1.690  13.239  16.381  0.2695 -0.1646 -0.1270
10056W        W26903  12.970  17.258   3.917 -0.1048 -0.0699  0.1843
10057W        W26904   4.646   3.543   4.390 -0.1265  0.1393 -0.4554
10058W        W26905   7.484  13.317   3.054  0.0341  0.0403 -0.1654
10059W        W26906  11.480  13.453  13.801 -0.1523 -0.0852 -0.3899
10060W        W26907  18.173   8.839   4.573  0.1596  0.0380  0.0861
10061W        W26908   6.772  14.125   2.854 -0.1396 -0.0818  0.0853
10062W        W26909   6.596   8.497  15.655 -0.3705 -0.3491 -0.2111
10063W        W26910  17.950   8.719   5.469 -0.1044 -0.1385 -0.1110
10064W        W26911   7.261  16.840  15.130 -0.0210 -0.1759  0.1427
10065W        W26912  13.054   1.854   2.671  0.2737  0.2422  0.1937
10066W        W26913  11.358   1.728  11.798 -0.0371  0.1938  0.2915
10067W        W26914   2.045   6.409   2.854 -0.0493 -0.0898 -0.0042
10068W        W26915  16.248   2.970   2.398  0.0720  0.1600 -0.2252
10069W        W26916  17.277   7.884   3.797  0.1814 -0.1349 -0.0629
10070W        W26917  13.888  15.664   4.870  0.2670 -0.1087  0.3113
10071W        W26918  11.829   5.430   0.952  0.1211  0.1658 -0.2865
10072W        W26919   8.887   7.780   0.546 -0.1175 -0.0899  0.0695
10073W        W26920   6.069   0.698  14.601  0.0882  0.1112  0.3205
10074W        W26921   9.992  10.908   4.143  0.0560 -0.2471  0.2871
10075W        W26922  14.368   0.781  13.436 -0.2575  0.1429 -0.0703
10076W        W26923   4.954  15.550  15.087 -0.1813  0.0275  0.0595
10077W        W26924   1.122  17.968  12.572 -0.3781 -0.3225  0.0779
10078W        W26925  12.981  14.716  12.830  0.2245  0.1867 -0.2358
10079W        W26926  12.188  16.906  13.525  0.2484  0.2429  0.1208
10080W        W26927   6.894  14.377  13.557 -0.0161  0.0472 -0.0525
10081W        W26928   5.197  14.272   2.701 -0.1479 -0.0117 -0.1550
10082W        W26929   9.860   1.663   3.850 -0.0794 -0.0138  0.2020
10083W        W26930   0.343  17.276  13.024 -0.3050 -0.1321 -0.0800
10084W        W26931  13.619   0.576   2.055 -0.1066 -0.4006 -0.0568
10085W        W26932  10.485   8.291  16.086 -0.2228 -0.0053 -0.3126
10086W        W26933   3.552  16.655   2.621 -0.0912 -0.2448 -0.1677
10087W        W26934  11.522   7.374  12.792 -0.2185 -0.2001  0.1725
10088W        W26935   6.129  14.626   3.702 -0.0837  0.1249 -0.0004
10089W        W26936  17.520   6.282   2.016  0.0247 -0.0560  0.1476
10090W        W26937  17.447  15.042   1.868 -0.0126  0.2051  0.0738
10091W        W26938  16.937  13.504   5.629  0.3321  0.1747  0.0877
10092W        W26939  16.264  10.771   1.079  0.2080 -0.4233  0.2178
10093W        W26940   6.767   1.529  12.217 -0.0506 -0.0192  0.0687
10094W        W26941  12.795   9.073   4.551 -0.2483 -0.3649  0.0854
10095W        W26942  10.774   8.310   0.458  0.1425  0.0811  0.4707
10096W        W26943  10.671  11.451   5.037  0.2824  0.0806 -0.0841
10097W        W26944   7.054   6.918   3.807  0.0974  0.0199 -0.0651
10098W        W26945   6.623   6.155  16.369  0.1422 -0.0181 -0.1017
10099W        W26946  15.936   3.572   3.403  0.1843  0.5203 -0.2101
10100W        W26947  11.626  15.643  16.420  0.0716 -0.1037  0.0638
10101W        W26948  13.031   1.011  14.368  0.3044  0.1225  0.0472
10102W        W26949  15.212   3.809   2.167  0.0214  0.0522 -0.0923
10103W        W26950   1.049  11.579   2.026  0.3209  0.0000 -0.0164
10104W        W26951  10.186   5.343  10.706 -0.2069  0.0359  0.0602
10105W        W26952   2.528  17.490  15.732 -0.0571  0.0465 -0.1214
10106W        W26953   7.642   9.978   1.022 -0.2044 -0.0992  0.2479
10107W        W26954  10.190  11.858   1.209  0.0246  0.1012 -0.1740
10108W        W26955   6.219   2.267  14.736 -0.2407  0.4954 -0.1422
10109W        W26956   2.878  14.192   2.183 -0.0521 -0.1834  0.1402
10110W        W26957   4.206   6.898   4.512  0.1975  0.2840  0.0762
10111W        W26958  14.184   0.616  13.004  0.4039  0.0860 -0.2103
10112W        W26959   7.940  10.990  15.526 -0.2371  0.2052  0.0603
10113W        W26960  17.781   6.278  16.477  0.2814  0.0357 -0.0451
10114W        W26961  14.370  16.455   2.237 -0.0610 -0.0382 -0.1702
10115W        W26962   6.659  15.151  11.731  0.0977  0.1967 -0.0218
10116W        W26963   8.259   8.830   1.514 -0.0456  0.1643  0.1699
10117W        W26964  12.680   3.143   3.672  0.1352 -0.2616  0.1595
10118W        W26965   7.347   7.877  15.358  0.0570 -0.1530  0.2563
10119W        W26966  14.010  10.868  16.492 -0.2871 -0.0981 -0.0752
10120W        W26967  17.019   3.662  14.823  0.0201  0.0446 -0.1271
10121W        W26968   9.249  17.476   4.465 -0.0972  0.1181  0.1813
10122W        W26969   0.816   8.375  16.077 -0.4024  0.1097  0.1683
10123W        W26970   7.941   4.753   3.899  0.1243 -0.1241 -0.2358
10124W        W26971  17.876   7.867  13.550  0.1127 -0.1976 -0.1799
10125W        W26972  15.016   2.674   0.053  0.1936  0.1503  0.1017
10126W        W26973   0.964   6.007   5.095  0.2519  0.1945 -0.0155
10127W        W26974   4.076   1.138   1.417 -0.0647  0.2121  0.1854
10128W        W26975  12.190   8.205  13.672  0.0560  0.1371  0.2551
10129W        W26976   8.250  16.870  15.769 -0.0908  0.3064 -0.0187
10130W        W26977  14.576  14.000   0.187  0.2457  0.0511 -0.2221
10131W        W26978   6.993  17.578   5.067  0.2388  0.0009 -0.2511
10132W        W26979   7.789   4.020   2.581 -0.3617 -0.2701 -0.0333
10133W        W26980   2.967   4.025   1.588 -0.3261  0.2810 -0.0277
10134W        W26981   3.495  13.420   3.074  0.1135 -0.1071 -0.0805
10135W        W26982   0.786   6.780   2.411  0.3494 -0.1113 -0.1166
10136W        W26983   1.227   6.655  13.638 -0.0477 -0.0313 -0.1941
10137W        W26984   2.865  16.291  12.900  0.2802 -0.1764 -0.2695
10138W        W26985   3.834   7.248  13.265 -0.0686 -0.1263 -0.2202
10139W        W26986  10.324   6.796   2.319 -0.1571 -0.0360 -0.1525
10140W        W26987   2.603  15.082   3.032  0.0869 -0.0857  0.2807
10141W        W26988   0.155   9.599   5.248 -0.3205 -0.3358 -0.0255
10142W        W26989   9.552   6.609  16.040 -0.1494  0.0645  0.0522
10143W        W26990   3.869   2.820  13.666  0.1183 -0.0598  0.1882
10144W        W26991  15.962   4.361   2.590 -0.2064 -0.1043 -0.1749
10145W        W26992   5.411  14.681   0.591 -0.1756 -0.2881  0.2025
10146W        W26993  13.090  16.157  11.309  0.3569 -0.0679  0.1190
10147W        W26994   7.790   6.810  14.276 -0.0378  0.2022  0.2534
10148W        W26995   4.368   3.881  14.937  0.0767  0.0369 -0.0579
10149W        W26996  15.365  14.204  15.144  0.0506  0.3689 -0.3709
10150W        W26997   2.097   2.281   0.486 -0.0115 -0.1380 -0.0636
10151W        W26998  10.350  12.030  12.081  0.3410 -0.0170  0.1380
10152W        W26999  15.821   0.159   5.499 -0.1875  0.0781 -0.3312
10153W        W27000   8.536   0.993  11.670 -0.0842 -0.1555  0.1214
10154W        W27001   7.532   3.126   4.617  0.0375  0.0650  0.0640
10155W        W27002   2.418  12.048  15.595  0.3660  0.1626 -0.2424
10156W        W27003   2.187  17.937   0.703  0.0976  0.1860  0.2978
10157W        W27004   6.917   1.107  14.104  0.1537  0.1120  0.0708
10158W        W27005   7.259   2.755  13.348 -0.0116 -0.0688 -0.4846
10159W        W27006   9.103  14.720  12.330 -0.0186 -0.1834  0.0530
10160W        W27007  15.640  12.758  11.701  0.1950  0.0694  0.1793
10161W        W27008  13.739  13.639  12.966  0.1866 -0.1844  0.2866
10162W        W27009   5.844  13.010  15.721 -0.0475  0.0778 -0.0237
10163W        W27010  15.962  13.115  15.840  0.0686 -0.1072 -0.1098
10164W        W27011   7.616  16.696   5.809  0.4312  0.1833 -0.1829
10165W        W27012  14.090   2.146  15.829 -0.0426  0.4425  0.0272
10166W        W27013  14.532  12.231  13.902  0.1606  0.1799  0.1534
10167W        W27014   9.584  14.226  11.755  0.2552  0.0689 -0.0937
10168W        W27015   5.601  12.891  16.588  0.0156  0.0442 -0.0427
10169W        W27016  13.290   9.912   5.405  0.1037 -0.0657 -0.1894
10170W        W27017   6.478   0.864  14.133  0.2433  0.0902 -0.1226
10171W        W27018   2.973   8.839  11.081  0.0872 -0.1962 -0.0981
10172W        W27019  17.614   3.352  13.847 -0.2751  0.0879 -0.0897
10173W        W27020  10.077   9.055  12.251  0.1099  0.4683 -0.3104
10174W        W27021   1.961  13.045   4.460 -0.2581  0.4035  0.2210
10175W        W27022   2.447   2.390  15.170 -0.1081  0.0332  0.2880
10176W        W27023  11.837  17.594  13.928  0.2957 -0.0829  0.2386
10177W        W27024  16.642  11.669  13.781 -0.1554  0.1449  0.1755
10178W        W27025  16.079   6.844   0.124 -0.1852  0.2301 -0.0825
10179W        W27026  17.643   9.432   2.957 -0.1983  0.0602  0.3506
10180W        W27027  11.289  12.849  14.494 -0.2177  0.2319 -0.1181
10181W        W27028   6.219  17.504   3.058 -0.1915 -0.2068  0.0887
10182W        W27029  10.609   6.453   2.071 -0.0700 -0.1460 -0.0446
10183W        W27030  15.644   0.982  13.560 -0.0433  0.4412 -0.3034
10184W        W27031   6.070   9.328   0.607  0.2594 -0.2214  0.0324
10185W        W27032  15.686  10.233   5.557  0.2277  0.1456 -0.1232
10186W        W27033  10.482  13.235  15.094 -0.1187  0.1631 -0.1249
10187W        W27034   1.299  14.793  14.671 -0.1776  0.1946  0.1348
10188W        W27035   4.402   2.158   6.147  0.1886 -0.0087  0.6051
10189W        W27036  15.076  16.906   0.639 -0.1355  0.0492  0.1444
10190W        W27037  16.233   5.742  11.280 -0.1499 -0.4977 -0.0771
10191W        W27038   4.032  17.370   4.158 -0.1046 -0.2908 -0.4725
10192W        W27039   6.108  12.323   5.631 -0.4968  0.2335 -0.0487
10193W        W27040   8.223  15.573  12.991  0.1291 -0.0270  0.1321
10194W        W27041   1.201   2.610   2.439 -0.1173 -0.0645 -0.0487
10195W        W27042   9.640   6.732   0.417 -0.0536 -0.0695 -0.1811
10196W        W27043   1.627  16.488   4.662  0.0472  0.0801 -0.2442
10197W        W27044   6.325  10.104  15.462  0.0221  0.0438 -0.1743
10198W        W27045  11.700   7.554   1.874  0.1230  0.4856  0.0653
10199W        W27046   2.046   6.165   2.219  0.2015 -0.0679  0.0911
10200W        W27047   1.971   5.381   3.258 -0.0966  0.1257  0.2182
10201W        W27048  13.617  12.511   0.730 -0.0612 -0.1091 -0.1064
10202W        W27049   9.704   4.781   4.136  0.0845  0.0843  0.2096
10203W        W27050  17.793  14.443  16.202 -0.0273  0.4952  0.0855
10204W        W27051  17.437   6.285  15.566  0.0775  0.4656 -0.1727
10205W        W27052  13.507   9.712   4.450 -0.2268  0.0470 -0.0948
10206W        W27053  10.991  10.741  15.295 -0.4863 -0.0438 -0.3107
10207W        W27054  10.220  16.307  15.163 -0.1136  0.1518 -0.0392
10208W        W27055  15.385  14.035   0.054  0.1054 -0.0157  0.1425
10209W        W27056   3.558   6.910   3.110  0.1533 -0.1588  0.1004
10210W        W27057  14.497   2.060   3.478 -0.2119  0.4115 -0.0599
10211W        W27058  17.854   2.469   5.328  0.0374  0.2135 -0.0895
10212W        W27059   8.304   1.778   3.686  0.2480  0.1870  0.2468
10213W        W27060   6.078  12.059   1.835  0.1387 -0.0675  0.1214
10214W        W27061  18.085  13.528   4.111 -0.1435 -0.1855 -0.0322
10215W        W27062   9.608   9.521   3.210  0.1028  0.1420 -0.2522
10216W        W27063  11.474   2.094   4.183 -0.0394  0.1852  0.0251
10217W        W27064  12.883   6.698  14.615 -0.1919 -0.0758 -0.1069
10218W        W27065   5.908  13.514   0.854 -0.0962  0.2181  0.1808
10219W        W27066   5.738   6.105   1.257 -0.1221  0.0339  0.1836
10220W        W27067   5.652   1.577  15.152  0.2501 -0.1378  0.0084
10221W        W27068  11.234  12.727  13.390  0.0497  0.0876  0.1490
10222W        W27069   7.388   9.110  12.845 -0.2564 -0.1130 -0.1116
10223W        W27070  18.020  17.638   1.395  0.1665  0.0754 -0.3008
10224W        W27071   7.658  17.899   0.799  0.1208 -0.0888  0.1556
10225W        W27072  10.436   5.189   0.463 -0.0272  0.0866  0.0963
10226W        W27073   9.030   2.268  14.602 -0.1249  0.0171  0.2495
10227W        W27074  11.936   2.016   2.365  0.0410 -0.0876  0.2277
10228W        W27075  14.377  14.197  11.832 -0.0436 -0.1590 -0.1472
10229W        W27076   4.215   6.931  14.608 -0.2731  0.3933 -0.0258
10230W        W27077   6.088   0.919  11.865 -0.1850  0.1031 -0.2740
10231W        W27078  13.524  10.129   0.987 -0.3320  0.1251 -0.1700
10232W        W27079  16.219   0.717  13.702  0.2854 -0.0247 -0.4481
10233W        W27080  15.924   4.337   2.023  0.0919 -0.3660  0.0576
10234W        W27081   1.098   9.370  16.161  0.1397  0.1823 -0.0300
10235W        W27082   6.342  11.079   1.290 -0.1040  0.1279  0.0736
10236W        W27083   5.625  11.418   0.859 -0.2277 -0.1710  0.0133
10237W        W27084   7.657   5.931   3.955  0.1202  0.0567 -0.2154
10238W        W27085  11.403  15.329   0.562 -0.1614  0.2195  0.1238
10239W        W27086   6.627   7.445  12.839  0.0277 -0.2550 -0.2468
10240W        W27087   9.662   1.934   2.896  0.1991  0.0046  0.0688
10241W        W27088   7.435  12.838  14.221 -0.3142  0.0814 -0.0665
10242W        W27089  17.235   3.421   2.507  0.1919  0.1708  0.0559
10243W        W27090   2.805   8.324   0.627 -0.7306  0.0493  0.1249
10244W        W27091  17.172   0.647  16.381 -0.0233 -0.0949 -0.3816
10245W        W27092  14.132  17.910  14.340 -0.1430 -0.1668 -0.1344
10246W        W27093  16.133   9.127  14.319 -0.3167  0.1689  0.0774
10247W        W27094   1.482   8.658  15.279 -0.3795  0.0785 -0.2749
10248W        W27095   6.464   6.178   2.087  0.1462 -0.0137 -0.0844
10249W        W27096   6.780   7.126   1.939 -0.0246 -0.0207  0.0771
10250W        W27097   7.587  14.355  16.053  0.1700 -0.1309  0.0028
10251W        W27098  17.496  15.231   4.928 -0.2974  0.1412 -0.3001
10252W        W27099   6.065  11.178   2.241  0.1913  0.1073  0.1390
10253W        W27100   8.553   2.283  14.461  0.1263  0.1688  0.1389
10254W        W27101   1.003   4.571   3.440  0.0356 -0.1493 -0.3413
10255W        W27102  15.779   7.806  15.247  0.1435  0.1162  0.1918
10256W        W27103  13.906  14.469   2.371  0.1353  0.1449 -0.3574
10257W        W27104   6.819  17.771   1.290 -0.0191  0.2046 -0.0643
10258W        W27105  10.934   0.908  12.975 -0.2069  0.3088  0.1976
10259W        W27106  14.573  10.817   3.473 -0.2173  0.2714  0.1805
10260W        W27107  14.122   7.134  14.318  0.1137  0.2042 -0.1463
10261W        W27108   4.395  10.922   5.779  0.2196 -0.2051 -0.0883
10262W        W27109  10.750   8.789   1.301  0.1567 -0.0509  0.1512
10263W        W27110  13.172  17.369  11.642  0.2892  0.1503 -0.2712
10264W        W27111  13.229   1.342   1.433  0.2017 -0.1245  0.0512
10265W        W27112   5.408   4.483  15.975 -0.0919 -0.1855 -0.3308
10266W        W27113  12.759  15.957   4.456 -0.0326 -0.1599  0.1130
10267W        W27114  11.342   8.627   0.612 -0.3361 -0.1300 -0.0252
10268W        W27115   4.130   4.233   4.164 -0.1408  0.3364  0.3493
10269W        W27116  11.831   7.989   3.585 -0.0799  0.0244  0.3609
10270W        W27117   5.284   1.607  11.833  0.1164 -0.3848  0.3238
10271W        W27118  17.754   6.755  11.511 -0.4175  0.1101 -0.0287
10272W        W27119   7.495  16.128  15.587  0.0685  0.2766 -0.0835
10273W        W27120  12.260  12.733   4.404  0.1069  0.0032  0.1464
10274W        W27121  12.561  16.997   4.719  0.2627 -0.2053  0.3398
10275W        W27122  14.514  13.191   3.625  0.2525 -0.0481 -0.2061
10276W        W27123   0.233  16.862   4.885  0.0070 -0.3126 -0.1691
10277W        W27124  17.277  14.192   2.296  0.3279  0.0235  0.3278
10278W        W27125   1.450  13.496  15.671 -0.1646 -0.1327  0.2385
10279W        W27126   1.628   3.088  13.167 -0.1383  0.3718  0.1201
10280W        W27127   8.897   6.667  15.187  0.1907  0.0183 -0.0796
10281W        W27128   2.664   6.425   3.014  0.0398  0.1536 -0.1071
10282W        W27129  10.776   6.901   0.909  0.1591 -0.1648 -0.1991
10283W        W27130   0.296   7.726   0.884 -0.1067 -0.2954 -0.1091
10284W        W27131   4.933   2.512   4.040 -0.0227 -0.1679  0.0286
10285W        W27132  17.822   6.170  13.206 -0.0209  0.0086 -0.1070
10286W        W27133  15.654   8.628   0.504  0.0170 -0.1576  0.0959
10287W        W27134   3.031  11.167   3.187  0.0071 -0.2112  0.2379
10288W        W27135   1.407   0.968   0.805 -0.3641 -0.0146 -0.2907
10289W        W27136   0.126   2.560   2.672  0.0673  0.1386  0.0986
10290W        W27137   7.260  15.001  15.257  0.1572 -0.0028 -0.0185
10291W        W27138  13.843   7.192   2.596 -0.0105 -0.1297  0.0837
10292W        W27139   8.344  15.922   0.255  0.2282 -0.1571 -0.2484
10293W        W27140   2.814  11.986  15.277 -0.0759  0.2314 -0.1782
10294W        W27141   5.185   8.011   4.577  0.0546  0.2839 -0.0834
10295W        W27142  18.154  17.296  13.369 -0.1482  0.0008  0.0353
10296W        W27143   2.867  10.284   0.487 -0.0683 -0.2751 -0.1828
10297W        W27144   2.472  12.037   3.034  0.0550  0.1257  0.0157
10298W        W27145   1.635  10.951  12.911 -0.0898 -0.0123 -0.0370
10299W        W27146   1.453   9.308   2.000  0.1351 -0.1051 -0.1263
10300W        W27147   8.686   6.906   0.452 -0.1172 -0.0676  0.0974
10301W        W27148   1.182   1.718   1.866  0.0293 -0.2619 -0.0359
10302W        W27149  16.496   7.827  14.268  0.1074  0.1542 -0.1470
10303W        W27150   2.555  14.121   3.298  0.4697 -0.2158  0.1406
10304W        W27151   2.235   2.152   4.102  0.1865 -0.2199 -0.1625
10305W        W27152  15.096  14.899   4.861  0.2020 -0.0535  0.2515
10306W        W27153   4.993  15.096  14.881 -0.1093 -0.2055 -0.0572
10307W        W27154   3.936   1.600  13.213 -0.1633 -0.2307 -0.2329
10308W        W27155  12.261   2.880   4.752 -0.0663  0.0535 -0.0402
10309W        W27156   8.225   0.404   1.839  0.1061  0.1397  0.0885
10310W        W27157  13.734   2.140  13.528 -0.1142 -0.2853  0.0317
10311W        W27158   2.662  10.329   3.556 -0.0838  0.1896 -0.2335
10312W        W27159  16.781   2.024   3.460  0.3603  0.0024 -0.1771
10313W        W27160  12.164   9.923  12.069  0.1608  0.1398 -0.0400
10314W        W27161  12.840  16.890  11.630 -0.0472  0.0142  0.0686
10315W        W27162   4.355  16.564   5.589 -0.1075 -0.0571  0.2281
10316W        W27163   3.344   1.995  14.352 -0.1229  0.0600 -0.0603
10317W        W27164  14.978  17.614   5.943 -0.1506  0.2785 -0.1663
10318W        W27165  13.681  15.075   0.427  0.1184 -0.0345  0.0850
10319W        W27166  12.764   9.449   0.873 -0.2139  0.2244  0.1600
10320W        W27167   5.220  15.831   3.043 -0.1126 -0.1781  0.0059
10321W        W27168   8.197  14.856   2.219 -0.3295 -0.0381  0.0428
10322W        W27169  11.047   3.356  14.026 -0.4076 -0.0854  0.1214
10323W        W27170  11.429   5.577   0.707  0.0003 -0.2744  0.1428
10324W        W27171  15.776   8.401  12.550  0.2507 -0.2830  0.1818
10325W        W27172   5.012  16.868   6.383  0.1338 -0.3850  0.0811
10326W        W27173   8.592  16.472  13.225  0.2548 -0.0764 -0.0268
10327W        W27174   3.000  18.059   2.787 -0.1080 -0.0625  0.0907
10328W        W27175   8.703  15.685  15.367  0.2261 -0.4396  0.2004
10329W        W27176  16.007   9.398   0.667  0.2334  0.0607  0.1615
10330W        W27177   5.685  13.823   3.153 -0.0239  0.1332 -0.0090
10331W        W27178   1.471  17.982   5.726  0.3668  0.2654 -0.1215
10332W        W27179  11.557   8.982   0.230  0.1346 -0.1275 -0.3409
10333W        W27180  10.137   2.349  11.528  0.3287 -0.1106  0.0398
10334W        W27181  16.648   0.800  14.221  0.0364 -0.2463  0.1451
10335W        W27182  16.137  10.343   1.320 -0.1390 -0.1862  0.0511
10336W        W27183   4.784   4.937   3.095  0.1014 -0.1264  0.0075
10337W        W27184  15.785   9.938   4.609 -0.0592 -0.1446  0.3046
10338W        W27185   1.254   0.418  12.569  0.1012  0.0114 -0.2098
10339W        W27186   9.729   9.048  15.170  0.1092 -0.0221 -0.5968
10340W        W27187   6.611  15.530  15.258 -0.0146  0.0912  0.1884
10341W        W27188   4.988   4.293   3.140  0.2217 -0.1354 -0.2645
10342W        W27189   0.609   5.004   1.700  0.0717 -0.0617 -0.1712
10343W        W27190   9.677  14.254   0.855  0.1999 -0.0218  0.1019
10344W        W27191  11.483   7.264   3.893  0.1642 -0.1314 -0.2314
10345W        W27192   9.189  11.433  12.629  0.2534 -0.0684 -0.1840
10346W        W27193  17.281   4.230   5.719  0.0375 -0.0625 -0.0506
10347W        W27194  16.419  17.854  15.758  0.1307  0.2244  0.0314
10348W        W27195  12.761  14.145   6.000 -0.1433  0.0615 -0.0973
10349W        W27196  11.407  15.626   1.521  0.3092 -0.1077  0.2277
10350W        W27197   5.999   5.580   5.106 -0.2061 -0.2897 -0.1592
10351W        W27198   5.626  15.201  13.087 -0.2575 -0.3063  0.1418
10352W        W27199   7.801   3.436   2.793 -0.1786 -0.1618  0.1160
10353W        W27200   8.587  17.561  13.222  0.0673  0.1276 -0.4761
10354W        W27201  10.738  15.628  15.919 -0.0228  0.1088 -0.0485
10355W        W27202  10.213  11.387  12.536  0.1499  0.2091  0.4209
10356W        W27203  11.168   4.919  15.909  0.0873  0.0191  0.1799
10357W        W27204   3.933   7.563  11.612  0.0553  0.2191  0.2738
10358W        W27205   7.023   9.670   5.930  0.1609 -0.0073  0.0932
10359W        W27206   8.510   1.230   1.471  0.0917  0.0354 -0.2136
10360W        W27207   5.628  17.314  15.555 -0.0523  0.4187  0.1206
10361W        W27208   8.741  17.182  16.406 -0.0134 -0.0016  0.0323
10362W        W27209   4.513   4.557  12.494 -0.1047 -0.0580  0.3173
10363W        W27210   4.541  18.110  14.514 -0.2684 -0.2076 -0.1498
10364W        W27211   4.521  15.485   3.747 -0.0473  0.1493 -0.1946
10365W        W27212  16.360   4.207   4.085  0.1064  0.0409  0.0238
10366W        W27213   0.046  16.748  13.206 -0.3279  0.2569  0.1404
10367W        W27214   6.054  17.151  15.796  0.0709 -0.0520 -0.1075
10368W        W27215  12.232   9.368   3.886 -0.1878 -0.2956 -0.1406
10369W        W27216   2.323  17.513  14.947  0.0687 -0.0031 -0.0850
10370W        W27217   2.295   5.098  14.594  0.1476  0.1577 -0.3082
10371W        W27218  12.122   6.618   3.280  0.1869  0.2788 -0.0995
10372W        W27219   8.808   4.007  14.327 -0.1224  0.1944  0.4225
10373W        W27220   7.102   0.691   3.043  0.2315  0.0730  0.2307
10374W        W27221  12.292  16.253  11.768  0.0100  0.0956 -0.2682
10375W        W27222  15.137  10.345   3.885 -0.1148  0.0660  0.0556
10376W        W27223  16.377   8.083   0.865 -0.5594 -0.0582  0.1439
10377W        W27224  10.452   1.709  13.376  0.0777  0.0850 -0.0342
10378W        W27225  14.896  11.325   4.809 -0.0920 -0.0751 -0.0254
10379W        W27226  17.529   2.811  13.691  0.0858  0.2363  0.1137
10380W        W27227   3.921  16.362   0.963 -0.2099  0.0160  0.5001
10381W        W27228   6.892  16.701   3.061 -0.1472 -0.1198 -0.0229
10382W        W27229   1.154   1.336  16.579 -0.0700  0.2816 -0.2119
10383W        W27230  13.772   9.940   0.575  0.0048 -0.0961  0.0546
10384W        W27231  14.710   6.141  13.679 -0.0590 -0.3261  0.2971
10385W        W27232  16.938   4.287   0.370  0.0634 -0.0757 -0.0426
10386W        W27233  17.279   2.194  11.878 -0.1602  0.1180 -0.2800
10387W        W27234  15.452  16.051   0.642  0.2714  0.0289  0.1636
10388W        W27235   9.899   8.036  15.973 -0.0447  0.1203  0.1575
10389W        W27236   1.600  12.036  15.861  0.0707 -0.4270 -0.0859
10390W        W27237  10.495   8.638   2.222 -0.0376  0.1330  0.0742
10391W        W27238  17.323  13.561   1.766 -0.1689  0.2048 -0.1708
10392W        W27239   7.630   2.295  12.020 -0.0850  0.4058  0.1719
10393W        W27240   0.788   8.248  13.497  0.3494 -0.1602  0.1584
10394W        W27241   7.499   2.112  15.446  0.1671 -0.0097  0.2222
10395W        W27242   9.925   6.152   4.903  0.1988  0.0316 -0.0940
10396W        W27243  15.055   1.852   0.649  0.0636  0.0400  0.1251
10397W        W27244  11.509   3.802   3.840 -0.0746 -0.1644  0.1799
10398W        W27245  12.836  14.583   0.283 -0.2843  0.0071  0.0796
10399W        W27246   2.904   4.876   0.388 -0.2670 -0.0008  0.1974
10400W        W27247   2.727  16.636  11.608  0.2056  0.0965  0.2128
10401W        W27248  15.487  13.912   5.649 -0.1929  0.2123  0.2307
10402W        W27249   2.567  11.440  13.199  0.1121 -0.1150  0.2219
10403W        W27250  10.702   4.370  13.091 -0.0159  0.1060  0.0211
10404W        W27251   5.916   5.422   1.054  0.0031 -0.1303  0.0549
10405W        W27252  11.507  17.133  11.466  0.1817  0.1019  0.1270
10406W        W27253  13.781   3.623   2.564  0.0285  0.1405 -0.2604
10407W        W27254   3.843   5.980  13.204 -0.0189  0.1685  0.0428
10408W        W27255   1.963   3.825   1.107  0.1326 -0.1737  0.0993
10409W        W27256  11.700   9.993  14.838  0.0492  0.1777 -0.4961
10410W        W27257  11.110   6.298   5.051 -0.0873 -0.2795 -0.2613
10411W        W27258   3.390   2.136  15.881 -0.2233 -0.1443  0.0621
10412W        W27259  12.113  15.605  11.712  0.3069 -0.1164  0.0465
10413W        W27260   3.811   3.165  12.222 -0.2028  0.0196 -0.0364
10414W        W27261   3.920  12.871   3.992 -0.1415 -0.1884  0.2620
10415W        W27262  17.414  15.141   0.410 -0.2612 -0.1622 -0.1911
10416W        W27263   8.151  11.449   0.806 -0.1280  0.0944 -0.0440
10417W        W27264  17.839  12.384   3.386  0.1423  0.2435  0.3235
10418W        W27265  11.993  14.441  12.338 -0.2562 -0.3175 -0.0638
10419W        W27266   4.926   4.585   1.525  0.0896 -0.0552 -0.2072
10420W        W27267   0.517   1.443  14.228  0.0722 -0.1399  0.1063
10421W        W27268  14.623  17.404  10.464  0.0839  0.0734 -0.1191
10422W        W27269  11.085   7.317  12.357 -0.0265  0.0343 -0.0741
10423W        W27270  10.234   8.433  13.376 -0.0913  0.0759 -0.1625
10424W        W27271  12.479  11.854  12.771 -0.1384 -0.2014 -0.2350
10425W        W27272   5.183  12.377   4.153  0.0321 -0.0178  0.3837
10426W        W27273   2.902   5.591   3.057 -0.0167 -0.2321 -0.0843
10427W        W27274   2.215   7.316   4.597  0.1251  0.0632 -0.1507
10428W        W27275  17.290  12.407  13.636  0.2122  0.1594 -0.1467
10429W        W27276  13.223   4.565  12.422  0.0095  0.0303 -0.1480
10430W        W27277   2.571  10.052   1.635 -0.2361  0.1479  0.1917
10431W        W27278   6.742   9.141  15.080 -0.1334 -0.2670 -0.2758
10432W        W27279   4.640   1.731   5.404  0.4358 -0.1160 -0.0025
10433W        W27280   6.645   5.741  13.429  0.1706 -0.0047 -0.0221
10434W        W27281   4.163   0.850   5.059  0.0061 -0.0031  0.0755
10435W        W27282  15.186   3.230   0.942  0.2012  0.3204  0.1078
10436W        W27283   6.770  16.124   6.148 -0.2873 -0.0541  0.0777
10437W        W27284  16.161  13.163  13.054  0.2175 -0.0393 -0.2969
10438W        W27285  13.916   6.903   1.029 -0.0182  0.3654 -0.2230
10439W        W27286  16.499  14.092   3.978 -0.0101 -0.1850  0.1374
10440W        W27287   8.914  11.401  15.512  0.4173 -0.0769  0.0774
10441W        W27288   0.072   0.730   2.021  0.2936  0.1697 -0.2208
10442W        W27289   1.417  14.014   0.216  0.1636 -0.1438 -0.2192
10443W        W27290  12.802   4.300   3.587  0.0956 -0.1166 -0.0782
10444W        W27291   8.929   2.359   0.840  0.1222  0.2357 -0.0261
10445W        W27292   2.166   6.673   5.195  0.1573 -0.1487 -0.2673
10446W        W27293  12.130  12.022  13.634 -0.1320  0.1560  0.3165
10447W        W27294   0.836   4.403  14.387 -0.0120 -0.1165  0.2444
10448W        W27295   6.398  16.418  15.296  0.2632 -0.0230  0.0200
10449W        W27296  10.234  12.684  16.284  0.1948 -0.2180  0.1734
10450W        W27297   2.831  17.993  15.531 -0.0413 -0.1235  0.3266
10451W        W27298  15.822  10.193  13.327  0.3382  0.0316  0.2004
10452W        W27299  14.010   4.759  15.673 -0.2549  0.1807 -0.1463
10453W        W27300  11.785   5.415  11.417  0.1568  0.2867  0.2069
10454W        W27301  12.401   1.793   4.177 -0.3008  0.4277 -0.4002
10455W        W27302   5.001   4.100   0.802 -0.2318  0.1758 -0.1236
10456W        W27303   1.127  10.248  11.809 -0.0728  0.0856  0.0858
10457W        W27304  15.012   4.549   2.889 -0.1795  0.5246  0.1474
10458W        W27305   5.329  15.047   0.207 -0.1256  0.0387 -0.2142
10459W        W27306  15.417   5.576   5.055  0.1840  0.1180  0.1513
10460W        W27307  15.834  16.894   5.480  0.1003 -0.0526  0.0892
10461W        W27308   8.591   8.241  13.204 -0.2868 -0.0756  0.2716
10462W        W27309   7.717   4.359   3.012  0.1544  0.1305 -0.0806
10463W        W27310   3.953   1.042  12.311  0.1892 -0.1591 -0.0601
10464W        W27311   8.584  10.569   5.483  0.0514 -0.0836 -0.0545
10465W        W27312   8.126  17.295  16.369 -0.1576 -0.0586 -0.1180
10466W        W27313   7.165   3.938  14.823  0.0551 -0.0087 -0.0488
10467W        W27314   3.684  17.679   1.693  0.1010  0.2596  0.2472
10468W        W27315   0.954  13.306   6.028  0.1323 -0.2146  0.1984
10469W        W27316  12.784  17.186   5.172  0.0847 -0.0005  0.1980
10470W        W27317   2.478  13.149  15.690  0.0515 -0.1230 -0.4064
10471W        W27318  14.726  16.227   4.435 -0.1034 -0.2068  0.1107
10472W        W27319   0.675   8.402   3.528  0.0790 -0.1146  0.1779
10473W        W27320   5.707  10.457   5.996  0.2323  0.1416 -0.1471
10474W        W27321   2.604  16.595  14.743 -0.0536  0.0828 -0.0659
10475W        W27322  15.099  15.687   1.657 -0.0758  0.1204  0.1344
10476W        W27323  15.285   1.417  12.953  0.1823  0.2174 -0.1584
10477W        W27324  11.439   6.825   5.209 -0.1705 -0.0265  0.4672
10478W        W27325  11.002  11.254   4.276 -0.0911 -0.1547  0.2177
10479W        W27326   2.537  13.131  16.187  0.1743 -0.4868 -0.2264
10480W        W27327  13.841  13.034  12.266 -0.4644 -0.0517  0.1276
10481W        W27328   6.077   9.557  12.618  0.1564 -0.2636  0.2519
10482W        W27329   3.575  13.353  12.020  0.1850  0.1736 -0.1266
10483W        W27330  13.383  11.839  15.836 -0.1489 -0.1342 -0.1692
10484W        W27331   4.067   7.825   3.481  0.1646 -0.0728  0.0972
10485W        W27332   7.359   6.788  12.005  0.0248 -0.2691 -0.3676
10486W        W27333   1.822  17.017  11.701  0.2120  0.0183 -0.3619
10487W        W27334   1.600   4.366   5.476  0.1412  0.1221  0.0571
10488W        W27335   1.922  11.240  12.630 -0.0317 -0.2817 -0.2030
10489W        W27336   9.665  14.809   4.727  0.2307  0.4858 -0.3762
10490W        W27337   4.526  15.089   4.054  0.0266 -0.1924 -0.0364
10491W        W27338  14.210  15.251  11.519  0.0427 -0.4244 -0.1393
10492W        W27339   2.384  12.435  13.141  0.1857 -0.2010 -0.0480
10493W        W27340  12.547  16.238   4.836 -0.2029 -0.0364  0.1672
10494W        W27341   2.207  13.568   4.456 -0.0244  0.0574 -0.0291
10495W        W27342   1.074   9.151   4.825  0.0684  0.2688  0.2497
10496W        W27343   5.748  10.048   2.719  0.0131 -0.2723 -0.3763
10497W        W27344  12.126  16.051   4.559  0.0725  0.2172  0.0039
10498W        W27345  14.610  17.076  11.342  0.2870  0.1526 -0.0893
10499W        W27346   9.291   4.958   3.564 -0.0793 -0.1146  0.1458
10500W        W27347   7.754  14.727  12.659  0.2549  0.0709 -0.3869
10501W        W27348   0.380   6.069  14.986 -0.1631  0.1573 -0.1911
10502W        W27349   8.354  14.239   0.930  0.0930  0.0920 -0.2142
10503W        W27350  10.800  13.201  11.437  0.1981  0.1140 -0.1613
10504W        W27351   9.057   9.259  16.387 -0.1531  0.0216 -0.1559
10505W        W27352   5.762   6.160  15.721  0.1013  0.0194 -0.1432
10506W        W27353   0.796   1.470   0.999 -0.1743  0.0012  0.1395
10507W        W27354   0.123  15.687   1.326 -0.0507 -0.0485  0.3880
10508W        W27355   5.367   6.649   5.159 -0.0534 -0.0828 -0.1209
10509W        W27356  17.347  10.238  14.604  0.1586  0.1271 -0.0925
10510W        W27357   9.147  15.754   0.289 -0.2348  0.2430 -0.0920
10511W        W27358  17.989  12.587   3.798  0.0672  0.0886  0.3435
10512W        W27359   7.308  15.151  15.909 -0.0122 -0.0404  0.0472
10513W        W27360   5.389   0.681   0.678 -0.1117  0.0217 -0.3037
10514W        W27361   5.884  11.659   2.173 -0.1240 -0.0034  0.2163
10515W        W27362  14.656   8.274   2.786 -0.0999  0.1207 -0.2954
10516W        W27363   3.035  14.172  12.936 -0.0142 -0.1236 -0.1175
10517W        W27364  11.372  15.275  12.020  0.0500  0.1791 -0.0889
10518W        W27365  10.828  17.090   5.972 -0.2596 -0.1432 -0.0708
10519W        W27366   5.787  17.588   0.694  0.3533 -0.0688 -0.0728
10520W        W27367   9.018  11.611   1.765 -0.1781 -0.1593 -0.1028
10521W        W27368  13.319   2.747  12.692 -0.1359 -0.1619 -0.0716
10522W        W27369   1.658   4.011   4.586  0.1161  0.3104  0.1887
10523W        W27370  15.010   0.515  13.726 -0.1503  0.1071 -0.0949
10524W        W27371   6.924   1.364   5.289 -0.0180 -0.1463 -0.2209
10525W        W27372   4.543   6.357  12.425  0.1553 -0.1097 -0.2544
10526W        W27373  14.391  14.360   1.015  0.0256 -0.3163 -0.0467
10527W        W27374   7.212   2.754   0.378  0.0686 -0.1802  0.0104
10528W        W27375   3.238   5.228   3.290 -0.0344 -0.1367 -0.1998
10529W        W27376  15.768   1.485   5.218 -0.2596 -0.0018 -0.0536
10530W        W27377   2.197  12.901   6.408  0.3087  0.0038  0.0450
10531W        W27378   4.780  11.485  13.529  0.3048  0.0685 -0.3971
10532W        W27379  14.747   5.861   4.488  0.1340  0.0828  0.1455
10533W        W27380  14.681  15.128   5.158  0.0948  0.1808 -0.0487
10534W        W27381  16.881  12.984   3.175 -0.1370 -0.0536  0.2583
10535W        W27382  13.425  16.663  13.460  0.0229  0.2287 -0.0378
10536W        W27383   4.900  12.791   4.112 -0.2167  0.1218 -0.1831
10537W        W27384  14.567   6.324   2.637  0.0673 -0.0751 -0.0490
10538W        W27385   8.973   5.967  15.197  0.1459  0.0989 -0.0173
10539W        W27386   4.537  10.531  11.950  0.2437  0.1236  0.1213
10540W        W27387   9.289   2.575  12.796 -0.1085 -0.0084  0.0749
10541W        W27388   7.449   7.917   4.941 -0.2001  0.0179 -0.0269
10542W        W27389  12.053   6.939  13.423 -0.0639  0.0778  0.1583
10543W        W27390  17.229   9.805  14.392 -0.1798  0.1540  0.0198
10544W        W27391  16.852   8.950  14.200 -0.0201  0.0345  0.2071
10545W        W27392  12.030   6.266  12.312 -0.1776 -0.0884  0.5067
10546W        W27393   8.658   6.776   3.270 -0.1207 -0.1082  0.2774
10547W        W27394   3.824  17.409  16.196  0.0271 -0.0035 -0.1326
10548W        W27395   9.278   0.262   0.411 -0.0220  0.1880 -0.0163
10549W        W27396   4.903   1.917   1.934 -0.1435 -0.2797 -0.0920
10550W        W27397  15.952  16.648   2.793 -0.4012  0.1713  0.0557
10551W        W27398  16.814  12.409   4.556  0.0000 -0.2192 -0.0735
10552W        W27399   4.333   1.653   0.069  0.1660  0.2506 -0.0944
10553W        W27400  16.221   3.589  15.441 -0.0912 -0.0630  0.1448
10554W        W27401   4.903  11.264   1.815 -0.1586  0.2187 -0.2639
10555W        W27402  14.168   8.262   1.009 -0.3714  0.2280 -0.0664
10556W        W27403   6.050   3.233  15.343 -0.0644  0.2732 -0.1697
10557W        W27404  17.310  10.929   4.562  0.3502  0.3279 -0.0901
10558W        W27405   7.026   1.970   2.824 -0.0578  0.4077  0.1515
10559W        W27406  10.260   9.847  14.816 -0.1850  0.0937  0.0592
10560W        W27407   3.892   0.499  13.074 -0.3901 -0.3232 -0.0861
10561W        W27408   9.918  13.008  11.577  0.0990 -0.2942  0.0122
10562W        W27409  12.393   5.850   2.573 -0.0679  0.3221  0.2537
10563W        W27410   8.695   9.012   0.886  0.1100  0.0860  0.0843
10564W        W27411   6.449  13.580  12.773 -0.1593  0.0914 -0.0818
10565W        W27412  10.890  17.254  13.570  0.5342 -0.0280 -0.1077
10566W        W27413  13.685   5.127   1.540  0.1115 -0.1388 -0.1636
10567W        W27414  17.085   6.155  15.101 -0.2744 -0.0375 -0.1863
10568W        W27415   9.010  13.828   5.157 -0.1081 -0.0022 -0.3550
10569W        W27416  11.910  17.762  11.232 -0.0520 -0.0642 -0.1032
10570W        W27417  10.600   3.498  14.199 -0.3711 -0.0728  0.0337
10571W        W27418  13.627   8.967   0.832  0.0403 -0.2315  0.0781
10572W        W27419  13.098   1.547  15.368  0.2676 -0.1779 -0.2777
10573W        W27420   0.218   8.994   5.293  0.1214 -0.1576 -0.0605
10574W        W27421  16.270   7.158   3.896 -0.0619  0.0154 -0.2057
10575W        W27422   8.731   0.032  12.028  0.1132  0.0351 -0.2083
10576W        W27423   2.634   2.949  13.005 -0.0323 -0.0934 -0.3668
10577W        W27424  16.328   3.254   3.518  0.2990  0.0332 -0.1241
10578W        W27425   1.433   5.364   2.118 -0.0573  0.1248  0.0557
10579W        W27426  10.004   7.048   1.516  0.2455  0.1212  0.0916
10580W        W27427  10.374   3.346  13.769  0.2946 -0.2269 -0.2206
10581W        W27428  15.947  10.597   4.587  0.0294  0.0022 -0.0797
10582W        W27429   6.623  15.765   2.922 -0.1402 -0.0977 -0.2623
10583W        W27430  15.623  10.232   3.797 -0.0940  0.2094 -0.2667
10584W        W27431   7.542  13.946   2.205  0.2648 -0.0132  0.1714
10585W        W27432   9.378  11.103  11.818  0.0140 -0.0954  0.0182
10586W        W27433   3.319   8.137  11.554  0.1640  0.0047  0.2123
10587W        W27434  10.197  15.952   1.900  0.3097  0.0092  0.0970
10588W        W27435   9.652  10.848  15.140 -0.0154 -0.4341  0.2583
10589W        W27436   1.277   4.066  12.925 -0.0978 -0.3408 -0.1292
10590W        W27437   1.100   0.300  14.000 -0.1619 -0.2472  0.2926
10591W        W27438   9.399  15.422   1.798 -0.0623  0.3773  0.1546
10592W        W27439   6.895  17.222  12.659 -0.0251  0.1188  0.2215
10593W        W27440   6.692  11.843  14.206  0.0739  0.1886  0.1395
10594W        W27441   4.498   6.466   4.731  0.0341 -0.0392  0.2609
10595W        W27442   1.755  13.655  12.233 -0.0855 -0.1259  0.2835
10596W        W27443   1.445   9.795   0.237  0.1542  0.1707  0.0615
10597W        W27444   9.208  14.793   0.694 -0.3285  0.3363  0.2616
10598W        W27445   6.611  17.539  14.546 -0.1550  0.2574 -0.1674
10599W        W27446   2.541   8.110   0.301  0.2599 -0.0373  0.0223
10600W        W27447  11.775   1.289  15.313  0.0256 -0.2309 -0.1009
10601W        W27448   9.007   6.585  14.583  0.0449  0.0367  0.0761
10602W        W27449  13.719  17.841  12.849  0.1449 -0.2129 -0.3188
10603W        W27450   9.949   2.578  14.868  0.0038  0.0046  0.1386
10604W        W27451   9.319  11.486  13.113 -0.2493  0.0437 -0.0694
10605W        W27452  16.601   2.751   2.850 -0.0476 -0.0462  0.1532
10606W        W27453   6.382   6.797   2.292 -0.2697  0.1916 -0.0795
10607W        W27454   8.981   7.918  13.017 -0.0053 -0.0534 -0.0227
10608W        W27455   4.564   5.507   0.788 -0.2607  0.3191  0.1258
10609W        W27456   7.169  16.118   2.255 -0.1471  0.1579 -0.2832
10610W        W27457   4.315  10.212   2.707 -0.4094  0.0345  0.1735
10611W        W27458   5.231   7.967   1.937 -0.0121 -0.0801 -0.1289
10612W        W27459  14.553   7.749   0.993  0.1768  0.0629  0.2688
10613W        W27460  16.824   1.019   2.558  0.4552 -0.3348 -0.0821
10614W        W27461  15.435  10.199  15.135  0.0800  0.1340  0.1611
10615W        W27462  13.957   2.737  10.993  0.0226  0.0061 -0.0287
10616W        W27463  10.563   7.348   4.096  0.2726  0.1641 -0.2152
10617W        W27464   2.174  13.393  12.091  0.0883  0.0631 -0.1252
10618W        W27465  16.921   8.402   1.867 -0.0366 -0.0058 -0.0906
10619W        W27466  16.961   1.270  11.678 -0.2091 -0.0317 -0.2132
10620W        W27467  16.871  10.006  13.764  0.0904 -0.1066  0.1281
10621W        W27468   6.066  18.109   2.433 -0.1946  0.2138  0.0435
10622W        W27469  13.765  10.517  12.854  0.1366  0.3032  0.2371
10623W        W27470   1.113  12.024   4.748 -0.0913 -0.0812  0.1798
10624W        W27471  10.028  15.915   4.436 -0.0588  0.1645  0.2536
10625W        W27472   3.695  15.503   3.728 -0.0068  0.0523  0.1641
10626W        W27473  16.128  15.720  16.268 -0.0152  0.1065  0.0042
10627W        W27474   1.447  14.134   1.035  0.0054  0.1937  0.2460
10628W        W27475  11.701  14.300   3.288  0.0302 -0.3055 -0.0943
10629W        W27476  15.974  13.499   0.495 -0.0109  0.0326 -0.1642
10630W        W27477  14.046  16.631   5.820  0.0457  0.1591 -0.1647
10631W        W27478   4.478   2.365  15.437  0.0272 -0.0662  0.1751
10632W        W27479   5.985   3.997  13.604  0.1461  0.1447  0.0792
10633W        W27480  15.636  10.401  14.640 -0.1051 -0.1647  0.0414
10634W        W27481  13.209   7.298  14.400 -0.1594  0.2700 -0.0651
10635W        W27482  13.730   3.752   4.239 -0.1222 -0.0628 -0.0540
10636W        W27483   4.080   4.742  14.919 -0.0788 -0.1048 -0.0654
10637W        W27484  12.450   4.525   0.553 -0.0733  0.0854 -0.1114
10638W        W27485   2.712   2.391   3.910 -0.1920 -0.0512 -0.0923
10639W        W27486  10.194   2.134   3.718  0.0653 -0.3759 -0.0346
10640W        W27487   6.671   4.858   6.044  0.0680  0.0276  0.0496
10641W        W27488   3.700   3.921  12.584 -0.1726  0.0890  0.2251
10642W        W27489   8.461   6.004  11.210 -0.1476  0.2695  0.3281
10643W        W27490  10.322  15.099  13.466 -0.2046  0.1136  0.1076
10644W        W27491  11.144   3.912   0.906 -0.0698 -0.0414 -0.0616
10645W        W27492  12.263   0.976  13.763  0.0390  0.3145 -0.2078
10646W        W27493  16.964  14.100  16.222  0.0894  0.1027  0.3104
10647W        W27494   0.075  13.240  15.848 -0.1332  0.0482  0.0763
10648W        W27495  11.578  13.588   2.545 -0.0407 -0.2401 -0.1669
10649W        W27496  13.678  10.844   5.145 -0.2200  0.1064  0.0386
10650W        W27497  17.221  14.119  12.925  0.0184 -0.2543 -0.0251
10651W        W27498   7.561   4.224  16.550 -0.3682  0.1346 -0.2239
10652W        W27499   3.730   3.409   5.821  0.1470  0.2248 -0.1125
10653W        W27500   4.099  16.179  13.430  0.0678 -0.0556  0.0066
10654W        W27501  14.563   6.505   0.253  0.0267 -0.2364  0.2626
10655W        W27502   6.521  13.613  13.948 -0.3384 -0.3358 -0.1365
10656W        W27503   0.092  11.286   1.041 -0.3728 -0.1128 -0.0276
10657W        W27504   1.571   2.378   4.884  0.1673  0.3065 -0.3428
10658W        W27505   1.143  16.898  14.911  0.2012 -0.3877  0.2218
10659W        W27506   6.434   2.713  15.574 -0.1593  0.2576  0.0282
10660W        W27507  12.106   4.930  13.067  0.0693  0.1326 -0.1957
10661W        W27508  10.799  14.259  11.987 -0.2588  0.0784  0.1045
10662W        W27509   3.009   0.224   4.893  0.1420  0.0696 -0.1551
10663W        W27510   4.666   3.926   5.319 -0.2677  0.3665 -0.0685
10664W        W27511  12.330   9.512   4.943 -0.0847 -0.0468  0.1917
10665W        W27512  10.986   5.345   0.654  0.1881 -0.0803  0.0478
10666W        W27513   0.029   6.931   4.775  0.0914  0.0828 -0.1964
10667W        W27514   3.823  16.896   5.566  0.2079  0.1760 -0.0165
10668W        W27515  10.716  11.253   0.856  0.0373 -0.1560  0.0255
10669W        W27516   1.206  10.197   2.764  0.0276  0.3962  0.1041
10670W        W27517  10.822  14.003   2.996  0.0843  0.2679  0.4788
10671W        W27518  11.355  15.412  11.172 -0.2073  0.0370  0.1427
10672W        W27519  15.781  15.054   2.956  0.3219  0.0782  0.0956
10673W        W27520   6.257  14.983   0.128 -0.0470  0.1828  0.2997
10674W        W27521  18.054  10.781   3.065 -0.2125  0.1598 -0.0832
10675W        W27522  17.535   2.863   5.189  0.0158  0.0852 -0.1095
10676W        W27523   8.512  13.991  12.676  0.0097  0.2489 -0.0994
10677W        W27524   8.718  14.663  14.499  0.1668 -0.0053 -0.1546
10678W        W27525  14.709  11.923   2.104 -0.2172  0.3065 -0.1177
10679W        W27526   0.414  16.365  14.318 -0.0343  0.7169 -0.0183
10680W        W27527  16.577  11.961  14.680 -0.0193  0.4680 -0.3788
10681W        W27528   0.845  16.029   0.633 -0.3437 -0.0399  0.1411
10682W        W27529   5.858   8.083  11.541 -0.2347  0.0683  0.2405
10683W        W27530  16.677  10.309   5.288 -0.2139 -0.0488  0.2155
10684W        W27531  16.250   2.616  12.427 -0.1552 -0.0268  0.2456
10685W        W27532   4.150  17.892   5.603  0.1110 -0.0185 -0.3896
10686W        W27533  10.789   9.740   2.856  0.1959 -0.2479  0.0973
10687W        W27534  13.631  13.926   1.150  0.1796 -0.0857 -0.3217
10688W        W27535   2.936  18.025   1.230  0.0725  0.0671  0.1627
10689W        W27536   4.060  13.843  13.878 -0.2029 -0.2246  0.0883
10690W        W27537  13.907   8.614  16.256  0.2480 -0.2109  0.2658
10691W        W27538   2.565   1.063  15.950 -0.0401  0.0136 -0.0498
10692W        W27539  10.903   4.532   3.727  0.0476  0.0562 -0.1205
10693W        W27540   6.068  17.679  16.272 -0.3572  0.0038  0.2095
10694W        W27541   2.129  13.278   4.051  0.1052  0.0297  0.0066
10695W        W27542   7.053  13.060  12.069 -0.1203  0.1849  0.1395
10696W        W27543   0.576  17.127   0.935  0.2132  0.0204  0.0095
10697W        W27544  12.007  17.188  11.428 -0.0209 -0.0425  0.1081
10698W        W27545   3.159  12.939   0.657  0.2744 -0.1736  0.0173
10699W        W27546   8.366   8.129   2.269 -0.0449  0.0510 -0.0428
10700W        W27547   9.666  15.208  15.451 -0.1899  0.2855  0.1360
10701W        W27548  12.858   4.917  13.870  0.1133 -0.1898  0.1739
10702W        W27549   5.161  10.710   5.434  0.0003 -0.0648 -0.1662
10703W        W27550  12.456  15.883  13.482 -0.1133 -0.2658 -0.0557
10704W        W27551   3.727  13.426   1.301  0.0377  0.2771  0.2167
10705W        W27552   7.157  11.063   2.724  0.1074 -0.3210  0.0603
10706W        W27553   2.320  12.777   4.270  0.0567 -0.2556  0.1506
10707W        W27554   2.026  11.471   2.763  0.4355  0.0368 -0.0155
10708W        W27555  13.055  12.120  14.121 -0.0048 -0.0374  0.2515
10709W        W27556   7.454  15.798   3.513  0.0601  0.2433 -0.1123
10710W        W27557  17.481   3.590   4.708  0.1036  0.0594  0.0442
10711W        W27558  15.730  10.736   5.086 -0.1460 -0.1817 -0.2424
10712W        W27559  13.085  12.615  13.778 -0.2797  0.2923  0.1663
10713W        W27560  13.998   2.677  14.689 -0.1570 -0.1364  0.2997
10714W        W27561   7.307   5.549   3.785  0.1063  0.1738  0.0577
10715W        W27562  17.995   2.353   4.447 -0.1055  0.1669 -0.0856
10716W        W27563   5.640   8.774   3.132  0.0353 -0.2318 -0.2549
10717W        W27564  13.256   4.433  16.456 -0.2039 -0.1140 -0.3266
10718W        W27565   1.132   0.215   2.023 -0.0855  0.2386  0.0228
10719W        W27566   5.704  15.165  14.403 -0.2779  0.0558  0.2208
10720W        W27567  15.469  11.417   6.072  0.0117  0.0904 -0.0924
10721W        W27568  14.399   5.724  13.613 -0.0948  0.1619  0.0747
10722W        W27569   2.323   3.071  15.544  0.0448  0.0249 -0.2293
10723W        W27570  15.979  13.396  15.266 -0.2171 -0.0140 -0.3075
10724W        W27571   5.136  17.433  12.551  0.2007  0.0358 -0.1930
10725W        W27572  17.110   7.968  12.614 -0.0880  0.1818  0.0352
10726W        W27573   9.747   6.449  15.599  0.0948 -0.0315 -0.0797
10727W        W27574  11.761  17.643  16.172  0.0748 -0.2998 -0.1326
10728W        W27575   0.911  16.852  14.444 -0.2882  0.0741  0.0448
10729W        W27576   2.758   5.570  12.549  0.0121  0.1933 -0.1002
10730W        W27577   8.874  10.759   4.614 -0.0758  0.0445 -0.1049
10731W        W27578   5.781   1.428  12.835  0.1676 -0.0339 -0.0288
10732W        W27579  13.488  14.084   5.368 -0.0609 -0.0046 -0.0965
10733W        W27580  11.042   1.678   4.129 -0.2503 -0.0862 -0.3052
10734W        W27581  17.170   2.672  13.192  0.0565 -0.0961  0.1936
10735W        W27582   1.907  12.857   2.802  0.1487 -0.0616  0.0600
10736W        W27583   7.981   1.923   5.405  0.0807 -0.2695 -0.0115
10737W        W27584   2.220  15.363   2.266  0.0639 -0.0708  0.0957
10738W        W27585  15.946  15.681  13.790  0.1783 -0.0147  0.0703
10739W        W27586   9.671   0.978   2.652 -0.0276 -0.2866 -0.2387
10740W        W27587   2.844   7.127  11.762 -0.1036  0.1723 -0.1823
10741W        W27588  15.070   2.007  14.990  0.3407 -0.1855 -0.0585
10742W        W27589   4.805  15.537   4.158 -0.0120  0.3436 -0.1087
10743W        W27590  10.156  14.913  16.278  0.0013 -0.1513  0.0254
10744W        W27591  14.157  16.729   3.094 -0.0503  0.1081 -0.0284
10745W        W27592   7.757   0.287   1.989  0.1793  0.1865  0.1781
10746W        W27593  11.202   1.525  13.608 -0.1366  0.2848  0.2150
10747W        W27594   0.114  14.013   4.822 -0.0563 -0.1486 -0.1875
10748W        W27595  16.446   9.513   5.366  0.2360  0.0927 -0.2273
10749W        W27596  13.065  13.577   1.865 -0.0192 -0.2493  0.2269
10750W        W27597   9.995  14.606   1.104 -0.1783 -0.0203 -0.1068
10751W        W27598  10.294   4.330   1.204 -0.3705  0.2026 -0.5012
10752W        W27599  13.504  15.229  15.216 -0.0667 -0.2829  0.0782
10753W        W27600   2.773  11.946   6.569 -0.2769 -0.4217  0.0695
10754W        W27601   1.919   4.969   3.542 -0.1163  0.1765  0.0322
10755W        W27602  10.359  10.991   0.250  0.0992  0.1664 -0.3674
10756W        W27603  17.000  11.977   2.131 -0.1120  0.1039 -0.0433
10757W        W27604  16.023  11.826   2.458  0.1254  0.0114  0.0406
10758W        W27605  16.226  13.062   6.344  0.0518  0.0124  0.0218
10759W        W27606  16.334  15.769  13.070 -0.1618  0.2593  0.0087
10760W        W27607   5.197  16.970   0.134  0.1490  0.0681  0.1647
10761W        W27608   4.633  11.149   2.268 -0.1028  0.4086  0.2341
10762W        W27609   1.272   0.161   0.718  0.0612  0.2491 -0.1047
10763W        W27610   4.439  16.032   5.637 -0.0538 -0.3443 -0.0214
10764W        W27611  11.318   1.118   5.442  0.0322 -0.2242  0.0177
10765W        W27612   4.940   3.575  16.212  0.1794  0.2365 -0.1621
10766W        W27613  11.142   1.215   4.476  0.0694 -0.0678 -0.1930
10767W        W27614   0.950   2.049  12.210  0.0484 -0.2818  0.2666
10768W        W27615  11.192  17.149  14.305  0.2934 -0.1227  0.1718
10769W        W27616  12.150   9.446   3.160 -0.0135 -0.1683  0.0362
10770W        W27617  16.255  11.893  13.568 -0.0350  0.0552  0.0867
10771W        W27618   0.453  16.695   1.796  0.1226 -0.0209 -0.0927
10772W        W27619  17.949   6.151  12.672  0.0671 -0.0011 -0.1199
10773W        W27620   4.449  15.836   0.119  0.1009  0.1461 -0.0665
10774W        W27621  16.989   1.848  14.877 -0.1441 -0.2765  0.0044
10775W        W27622  15.585  16.945  15.516  0.0827 -0.1665 -0.0847
10776W        W27623   2.455  13.967  14.513 -0.0782 -0.0700 -0.3871
10777W        W27624   8.376   5.519   3.385 -0.0072 -0.0457  0.2960
10778W        W27625   7.854   0.996   3.660 -0.0292 -0.0602  0.1926
10779W        W27626   3.709   1.248   5.283 -0.1722  0.0220 -0.1048
10780W        W27627  12.992   7.070   3.102  0.0674  0.1770 -0.1610
10781W        W27628  14.929  11.765  14.287 -0.0960  0.1311  0.0158
10782W        W27629   0.878   2.794   1.215  0.2558  0.0723 -0.2276
10783W        W27630  16.640   5.395   2.458 -0.0363  0.0327  0.0378
10784W        W27631  14.236   9.339  12.292 -0.2417  0.1889  0.0352
10785W        W27632  12.052   0.251  15.490 -0.1532  0.3545 -0.0564
10786W        W27633   1.995  11.053  14.605 -0.1382  0.1468  0.2025
10787W        W27634   3.441   4.049  13.925 -0.2662  0.1397 -0.3084
10788W        W27635  14.061  17.326   0.767 -0.1897  0.0865  0.0260
10789W        W27636  11.667   1.306   1.020 -0.2017 -0.4875 -0.2227
10790W        W27637   8.937  11.812  14.061 -0.0808 -0.2068  0.6181
10791W        W27638   5.505   1.241  16.380 -0.2176  0.2404  0.0687
10792W        W27639   2.470   9.619  16.535  0.0095 -0.4485 -0.0318
10793W        W27640   0.006   2.701  14.315  0.2725 -0.0766 -0.0451
10794W        W27641  12.624   7.586   5.695 -0.0318  0.1713  0.0155
10795W        W27642  13.854   3.363  15.804  0.1111  0.2369 -0.0435
10796W        W27643   6.258   8.059   2.007  0.2453 -0.2648 -0.1736
10797W        W27644  11.672   0.590  11.547 -0.1281 -0.2012  0.3225
10798W        W27645   1.161   6.318  13.245  0.1391 -0.0018 -0.1125
10799W        W27646  17.408   4.734   1.151 -0.0163  0.2040 -0.0325
10800W        W27647   5.932  14.178   2.862 -0.0434 -0.1082 -0.3945
10801W        W27648  12.701  14.405   3.353 -0.0501 -0.1132  0.1015
10802W        W27649   3.975   9.669   4.598  0.0955 -0.1389  0.0697
10803W        W27650  12.300   2.275   5.674 -0.3661  0.2976  0.1596
10804W        W27651  15.419   2.256  15.811 -0.0112 -0.2785  0.0179
10805W        W27652   9.622   4.061   0.916 -0.3821  0.2709 -0.1651
10806W        W27653   7.877   7.088   4.002  0.3422  0.0776 -0.0111
10807W        W27654  17.999  17.892   2.706  0.0678  0.0924 -0.1278
10808W        W27655  16.202  13.794   1.371 -0.0934 -0.2364  0.2483
10809W        W27656   7.891   3.488   4.876 -0.1268 -0.2574 -0.2843
10810W        W27657  14.442  13.859   4.672 -0.0255 -0.1415  0.3041
10811W        W27658  15.752   9.436   4.402 -0.0226  0.3214 -0.3459
10812W        W27659  12.961  12.091   3.632 -0.0253  0.2932 -0.0063
10813W        W27660   7.654   3.927  15.586  0.1719 -0.1197 -0.2242
10814W        W27661   2.249   5.263   4.717  0.0871 -0.1777 -0.0339
10815W        W27662  12.898  14.795  14.608  0.1290  0.0345 -0.1222
10816W        W27663   8.855   8.150   2.136  0.1869 -0.0475  0.1736
10817W        W27664   8.062   8.867   2.012 -0.2804 -0.0267  0.2484
10818W        W27665   3.025   1.654   2.929 -0.0583  0.1611 -0.0503
10819W        W27666   8.580   5.659  15.065 -0.0579  0.0769 -0.0030
10820W        W27667   8.486  11.732  14.286  0.0414  0.0852 -0.0809
10821W        W27668  16.459   5.597  14.535  0.1019  0.0024  0.3354
10822W        W27669   4.971   8.593   5.766 -0.2085 -0.0285 -0.2021
10823W        W27670  16.852   4.390  11.231 -0.3023 -0.2084 -0.1748
10824W        W27671   5.979   3.786  11.824 -0.1664 -0.1377 -0.0854
10825W        W27672   1.771  17.095  12.602  0.1579 -0.3007  0.0507
10826W        W27673   2.151  11.959   4.656 -0.2422  0.0294 -0.2148
10827W        W27674  11.331  13.762  12.600 -0.1075 -0.0597 -0.0267
10828W        W27675   9.488   4.469  11.223 -0.1996 -0.2180  0.3908
10829W        W27676   0.047   1.586   4.358 -0.3783 -0.3064  0.1021
10830W        W27677   8.612   4.117   1.861  0.1154 -0.0823 -0.0486
10831W        W27678   7.292  13.321   4.996 -0.2965 -0.1705 -0.0191
10832W        W27679   7.474  14.795  14.831 -0.0006 -0.2831  0.6696
10833W        W27680   9.581   2.807   3.050  0.1018 -0.1319  0.1173
10834W        W27681  14.001  17.363   4.366  0.0227 -0.1841  0.2562
10835W        W27682  12.561   5.027  15.080  0.0532  0.3089  0.1715
10836W        W27683  11.802  17.376  15.645 -0.0530  0.0534 -0.0781
10837W        W27684   5.515  14.919  13.583  0.2764 -0.0315 -0.0823
10838W        W27685  13.384  11.234   4.882 -0.0510  0.1823 -0.1007
10839W        W27686  13.104  17.780  11.928  0.0532  0.0220 -0.0916
10840W        W27687   1.594  15.215   3.842  0.1873 -0.2657 -0.4358
10841W        W27688   5.800   4.392  16.368  0.0306 -0.1814 -0.2105
10842W        W27689  10.905   1.544   4.913  0.0314 -0.2289  0.2130
10843W        W27690   6.633  11.010  13.384  0.3301 -0.2321 -0.0850
10844W        W27691   4.772  13.872   5.076  0.4445 -0.0249  0.3116
10845W        W27692   1.229   2.459   3.730 -0.1683 -0.1019  0.3086
10846W        W27693  15.917  14.131  15.961 -0.0274 -0.0700  0.0274
10847W        W27694  11.602  11.852   0.435 -0.0209 -0.4044  0.2876
10848W        W27695   4.451  11.805   3.034 -0.2510  0.1804 -0.0115
10849W        W27696  12.296  11.600  13.585 -0.0996 -0.0061 -0.0655
10850W        W27697   4.115  13.560   0.809  0.0175  0.0768  0.0637
10851W        W27698   8.567  12.510   3.718  0.1288 -0.2079  0.1653
10852W        W27699  10.889   0.869   3.218 -0.0114  0.2493  0.1074
10853W        W27700   0.923  16.863   0.096  0.0641  0.1484 -0.0867
10854W        W27701  17.711   4.834   3.388 -0.0157  0.1595 -0.3851
10855W        W27702  10.643  10.171   1.562 -0.2437 -0.0911 -0.1372
10856W        W27703   2.769   8.963   5.327  0.3073  0.0910  0.4074
10857W        W27704  11.455   2.845  15.845 -0.3575  0.1503 -0.0551
10858W        W27705   5.843   3.747   0.890 -0.1707  0.3617  0.3080
10859W        W27706   0.344  13.148   1.965  0.0400  0.3877  0.3196
10860W        W27707  13.345  16.479  14.348 -0.0317 -0.0957  0.1344
10861W        W27708  10.172   6.705  10.615  0.0301 -0.1576  0.0787
10862W        W27709  14.950  14.355  14.905  0.4526  0.2076  0.2082
10863W        W27710  14.498   2.491   0.125 -0.2548  0.1322  0.0788
10864W        W27711   3.222   0.374  13.428  0.0205  0.0916  0.0688
10865W        W27712  15.098   6.313   5.285 -0.0443  0.1295  0.1796
10866W        W27713   0.721  10.137  14.577  0.0976 -0.1076  0.0953
10867W        W27714   7.392  14.357  11.818  0.1063  0.1900 -0.5657
10868W        W27715  15.976  11.214   0.964 -0.3619  0.1225  0.0408
10869W        W27716   0.045  16.653   3.424 -0.4074 -0.1701  0.0702
10870W        W27717   7.711   7.127  13.225 -0.0367 -0.0977  0.4425
10871W        W27718  17.118  12.014   2.668  0.0698 -0.0108  0.0842
10872W        W27719   3.431   6.971  14.419  0.0743  0.1635 -0.1157
10873W        W27720  10.895  11.660  13.631  0.0842  0.0591  0.0290
10874W        W27721   7.066  13.949  15.205 -0.3051 -0.1486 -0.2028
10875W        W27722  10.373   0.288  12.218  0.0351  0.0180  0.1384
10876W        W27723  15.297   1.347   4.564 -0.1073  0.1090  0.0735
10877W        W27724   6.231  15.088  16.191 -0.1804  0.0345  0.1501
10878W        W27725  15.646   1.210  14.067  0.3420 -0.1617  0.1273
10879W        W27726   4.742  15.032  14.153  0.2496 -0.1405 -0.0207
10880W        W27727  10.571   1.363  15.261  0.1369 -0.2613 -0.0138
10881W        W27728  12.628  15.501  12.297 -0.0663  0.0437 -0.2357
10882W        W27729   5.385   1.822   4.742  0.1503  0.2323  0.2584
10883W        W27730   2.015  16.407  15.908  0.0284 -0.0055  0.1109
10884W        W27731   3.869  12.659   1.965  0.0346  0.2541  0.2302
10885W        W27732   3.233   3.948   4.647  0.1530  0.0142 -0.0525
10886W        W27733   2.719  10.716   2.080 -0.1210 -0.2525 -0.1680
10887W        W27734   7.881   7.787  15.542 -0.1711  0.1593 -0.0573
10888W        W27735   7.228  11.809  13.558 -0.2283  0.0911  0.0522
10889W        W27736   9.248  18.004   4.315  0.0034 -0.0424 -0.1225
10890W        W27737  13.739   2.168   4.484  0.1403 -0.1359 -0.1074
10891W        W27738  12.946  14.583   4.008 -0.1137 -0.1080  0.3665
10892W        W27739   9.040   0.056  13.307 -0.4560 -0.0132 -0.0059
10893W        W27740   7.996   9.047  14.293 -0.2812 -0.1189 -0.2131
10894W        W27741   0.483  13.870   1.427  0.2915  0.1133 -0.2916
10895W        W27742   2.329   4.374  12.276 -0.2915  0.0751 -0.0278
10896W        W27743   2.557   1.169  12.188  0.1198  0.2199  0.3248
10897W        W27744   1.057  13.926   3.335 -0.0132  0.3275 -0.0140
10898W        W27745  15.940  15.448  15.639  0.1405 -0.2043  0.0476
10899W        W27746  15.700   4.804  12.032  0.0169  0.2223  0.1378
10900W        W27747   8.567  16.409  16.504  0.0130 -0.0786 -0.1713
10901W        W27748   1.730   9.911   1.596  0.2369  0.0386 -0.0726
10902W        W27749  13.162   8.662   3.744 -0.1224 -0.0544 -0.0681
10903W        W27750   3.845  17.976   0.954  0.0682  0.2164  0.0476
10904W        W27751  17.934   4.482  12.835  0.0883 -0.2807  0.1508
10905W        W27752   5.816  11.220   3.941 -0.0212  0.0745 -0.2236
10906W        W27753  13.301  12.083   0.128  0.1560 -0.0990  0.0081
10907W        W27754  17.457  10.869   5.041 -0.1612  0.0306  0.1049
10908W        W27755   0.679   7.993  14.539 -0.0801 -0.1698 -0.1454
10909W        W27756  13.999  13.701   0.928  0.1570 -0.4166  0.0935
10910W        W27757   3.714  17.116   0.865 -0.0152 -0.0392 -0.0020
10911W        W27758   3.870   1.594   6.075  0.1279 -0.1372  0.3801
10912W        W27759   8.792  10.229   2.405  0.1362  0.0087  0.1649
10913W        W27760   3.754   4.900  15.768  0.2179 -0.0973  0.3553
10914W        W27761  15.443  16.971   1.044 -0.1628  0.2179  0.0220
10915W        W27762   8.828   3.359  15.966  0.0907 -0.0222 -0.2401
10916W        W27763  16.794  16.682  15.257 -0.1498 -0.2984 -0.4377
10917W        W27764   9.561  14.818  13.840 -0.4460  0.2945  0.0161
10918W        W27765   0.598  12.546   2.173  0.0418  0.0587  0.0274
10919W        W27766  15.242  16.218  14.825 -0.3695  0.1675 -0.1094
10920W        W27767   8.477  17.337  12.483  0.3446  0.2482 -0.0952
10921W        W27768   7.916  14.479  16.414 -0.0448 -0.2552  0.0381
10922W        W27769  13.645  10.216  13.251  0.4887  0.2312  0.0979
10923W        W27770  17.220  16.946   2.301  0.0297  0.1089  0.1942
10924W        W27771   6.067   8.021   5.979 -0.4706 -0.1300 -0.0453
10925W        W27772   7.973   6.470   2.993  0.1355 -0.2733  0.2578
10926W        W27773   3.080   2.988  15.354  0.1416 -0.0647  0.1019
10927W        W27774  13.254   2.572   3.733 -0.0322  0.1120 -0.0675
10928W        W27775  14.980   9.583  16.400  0.0550  0.2096  0.1203
10929W        W27776   4.754  13.399  14.661 -0.0904  0.1286  0.0941
10930W        W27777   4.745  14.567   1.934  0.0416  0.2263 -0.0854
10931W        W27778  18.107  16.354   0.646  0.4935 -0.1583  0.0407
10932W        W27779   4.243  16.045  15.512  0.3163  0.1720 -0.1473
10933W        W27780  13.778   5.733   2.937  0.3140  0.1922  0.0658
10934W        W27781   8.987  11.923  11.438 -0.1295 -0.3942  0.1097
10935W        W27782   9.649  12.620  11.705  0.0637  0.0374 -0.1314
10936W        W27783   7.531   4.454  12.595  0.2158  0.0011 -0.1751
10937W        W27784  15.938   8.279  14.868 -0.2203 -0.0721  0.0297
10938W        W27785   6.701  13.756   2.467  0.1391  0.0336  0.0924
10939W        W27786   3.890   0.614  14.142  0.2349 -0.0969 -0.2079
10940W        W27787   3.042  10.529   5.606  0.1546  0.1348 -0.4663
10941W        W27788   5.980   4.998  14.703 -0.0101  0.0436  0.0253
10942W        W27789  12.283   7.562   2.082 -0.3245 -0.0212 -0.2257
10943W        W27790  16.743  15.230   5.551  0.1363 -0.3061 -0.0024
10944W        W27791   8.499  12.860  16.237 -0.1220 -0.1521 -0.1424
10945W        W27792  14.967   6.910  13.074 -0.3376 -0.1870  0.0804
10946W        W27793   6.027   6.347   1.551  0.0046 -0.2976  0.2653
10947W        W27794   7.925  10.052  15.215  0.1114  0.2221  0.0369
10948W        W27795  16.043  13.979   4.855 -0.3868 -0.3433 -0.1135
10949W        W27796  11.618  15.351  15.292 -0.0122 -0.0244 -0.0575
10950W        W27797  14.629  15.395  13.293 -0.1498 -0.0806  0.3263
10951W        W27798   0.573  16.403  15.533 -0.1805 -0.0052  0.2659
10952W        W27799   6.434   5.877   1.081  0.1069  0.3795 -0.2854
10953W        W27800  12.825   5.383   1.053  0.0515 -0.1643 -0.1827
10954W        W27801   5.954  13.024   3.192 -0.1018  0.1553  0.1241
10955W        W27802   7.037  17.961  14.557 -0.2755  0.0375 -0.2090
10956W        W27803  15.653   0.400   4.220  0.1478 -0.0534  0.1783
10957W        W27804   3.087   6.244   4.304  0.2379 -0.1135  0.0284
10958W        W27805  16.198   3.977  14.502  0.2280  0.2278 -0.2873
10959W        W27806   9.103  15.585   4.223  0.0839  0.2583  0.1838
10960W        W27807   9.054   7.842   3.414  0.2426 -0.0005 -0.1312
10961W        W27808   0.719   4.935  11.923  0.1210  0.1168 -0.0490
10962W        W27809   7.980  13.891  12.842  0.3019  0.1380  0.0944
10963W        W27810  13.754  14.267   5.892 -0.0337 -0.1132 -0.1044
10964W        W27811   9.663   1.048  14.937 -0.0255 -0.0052 -0.0785
10965W        W27812   6.959  15.403   3.014  0.2548 -0.1417  0.0625
10966W        W27813  11.572   9.924  12.819  0.0362 -0.2248 -0.1423
10967W        W27814  17.089   4.997   4.054  0.1519  0.1934 -0.0736
10968W        W27815   1.419   4.624   5.021  0.0708  0.3472  0.1264
10969W        W27816  17.865  17.494  14.327  0.2803  0.1458 -0.3172
10970W        W27817  16.058   2.354   4.345 -0.0688  0.0837  0.0267
10971W        W27818  12.289  11.978   1.043  0.1009 -0.0600 -0.1398
10972W        W27819   8.913  10.945  12.586 -0.0074 -0.0452 -0.1420
10973W        W27820   1.231   5.698   1.551  0.1529 -0.2916 -0.1483
10974W        W27821  15.627  13.091   0.418  0.2693  0.2642 -0.1416
10975W        W27822   2.116   9.517  13.765 -0.1416 -0.1780  0.0859
10976W        W27823   0.244   0.710  12.588 -0.3684 -0.0808  0.0256
10977W        W27824   6.855   0.777  14.590  0.0276  0.0558 -0.0933
10978W        W27825  10.744  16.880  12.617  0.0665 -0.1218 -0.0752
10979W        W27826  15.359   4.234  13.156 -0.0266  0.1606  0.0381
10980W        W27827  16.847   5.082  13.619 -0.2759 -0.2093 -0.1787
10981W        W27828  17.252   9.010  13.883  0.2729  0.1282  0.2061
10982W        W27829   0.416  16.546   3.741  0.1662  0.2062  0.0676
10983W        W27830  14.598   3.759   2.298  0.2934 -0.1785  0.3281
10984W        W27831  17.376   1.181  11.965 -0.1225 -0.2438  0.1959
10985W        W27832   1.393  13.330  14.149  0.0371 -0.2449  0.1570
10986W        W27833  11.836   6.189  13.848  0.0761 -0.2551 -0.2538
10987W        W27834  16.940   5.152  13.096 -0.0217 -0.0796  0.1739
10988W        W27835  10.635  11.075  16.112 -0.0716  0.2145 -0.1509
10989W        W27836   5.408  11.795   2.386 -0.1534 -0.1091 -0.1267
10990W        W27837  15.982   0.652  11.931  0.0613  0.0450 -0.3507
10991W        W27838  10.505  14.980  12.382 -0.0371  0.3017 -0.0452
10992W        W27839  14.815   1.172   0.875 -0.0419 -0.1109 -0.0503
10993W        W27840  10.524   9.856   2.069  0.3179  0.1167 -0.0459
10994W        W27841   7.655  12.155   0.117 -0.0818  0.0217  0.2548
10995W        W27842   2.056   3.759  14.016 -0.1006  0.0911 -0.1947
10996W        W27843  13.118  13.034   2.430 -0.1651 -0.1326 -0.1243
10997W        W27844   6.492  15.035  14.170 -0.0410  0.1111 -0.0444
10998W        W27845   8.856  16.120   3.381  0.2138  0.0843 -0.2339
10999W        W27846  11.382  10.309  13.322 -0.0140  0.1777  0.2906
11000W        W27847  14.705  12.104   0.181 -0.1021  0.0103  0.1098
11001W        W27848   9.389   1.178   2.310 -0.0055 -0.2603  0.1373
11002W        W27849  12.799  13.880  11.886  0.1578 -0.3265 -0.1395
11003W        W27850   3.175   6.991  15.251  0.0184 -0.1760  0.0116
11004W        W27851   6.804  15.906  13.879 -0.0993  0.1086 -0.1522
11005W        W27852   2.431   3.582  11.779 -0.0523 -0.0408  0.1111
11006W        W27853   3.183   1.514   5.417  0.1350 -0.1452  0.1247
11007W        W27854   4.646  12.012  13.547 -0.0408  0.0815 -0.3283
11008W        W27855   2.753   1.653   3.388 -0.0295  0.0156  0.0194
11009W        W27856  10.607   9.765  11.705 -0.3791 -0.1530 -0.0903
11010W        W27857   7.119   2.500  14.153 -0.1223  0.0818  0.1679
11011W        W27858  17.405  16.483   2.221  0.3271 -0.3191  0.0647
11012W        W27859  17.251  14.761  14.995 -0.0591  0.1327 -0.1854
11013W        W27860  11.539  10.694   1.965 -0.0907 -0.0156  0.2430
11014W        W27861  12.193   3.611  11.252  0.5183  0.0593  0.2805
11015W        W27862   7.622  13.574   3.663 -0.1851  0.1603  0.1110
11016W        W27863   4.168   9.361   5.492  0.2391  0.0392 -0.1661
11017W        W27864  14.908  11.239  15.033 -0.3133 -0.1938  0.2142
11018W        W27865   0.511   2.780  13.047 -0.2025 -0.1212  0.0771
11019W        W27866   7.034   6.636  12.833  0.0630 -0.0821  0.2259
11020W        W27867   9.941   9.934   5.237 -0.0431 -0.2161  0.0643
11021W        W27868   6.313  15.023   4.597 -0.1423 -0.1178 -0.0960
11022W        W27869  10.884   7.815  14.282 -0.1356  0.4333 -0.2401
11023W        W27870  14.157  17.767  11.544 -0.0305 -0.3090  0.0382
11024W        W27871   4.251   7.834   1.268 -0.2299  0.0032 -0.1825
11025W        W27872   4.022   3.637  16.170  0.1868 -0.2055 -0.0534
11026W        W27873  10.748   2.219  16.066 -0.0352 -0.3572  0.1211
11027W        W27874  18.052  12.415  11.246  0.1131  0.3352  0.1006
11028W        W27875   2.332   2.114  11.932  0.0802  0.0493  0.0692
11029W        W27876  12.386   9.586   1.733  0.1835 -0.1049 -0.0310
11030W        W27877  17.432   4.362   0.281  0.0529  0.2352  0.2003
11031W        W27878   2.512  14.008   5.168  0.0936 -0.1779  0.0381
11032W        W27879   1.023  14.070  13.401 -0.1423  0.2169 -0.2134
11033W        W27880   8.507  11.451   3.761  0.0008  0.0491  0.0352
11034W        W27881   9.476   0.932   1.440 -0.1851 -0.0016  0.1244
11035W        W27882   2.677   7.077   3.829  0.1193 -0.1155  0.2978
11036W        W27883   9.730  15.558   0.488  0.1077  0.3489 -0.0012
11037W        W27884  13.598   7.194   4.081  0.2204 -0.1947  0.1559
11038W        W27885   3.431  16.194  12.724  0.2230 -0.1355  0.2583
11039W        W27886  17.504  16.249  12.593 -0.2856  0.1526 -0.2787
11040W        W27887  15.241  16.799   0.109 -0.1634 -0.1010  0.0059
11041W        W27888   6.463   5.189  14.897 -0.1688 -0.3736  0.0071
11042W        W27889   4.651   3.996   4.221  0.3149  0.3521  0.2434
11043W        W27890   9.761  13.730   1.085 -0.1140  0.2644 -0.0723
11044W        W27891   5.342  13.361  16.618 -0.0171  0.1879  0.1069
11045W        W27892  15.702   5.716   2.877  0.0935 -0.1141  0.1237
11046W        W27893   8.054  16.486  12.906 -0.4376  0.0277  0.2059
11047W        W27894   4.911  10.511  15.170  0.0766  0.0097 -0.0743
11048W        W27895   8.033  14.863  15.473  0.1583 -0.0165  0.1346
11049W        W27896  17.484   0.937   4.240 -0.0383  0.3440  0.3026
11050W        W27897   3.432   7.892   4.234  0.0128  0.1475  0.1474
11051W        W27898   5.925  14.816   2.360  0.1589  0.3027  0.3025
11052W        W27899   4.213   7.137   1.852  0.1502 -0.1939 -0.2376
11053W        W27900  13.811   1.259  14.565 -0.0042 -0.2117 -0.2465
11054W        W27901   9.394  17.963   0.120 -0.1411  0.0580  0.1332
11055W        W27902  10.992  13.184  14.383  0.0368 -0.3000 -0.0011
11056W        W27903   1.786  12.535  13.773  0.2176 -0.1948 -0.0490
11057W        W27904   2.418   7.817  16.076 -0.0456 -0.2484  0.1548
11058W        W27905   5.601   9.267   1.595 -0.0061  0.0328 -0.1585
11059W        W27906   9.862   4.467  11.613  0.0306 -0.2107 -0.0704
11060W        W27907   4.067   5.015  16.248 -0.0298 -0.0508  0.1218
11061W        W27908   7.838  11.809  16.004  0.2316 -0.2316 -0.1133
11062W        W27909   6.696  11.426   0.472 -0.1334  0.1811  0.1432
11063W        W27910  11.308   2.213  13.844  0.3296  0.2514 -0.1775
11064W        W27911  16.772   6.841  14.606 -0.0734  0.0327  0.3387
11065W        W27912  10.404   7.344   0.845  0.3548  0.1192  0.0609
11066W        W27913   5.152  15.109  15.785  0.0036 -0.0346  0.0508
11067W        W27914   2.063  11.229  16.098 -0.3761 -0.2129  0.2672
11068W        W27915   8.159  10.210   2.599 -0.4906 -0.0590 -0.4351
11069W        W27916  11.140   4.446  12.716  0.3581 -0.2928 -0.1521
11070W        W27917  17.507  11.441  13.675  0.0222  0.1873  0.0922
11071W        W27918  11.314   5.180   2.095 -0.0272 -0.1576  0.2128
11072W        W27919   7.535  12.769  14.717  0.2814 -0.1743  0.2031
11073W        W27920  16.010   2.959  13.401  0.0697 -0.0544  0.1992
11074W        W27921  13.669  14.793  11.714  0.1840 -0.1584  0.2490
11075W        W27922   9.090   7.248   4.113 -0.2283 -0.0662 -0.1958
11076W        W27923  11.559   8.756  15.516 -0.0012  0.3220 -0.1491
11077W        W27924   3.744  10.032  13.311 -0.1289  0.0012 -0.4298
11078W        W27925  15.064  10.993   6.046  0.2049 -0.1329 -0.4493
11079W        W27926   7.813  15.746  16.418  0.0508  0.1110  0.1061
11080W        W27927   4.900   1.511  13.152  0.0349  0.1461  0.0340
11081W        W27928   6.505   6.026  13.055 -0.1578 -0.1346  0.1728
11082W        W27929   6.162   4.905  15.302  0.0597 -0.1627 -0.0546
11083W        W27930  10.048  11.246   3.790  0.1325  0.1259 -0.0953
11084W        W27931  17.901   0.552   2.377  0.1290 -0.0828 -0.1506
11085W        W27932   3.261  14.517   2.045  0.0049  0.0616 -0.2624
11086W        W27933  16.482  13.015  12.670 -0.2029 -0.1921  0.0348
11087W        W27934   1.878   3.921   5.418 -0.4395  0.2042  0.0601
11088W        W27935  10.855  11.079  14.493 -0.1168  0.3320 -0.1446
11089W        W27936  15.379  15.150  16.593  0.0977 -0.3379  0.2868
11090W        W27937  16.857  14.715  14.729 -0.0841  0.1387 -0.0590
11091W        W27938   1.718  14.905  16.500 -0.1337 -0.4496 -0.0430
11092W        W27939  10.914   4.755  12.323 -0.2822  0.0451 -0.0929
11093W        W27940   8.789  13.577   2.673  0.0682  0.1619 -0.3472
11094W        W27941  16.905   8.308   4.096 -0.1529  0.1223 -0.1680
11095W        W27942   6.309  10.705   5.815  0.3912 -0.0079  0.1751
11096W        W27943  18.177  10.466   1.441  0.1066  0.0704 -0.0505
11097W        W27944  11.818   6.963  14.674 -0.0508  0.0552  0.1937
11098W        W27945   8.982   6.059  11.162 -0.0605  0.3322 -0.0707
11099W        W27946  14.962  11.663   0.262 -0.2225  0.2140 -0.0151
11100W        W27947   6.173   8.143   4.653 -0.2330 -0.1355 -0.0036
11101W        W27948  17.250   4.156  12.793 -0.1702 -0.0541 -0.2609
11102W        W27949  13.310   4.485   5.255  0.0971 -0.0459 -0.3296
11103W        W27950  16.515  15.857   6.388  0.2132 -0.0869 -0.1258
11104W        W27951   9.687   6.579  16.503  0.2355 -0.1387 -0.0681
11105W        W27952   3.598  10.381   3.370  0.0674  0.0717  0.1948
11106W        W27953   7.838   0.223   0.673  0.0164  0.1873 -0.0282
11107W        W27954  13.475   3.348   4.113  0.0867  0.0026  0.0220
11108W        W27955  15.283  12.759  14.759  0.0571 -0.2262 -0.1417
11109W        W27956  10.999   1.576  15.503  0.0701 -0.3248 -0.1278
11110W        W27957  13.772   7.985  13.117  0.0812 -0.2208  0.2801
11111W        W27958  10.284   4.562  15.513  0.0937  0.1145  0.2253
11112W        W27959  10.537   5.425   3.688 -0.0820  0.0264  0.0574
11113W        W27960   1.496  16.562   3.678  0.0682 -0.1960 -0.3594
11114W        W27961   6.161   2.711  12.252  0.2399 -0.3210 -0.2611
11115W        W27962   3.046   8.896  14.246  0.2236 -0.1838 -0.2818
11116W        W27963  12.852  17.375   0.289  0.0344 -0.0492  0.1344
11117W        W27964  16.568  11.964  12.931 -0.2775  0.0827 -0.0173
11118W        W27965   5.413   8.126   2.839 -0.2598 -0.0712 -0.2897
11119W        W27966   6.902   4.805   4.106 -0.3098 -0.0614 -0.1036
11120W        W27967   7.307  11.561   4.541  0.2168  0.1855  0.2354
11121W        W27968   7.491   3.636  14.525  0.0590  0.0007 -0.2132
11122W        W27969  12.998   0.096   1.930 -0.0726  0.2361  0.0093
11123W        W27970   0.605  17.946  12.481 -0.0060  0.0125  0.0967
11124W        W27971  12.279  17.257   3.910  0.1135  0.1203  0.0239
11125W        W27972  13.954  16.875   1.051 -0.0451 -0.0156  0.3423
11126W        W27973   4.508  15.311  16.526 -0.2147  0.0066 -0.0304
11127W        W27974  10.966   2.942  15.920 -0.1842 -0.0064 -0.0813
11128W        W27975   8.419   9.732   0.727 -0.3175 -0.1567  0.3046
11129W        W27976  14.151  16.569   1.810 -0.1613 -0.1568 -0.1981
11130W        W27977   8.208   8.281  14.986  0.0835 -0.1906  0.1118
11131W        W27978   5.644   7.583   1.254  0.0735 -0.1832  0.1196
11132W        W27979  12.691   2.428   5.394 -0.0801 -0.1298 -0.0740
11133W        W27980   9.611  10.167  11.982 -0.1002  0.1886 -0.0301
11134W        W27981   9.027  10.324  11.435 -0.1299  0.0888  0.0048
11135W        W27982   6.009   5.051   5.241 -0.1137  0.0929  0.0983
11136W        W27983   8.819  11.300   3.429 -0.0352  0.2662 -0.1867
11137W        W27984   9.922   7.111  11.874 -0.2050 -0.0883  0.0460
11138W        W27985   3.963   5.261   4.214  0.1178  0.1204  0.2203
11139W        W27986  16.491  11.375  16.611 -0.0305 -0.0425  0.1238
11140W        W27987  16.132  12.733   3.891 -0.1300  0.2898  0.1766
11141W        W27988  16.704  11.509  14.255 -0.2019 -0.2105  0.1973
11142W        W27989   9.212  16.153   0.625  0.1566  0.2101 -0.1163
11143W        W27990   9.784   3.465  12.179 -0.0881  0.0080 -0.0751
11144W        W27991  15.573   3.776  13.111  0.0692 -0.1056 -0.2048
11145W        W27992   1.184   4.445  16.453 -0.3687 -0.1696  0.2882
11146W        W27993   6.668   9.122   5.267  0.1690 -0.5643  0.2864
11147W        W27994   6.305   7.412   3.921 -0.3023 -0.0302 -0.1790
11148W        W27995   4.045   5.412   2.694  0.1798  0.1478 -0.2054
11149W        W27996  15.983   9.081   2.143  0.0828  0.0918 -0.2564
11150W        W27997   5.765   1.114   2.705 -0.2948  0.1208 -0.3045
11151W        W27998   6.961   1.391   0.906 -0.3734 -0.0260  0.0434
11152W        W27999  14.818  17.163  16.557  0.0221  0.2751 -0.4849
11153W        W28000  18.012  16.268  15.012  0.1876 -0.3198  0.0478
11154W        W28001  12.959  15.728   4.084  0.0455  0.0227  0.2837
11155W        W28002   4.556   3.196   2.559  0.1880 -0.2870 -0.0850
11156W        W28003  14.393  11.942   1.207 -0.0820  0.1915 -0.1463
11157W        W28004   8.496  11.134  15.685 -0.0778 -0.0799  0.0466
11158W        W28005   9.069   4.828   5.064 -0.1245 -0.0879 -0.0393
11159W        W28006  10.987   0.523   0.685 -0.0190  0.0312 -0.1420
11160W        W28007   5.545   4.323  15.435 -0.0771  0.0066 -0.3205
11161W        W28008  17.312  13.219   3.342 -0.1100  0.0964  0.1928
11162W        W28009   1.375   1.922   3.796 -0.0528  0.0393  0.2035
11163W        W28010   3.447  16.684   4.617 -0.1775  0.0112  0.0420
11164W        W28011  13.158   5.598  16.452  0.0115  0.0382  0.0482
11165W        W28012   7.876   1.527   3.535 -0.0576 -0.1057 -0.0916
11166W        W28013   0.508   7.713  16.064 -0.0268 -0.0412 -0.0989
11167W        W28014  15.160   7.584   4.642  0.1128 -0.0242  0.1082
11168W        W28015  12.391   3.340   3.342  0.3261  0.0026  0.1616
11169W        W28016  16.273  10.293  13.526  0.0819  0.2120  0.0257
11170W        W28017  15.052   1.537   2.357 -0.0247  0.3362 -0.0742
11171W        W28018   0.180   5.552  16.462  0.1499 -0.2372 -0.2108
11172W        W28019   6.361   1.441  15.546 -0.0639 -0.1799 -0.0090
11173W        W28020   8.612  16.850  12.272  0.1095  0.0217 -0.1613
11174W        W28021   6.267  13.027  16.027  0.0259  0.3473  0.0457
11175W        W28022   3.118  15.953  15.828  0.3051 -0.1454 -0.0002
11176W        W28023   5.995  17.979  13.402 -0.1591  0.0951 -0.1687
11177W        W28024   9.918   0.588  14.708 -0.2372 -0.2292 -0.0744
11178W        W28025   0.352   4.744   0.114 -0.1047 -0.0890  0.3989
11179W        W28026   1.494  16.800   3.072 -0.1681  0.0003  0.1535
11180W        W28027   8.612  13.455   0.429  0.0863 -0.0101 -0.0074
11181W        W28028  14.624  10.876  14.735  0.1051 -0.0060  0.0772
11182W        W28029   0.634  15.625  12.454  0.0734  0.2257 -0.1871
11183W        W28030   2.564   2.619   5.039  0.1260  0.1725 -0.3209
11184W        W28031   5.538  13.915  12.354  0.1466  0.1319 -0.3814
11185W        W28032  13.486   8.425  16.470  0.2528 -0.0119 -0.0234
11186W        W28033   4.299   0.246  12.406 -0.1126 -0.0930 -0.0120
11187W        W28034   4.613   7.340  13.280  0.0242 -0.1877 -0.3915
11188W        W28035   3.656  12.017   4.277 -0.3319 -0.2427  0.0757
11189W        W28036   4.858   5.097   5.817  0.1194 -0.0440  0.0646
11190W        W28037   5.440  18.170  14.419 -0.1344  0.0867  0.0446
11191W        W28038  12.617  11.603   2.916  0.0112  0.0497  0.2200
11192W        W28039  16.003  13.083  12.490  0.0724  0.3947 -0.0710
11193W        W28040   3.407  15.489   0.916 -0.0194 -0.3206 -0.4297
11194W        W28041   4.712   0.808  14.360  0.3265  0.0236 -0.2830
11195W        W28042   4.415  10.826  13.187  0.0272  0.1953  0.1946
11196W        W28043   4.770  13.519  15.243 -0.0372 -0.0762 -0.1092
11197W        W28044   8.863   2.686   1.357  0.0266  0.1569  0.2724
11198W        W28045  13.561  12.419  15.867 -0.1662  0.2388  0.0846
11199W        W28046  15.182  13.552   3.787 -0.0765 -0.1662 -0.0137
11200W        W28047   6.981   4.175  13.446  0.1968 -0.2969 -0.0217
11201W        W28048  15.026  10.776   4.171  0.0664 -0.0870 -0.1497
11202W        W28049   3.926  10.451   4.084  0.0759 -0.3400  0.1248
11203W        W28050   9.016  11.856  15.548  0.0515  0.0273 -0.0348
11204W        W28051  10.737  13.293   3.865 -0.2686 -0.0165 -0.0285
11205W        W28052  14.776  13.104  12.959 -0.1587  0.1027  0.1701
11206W        W28053   6.735   1.639  15.188 -0.0922  0.1699 -0.4876
11207W        W28054   1.511  14.852   1.674  0.1902 -0.2025 -0.2854
11208W        W28055   0.045   5.354  12.592 -0.2034  0.0281 -0.0016
11209W        W28056   9.616   8.562  15.780 -0.1099  0.0840  0.0649
11210W        W28057  14.116   6.332  14.593  0.0196 -0.1200 -0.3281
11211W        W28058  12.617   3.321   1.100  0.0860 -0.1250 -0.0877
11212W        W28059  16.833  13.014   1.265  0.0898 -0.0620 -0.1178
11213W        W28060  15.176   6.904   6.232 -0.0208 -0.1086  0.2757
11214W        W28061  10.825  12.556  14.301  0.1636  0.0165  0.0552
11215W        W28062  13.018   7.694   0.380  0.0267  0.2926 -0.0288
11216W        W28063  16.575   9.337  14.572  0.1948 -0.1716  0.2985
11217W        W28064   7.933   6.074  10.420 -0.1099 -0.5260 -0.0236
11218W        W28065   4.699   2.435   1.167 -0.0106 -0.3526  0.2232
11219W        W28066   3.475   2.472   0.134  0.1495 -0.0365 -0.3813
11220W        W28067   1.494   5.169   3.263  0.0404  0.0660  0.1443
11221W        W28068   4.681  16.284   2.285  0.0166  0.2051  0.1060
11222W        W28069  15.494   6.291  13.905  0.0016  0.0548 -0.0368
11223W        W28070  16.694   4.916   5.253 -0.0994 -0.2203  0.1271
11224W        W28071  17.059   5.259   2.057  0.1524  0.3611 -0.3011
11225W        W28072  14.018  17.128   4.867 -0.2179 -0.0598  0.0489
11226W        W28073  13.082  10.955  16.421  0.1299 -0.2362  0.0363
11227W        W28074  13.336   7.335  16.522  0.1657 -0.0926 -0.1255
11228W        W28075   6.048  15.899   4.215  0.0942  0.2548 -0.2601
11229W        W28076  11.216   9.279   2.632  0.0800 -0.0015  0.0347
11230W        W28077  14.963  16.345  12.735 -0.1769 -0.0887 -0.2706
11231W        W28078  14.154  15.688   1.814  0.4472  0.0003 -0.0967
11232W        W28079   0.958  14.586   6.004 -0.0206  0.0895  0.1468
11233W        W28080  13.527  15.007  14.781  0.1168 -0.0141 -0.1245
11234W        W28081  14.569   6.314  15.791  0.0407  0.0874 -0.1189
11235W        W28082  15.792  13.757   2.027 -0.1562 -0.2607 -0.1588
11236W        W28083   2.968  12.693   2.215  0.0633 -0.1448  0.0925
11237W        W28084  14.745  11.294   2.805 -0.0163  0.4126  0.1693
11238W        W28085   2.848  11.091  15.033  0.1343 -0.0825  0.0004
11239W        W28086   9.150   0.135  16.457 -0.0754  0.2739 -0.1749
11240W        W28087  14.640  12.170   3.768  0.2843 -0.0082 -0.3482
11241W        W28088   0.737   8.975   2.231 -0.0565 -0.2930  0.0498
11242W        W28089  17.106   0.715   2.197 -0.1743  0.1729 -0.0937
11243W        W28090   5.342  17.034   2.402 -0.0835 -0.0617 -0.2275
11244W        W28091   0.162  15.088  13.146 -0.0711 -0.0923  0.0803
11245W        W28092   4.276  18.141  15.995 -0.2669 -0.1241  0.3301
11246W        W28093  16.598   6.335  12.400  0.1203 -0.2795  0.1685
11247W        W28094  16.229  11.769  11.551 -0.2640 -0.0109 -0.0696
11248W        W28095  14.469   7.093   4.011 -0.1344 -0.1669 -0.0154
11249W        W28096  16.677   2.939   4.921  0.0638 -0.1781  0.2072
11250W        W28097   5.581  12.874  14.384  0.2731 -0.2507 -0.1277
11251W        W28098  11.067   6.544  14.936  0.1370  0.0960  0.1414
11252W        W28099  14.211   3.673   5.583  0.0787 -0.2262 -0.0489
11253W        W28100   9.147   7.502  15.825 -0.2121 -0.0215  0.1575
11254W        W28101   9.537   2.288  14.899  0.0976  0.3338  0.1423
11255W        W28102  10.204   2.251  16.104  0.0260 -0.3161  0.2510
11256W        W28103   4.358   8.118   0.488 -0.0823 -0.1310 -0.1073
11257W        W28104   6.183   4.178  12.699 -0.3051  0.2032  0.0860
11258W        W28105  15.072   7.212  14.223  0.1277  0.1004  0.1535
11259W        W28106  13.691  17.626   1.588 -0.0641  0.0657  0.0105
11260W        W28107  13.962  13.175   0.354 -0.0338  0.2915  0.0970
11261W        W28108   1.325  12.435   6.050 -0.0475 -0.0480 -0.5249
11262W        W28109   3.616  14.829   5.205 -0.1186 -0.0547  0.0603
11263W        W28110   7.412   3.447   3.147  0.1604  0.0350  0.1115
11264W        W28111   0.096   3.271   5.299  0.2518  0.0875  0.0651
11265W        W28112  10.923   7.101  15.782 -0.1556  0.0452  0.2247
11266W        W28113   8.279   9.842  12.467 -0.2456 -0.2156  0.1561
11267W        W28114   2.245   7.498   3.587 -0.1244  0.0851 -0.5391
11268W        W28115   1.902   1.215  12.914  0.0867  0.0013 -0.1120
11269W        W28116  15.901   5.633  13.322 -0.2419 -0.1372  0.0802
11270W        W28117   6.853   6.599   0.462  0.1892  0.0984 -0.2895
11271W        W28118   6.097   3.050  13.820  0.0406 -0.1490  0.3005
11272W        W28119   8.459   7.739   5.057  0.2733 -0.0204  0.3291
11273W        W28120  16.166  11.483   3.721 -0.1330 -0.0079 -0.0198
11274W        W28121   1.529   9.092  13.280 -0.2546  0.2182  0.1369
11275W        W28122   6.979  11.047  14.748 -0.1802  0.1967 -0.5142
11276W        W28123  15.134  16.427  14.237  0.0951 -0.3358 -0.1542
11277W        W28124  13.257   1.046  15.334 -0.0059 -0.0009  0.0811
11278W        W28125   2.204  15.602   6.101 -0.2899 -0.3932 -0.0792
11279W        W28126   6.405   8.995  12.784  0.3511  0.1542 -0.2853
11280W        W28127  12.505  13.790  11.502  0.0313 -0.1339 -0.1722
11281W        W28128   6.014   1.643   5.443 -0.1109 -0.2305  0.0764
11282W        W28129   4.256   2.833   2.720  0.0095 -0.0538  0.0714
11283W        W28130  17.088   3.788   2.096  0.0052  0.1496  0.0626
11284W        W28131   0.888   1.666  16.194  0.0276 -0.2027  0.0563
11285W        W28132   0.746  17.781  15.812  0.1885  0.1025  0.0370
11286W        W28133   2.764   2.000  15.001  0.0104  0.2629 -0.3676
11287W        W28134  12.957  12.926  15.038  0.1044 -0.0102  0.1486
11288W        W28135   7.776  15.236  13.651 -0.3899  0.1494  0.2001
11289W        W28136   3.643  10.865  12.070  0.2046  0.1511 -0.3765
11290W        W28137   2.965   5.008  12.572 -0.1613  0.3273 -0.3343
11291W        W28138   8.531   5.789  15.576  0.2291  0.1808 -0.2713
11292W        W28139   7.076   2.645   3.620  0.1109  0.0340 -0.0267
11293W        W28140   2.308  11.522   4.405 -0.1386  0.2477 -0.4591
11294W        W28141  16.887   3.751  12.992  0.1413 -0.0605  0.1219
11295W        W28142   2.685   5.204  11.538  0.0704  0.3494 -0.0704
11296W        W28143  14.362   5.019   1.586  0.1016 -0.3369 -0.0895
11297W        W28144  12.793   7.250  13.658  0.1999 -0.1750 -0.1159
11298W        W28145  13.274   0.386  11.862  0.0991 -0.0073 -0.0110
11299W        W28146  13.990   7.962   5.588 -0.2319  0.1006 -0.1407
11300W        W28147   3.374  14.405   2.896  0.0825  0.0228  0.0663
11301W        W28148   3.985  13.881  14.396  0.1579  0.0669  0.1730
11302W        W28149   8.486   3.719   4.383 -0.0998 -0.2293 -0.2178
11303W        W28150  10.480   3.869   5.709 -0.2574 -0.0429  0.2772
11304W        W28151   3.322  13.896   2.925 -0.2576  0.3373  0.1634
11305W        W28152  14.259   2.630  12.858  0.0045 -0.1866 -0.0511
11306W        W28153   4.932   9.979   1.301  0.1553 -0.0126  0.1151
11307W        W28154   2.091   5.382  16.059  0.1382  0.1448 -0.0425
11308W        W28155   1.528  10.860   5.388  0.0707 -0.1101  0.1692
11309W        W28156  11.020   4.178   1.358 -0.1225 -0.1539 -0.2745
11310W        W28157  15.684   1.089   4.934  0.0120 -0.0317  0.0619
11311W        W28158  14.658   5.375  11.673 -0.0402  0.0812 -0.0563
11312W        W28159   4.876   7.281  12.834 -0.0303 -0.0670 -0.1402
11313W        W28160   9.579  15.568  13.307 -0.2056  0.0764  0.2691
11314W        W28161  18.022  11.238  16.269  0.0023 -0.0002  0.0995
11315W        W28162  14.226   1.050   4.178  0.3597 -0.0987 -0.1054
11316W        W28163   7.290   7.541  16.141 -0.0177 -0.0138  0.0455
11317W        W28164  11.386   1.577  16.451  0.4116 -0.0563  0.3454
11318W        W28165   3.629   1.569  14.565  0.0406 -0.0750  0.1259
11319W        W28166   5.628  10.685   0.755 -0.3352  0.0357  0.1874
11320W        W28167   6.980  16.649  14.540 -0.2592 -0.3557 -0.1389
11321W        W28168   3.669  11.724  13.370 -0.2373  0.0166 -0.1436
11322W        W28169   4.537   1.790  12.127 -0.2889 -0.0683 -0.0241
11323W        W28170  18.138   0.499  13.357  0.1054  0.4135  0.3543
11324W        W28171  13.839  14.576  15.840 -0.0465  0.0246 -0.2447
11325W        W28172   2.372   6.054   3.011 -0.1213  0.0092  0.4999
11326W        W28173   5.573  11.578   3.173  0.0747 -0.1705 -0.1030
11327W        W28174  10.509  10.116  10.060 -0.2178  0.1551 -0.0706
11328W        W28175   5.073   9.901  13.542 -0.1313 -0.1478 -0.0386
11329W        W28176  11.187  12.147  12.693  0.0308  0.0822 -0.1423
11330W        W28177   2.816  11.938   5.735  0.0391 -0.0854  0.1876
11331W        W28178   9.443   4.438   3.344 -0.0083 -0.2059  0.1584
11332W        W28179   3.401   0.644  14.420  0.0020 -0.2269 -0.0900
11333W        W28180  11.003  10.159  14.370 -0.0402  0.3104 -0.2895
11334W        W28181   4.734   0.760   3.882 -0.0363  0.1993  0.3840
11335W        W28182   7.143   4.038  16.218 -0.0097 -0.1300 -0.2782
11336W        W28183   1.648  17.909   1.605 -0.0478 -0.2141  0.1975
11337W        W28184   8.974  11.969   3.160  0.4958 -0.0214 -0.2875
11338W        W28185   7.723  17.013  16.475  0.0112 -0.0989 -0.2328
11339W        W28186   4.432  10.206   4.620  0.0996 -0.0340 -0.0796
11340W        W28187   6.372   4.581  13.008 -0.1196  0.1963  0.1704
11341W        W28188   2.611  10.093   5.186 -0.0199  0.0963 -0.0171
11342W        W28189   3.171   7.014   4.199  0.2082  0.3224 -0.0769
11343W        W28190   3.155   9.729  12.932  0.2904  0.2966  0.1226
11344W        W28191   3.217   3.659   4.222  0.1448 -0.1825  0.0478
11345W        W28192   5.487  14.670  14.565 -0.3615  0.0404  0.0533
11346W        W28193  17.123   5.870   4.252 -0.0319 -0.0126  0.0384
11347W        W28194  10.920   9.329  14.344  0.0209  0.3571 -0.1041
11348W        W28195  17.482  13.305  11.902 -0.1525 -0.2898 -0.1752
11349W        W28196   4.402   5.716   5.118  0.1774  0.0826 -0.1021
11350W        W28197  13.292   7.327   1.308  0.0045  0.0833  0.4577
11351W        W28198  10.616  12.601  13.851  0.1710  0.0313  0.1814
11352W        W28199   8.270  14.445   4.279 -0.2556 -0.1865  0.4622
11353W        W28200   0.533   4.884   3.398  0.0803 -0.1926 -0.0649
11354W        W28201   1.541   8.997  12.460 -0.0595 -0.1756 -0.3643
11355W        W28202   3.673  11.964   2.605  0.0739  0.0314  0.2615
11356W        W28203  12.565  15.450  11.560 -0.0898  0.1409 -0.1178
11357W        W28204   1.955   5.904   3.233  0.1274 -0.0443  0.0458
11358W        W28205   5.333   2.838  13.764 -0.2339 -0.0405  0.1102
11359W        W28206   0.331  10.099   5.534 -0.2718  0.3946 -0.1017
11360W        W28207   6.129  13.918   1.727 -0.0563  0.2891  0.3122
11361W        W28208  10.336  16.340   1.664 -0.3446 -0.0887 -0.1304
11362W        W28209   5.153   3.470   3.660 -0.0120  0.0783 -0.0556
11363W        W28210   1.207   3.770  12.542  0.2914 -0.1133  0.1651
11364W        W28211   5.616   2.970  12.523 -0.1309  0.0494  0.1797
11365W        W28212   4.882   8.139  15.756  0.0310  0.2106  0.0241
11366W        W28213   8.553   8.407  15.365  0.0021 -0.2028 -0.0473
11367W        W28214   6.604   5.673   5.796 -0.1753 -0.2825 -0.1691
11368W        W28215  10.598   5.908   2.281 -0.1356 -0.1258  0.2179
11369W        W28216  17.386  15.425  14.671 -0.0018  0.0420 -0.3115
11370W        W28217  10.079   1.680  15.890  0.2473  0.0184  0.0423
11371W        W28218   3.968   7.285   3.175  0.1079  0.4396  0.4715
11372W        W28219   6.549  17.893  16.156  0.0701 -0.2636  0.1484
11373W        W28220  14.470   7.823   5.431 -0.0574  0.1577  0.1945
11374W        W28221  17.828   5.273  11.133 -0.0019  0.1688  0.2252
11375W        W28222  17.808   7.853  15.692 -0.0041 -0.0657  0.2030
11376W        W28223   1.217   4.521   1.549  0.2399  0.2265 -0.1461
11377W        W28224  17.367   0.491   2.644 -0.4566  0.1372  0.3075
11378W        W28225  10.729  13.374   0.151 -0.0475  0.1457  0.0031
11379W        W28226   8.358   8.128   0.890  0.2418  0.1524  0.1045
11380W        W28227   4.341   8.523  16.426 -0.0230  0.3027 -0.1689
11381W        W28228  13.360   4.204   2.463 -0.2682 -0.0683 -0.2021
11382W        W28229   7.082  15.349   5.689  0.0731  0.0312 -0.2687
11383W        W28230  13.430   8.118  13.458  0.3592 -0.0937  0.1848
11384W        W28231  14.096   5.517  11.651  0.3285  0.0988  0.0155
11385W        W28232   9.318   8.126   0.747  0.1164  0.0457  0.5207
11386W        W28233  10.409  13.703   0.398 -0.3096  0.2175 -0.0467
11387W        W28234  15.925   1.167   4.521 -0.1969  0.2132  0.3511
11388W        W28235   0.321   1.117   1.719 -0.2552  0.3447  0.0686
11389W        W28236   3.917  15.893  16.403  0.0641 -0.0444  0.0695
11390W        W28237   3.322   5.183  14.517 -0.1392 -0.0518 -0.2539
11391W        W28238  12.779   6.305  11.332  0.1861 -0.1861  0.0899
11392W        W28239   9.464   0.736   5.028  0.0603  0.0322 -0.2959
11393W        W28240  16.197  16.690  12.524  0.0766  0.1743 -0.3439
11394W        W28241  12.798   5.102   3.732 -0.1016  0.0015 -0.3078
11395W        W28242  12.341  12.824   1.737 -0.1472 -0.0135 -0.0737
11396W        W28243  12.873   9.978   6.203 -0.1659 -0.2897  0.1823
11397W        W28244   4.245   0.102   5.133  0.0054 -0.0282 -0.1122
11398W        W28245  14.094   1.621  13.001  0.3376  0.0733  0.0254
11399W        W28246   3.165  17.708  15.776  0.1854 -0.0232 -0.0342
11400W        W28247  10.306   0.806  12.300 -0.1266  0.2466  0.0056
11401W        W28248  10.851   4.763   4.853 -0.0709 -0.2386  0.2057
11402W        W28249   4.202   3.755  11.804  0.0628  0.2259 -0.1345
11403W        W28250   6.371   2.788  15.036 -0.0937 -0.1339  0.2649
11404W        W28251  16.676  12.364  14.956  0.0735 -0.5356 -0.3101
11405W        W28252  13.969  13.549  15.710  0.0181  0.0594  0.0731
11406W        W28253   4.442   3.205   3.750 -0.2398 -0.1976  0.0187
11407W        W28254  14.185  15.376  13.077 -0.2890 -0.0298  0.4777
11408W        W28255  16.312  14.164  12.936 -0.2510 -0.0784  0.1918
11409W        W28256  11.366   8.723   4.163  0.1772  0.2536 -0.1434
11410W        W28257   4.450  11.752   5.227 -0.0229 -0.0618 -0.0264
11411W        W28258   0.860   4.191  16.140 -0.2794 -0.0314 -0.0006
11412W        W28259   6.907   4.842  15.914 -0.2554 -0.0745 -0.1546
11413W        W28260   1.037  12.676   4.529  0.1168  0.0593  0.0275
11414W        W28261   0.652   3.585   0.659  0.0273  0.1660 -0.1962
11415W        W28262  10.267   0.181   3.549 -0.1259 -0.1107 -0.0608
11416W        W28263   0.829   0.348  15.392 -0.0346 -0.0600 -0.0031
11417W        W28264  11.135  13.288   4.491 -0.0219  0.1010 -0.0675
11418W        W28265  10.119   6.227  16.461 -0.3417  0.1280 -0.0015
11419W        W28266  14.738   2.889   1.378 -0.1854 -0.1497  0.0152
11420W        W28267   6.925  13.478  14.775  0.1296  0.1555  0.2738
11421W        W28268   6.214  14.525   1.087  0.2780 -0.0831  0.0430
11422W        W28269   4.127  16.889   5.959  0.1779  0.0363  0.2402
11423W        W28270   1.707  18.061  11.936  0.2057 -0.2789 -0.2097
11424W        W28271   6.236  16.730  12.691 -0.0181 -0.1102  0.0300
11425W        W28272   4.013  16.841   4.275 -0.1877 -0.2355  0.1920
11426W        W28273  14.267   5.092   3.375  0.1512  0.1802 -0.1879
11427W        W28274   3.031   8.374  11.944  0.0653  0.0407  0.0371
11428W        W28275  16.537   6.796  12.171  0.4434  0.2494 -0.0110
11429W        W28276   6.892   8.314  10.997  0.3116 -0.2128  0.0142
11430W        W28277  15.004   5.522   0.567 -0.1430  0.0245 -0.0598
11431W        W28278   9.441  15.992  13.514  0.1252 -0.2857 -0.4277
11432W        W28279  11.553   6.281   3.580 -0.3064  0.0335  0.0849
11433W        W28280  11.689   2.106   0.521 -0.2002 -0.0201 -0.2935
11434W        W28281  17.195  13.235  13.788 -0.0049 -0.0356 -0.2656
11435W        W28282  12.358  17.141  14.418  0.3253 -0.1217  0.0135
11436W        W28283  13.915  18.110   2.373  0.1078  0.0373  0.1645
11437W        W28284  11.029  13.856   2.517 -0.3794 -0.0403 -0.1187
11438W        W28285   8.264  13.428  15.198  0.0876 -0.2583  0.0641
11439W        W28286  12.061   7.649  12.288 -0.1940 -0.4173 -0.1196
11440W        W28287   2.020  16.655  13.565 -0.1099 -0.3222 -0.0180
11441W        W28288   2.765  12.851   3.616 -0.0387 -0.0948 -0.1260
11442W        W28289   2.426  16.089   5.221 -0.0478 -0.1854 -0.0055
11443W        W28290   1.410  10.924  13.734 -0.1572 -0.0211  0.0185
11444W        W28291   6.678  12.283  11.798  0.1701 -0.1004  0.2823
11445W        W28292   6.607  16.602  12.382  0.3104  0.2036 -0.1167
11446W        W28293   0.211   4.092   3.724  0.2691 -0.2206  0.0445
11447W        W28294  13.239  14.021  16.498 -0.1673  0.0972  0.0304
11448W        W28295  14.184   8.099  13.982 -0.3342 -0.0220  0.0334
11449W        W28296  17.562   0.265   1.209 -0.2739 -0.2877 -0.0150
11450W        W28297  14.936  12.681   1.890 -0.2452 -0.1357 -0.0193
11451W        W28298  11.641  11.330  16.024 -0.0447 -0.3345  0.1519
11452W        W28299  17.754  15.983   0.815  0.3525  0.1165 -0.0334
11453W        W28300   3.037   9.465  15.894 -0.0289  0.0379  0.0058
11454W        W28301   9.826   0.389   3.733 -0.1666 -0.0043  0.1420
11455W        W28302  16.852   2.352  15.080  0.0202 -0.0637  0.0457
11456W        W28303  16.135   0.974  14.081 -0.0305 -0.0071 -0.2839
11457W        W28304  14.688  15.375   4.690 -0.1270  0.1827 -0.3846
11458W        W28305  16.890  11.963  14.122 -0.0354  0.3712  0.3449
11459W        W28306   3.871   3.072   4.731 -0.0181 -0.2019  0.0051
11460W        W28307   7.085   8.090   5.293 -0.0907 -0.1749 -0.0133
11461W        W28308  16.034   7.199  15.406 -0.0607  0.1236 -0.1354
11462W        W28309  12.074   8.452  11.569 -0.0964 -0.0525  0.1601
11463W        W28310   1.531   8.741  12.876  0.4405  0.1194 -0.0049
11464W        W28311   3.258  12.393   4.204 -0.2179 -0.0247 -0.1289
11465W        W28312  16.461   8.991   0.110 -0.1312  0.4200  0.0222
11466W        W28313   9.369   9.807  13.916  0.2342  0.0584 -0.0158
11467W        W28314   6.975  15.015  12.815 -0.1493  0.0277  0.0571
11468W        W28315  11.334   2.677   3.088  0.1544  0.0551  0.2677
11469W        W28316   8.979   7.783  13.549  0.0525  0.4377  0.2642
11470W        W28317  15.490  11.007   3.056  0.1812  0.0821 -0.0627
11471W        W28318   8.889   2.258   3.235 -0.0880  0.3275  0.1278
11472W        W28319   5.615  11.319   1.881 -0.0300 -0.0938  0.1509
11473W        W28320  15.650  12.746  16.090 -0.3716 -0.1724  0.0375
11474W        W28321   7.204  14.653   4.015  0.0342 -0.0214  0.1214
11475W        W28322  12.161   1.181   5.161  0.1709  0.0212  0.4376
11476W        W28323   5.221  17.946   1.997  0.1058  0.1600  0.1862
11477W        W28324  10.596  13.813  13.620 -0.0500 -0.0392  0.2310
11478W        W28325   5.402  15.714   2.109 -0.1373  0.2474 -0.0648
11479W        W28326  16.947   5.559  14.495 -0.1875  0.1058  0.0450
11480W        W28327   1.315   7.051  11.942 -0.2801 -0.2401  0.1920
11481W        W28328   2.943   5.492  15.015  0.2031 -0.1245  0.1230
11482W        W28329   7.826   0.177   6.545 -0.2696 -0.0938  0.0754
11483W        W28330   5.200  16.734  13.524  0.0723 -0.0901 -0.1559
11484W        W28331   7.698  12.537   5.581  0.3660 -0.0133 -0.0779
11485W        W28332  12.259   5.059   2.830 -0.0102  0.1427  0.0228
11486W        W28333  10.833  13.810   0.624  0.0568  0.0605 -0.0736
11487W        W28334   8.083   2.585  12.031 -0.3661  0.0054  0.0174
11488W        W28335   2.077  13.944   4.848 -0.2812 -0.2004  0.2799
11489W        W28336   0.921   6.223  13.733  0.2576 -0.0904  0.3252
11490W        W28337  12.247  15.175  14.517 -0.0497  0.0212  0.1144
11491W        W28338   8.250   5.171   1.707  0.1439  0.0689  0.0069
11492W        W28339   3.869  12.546   3.161  0.1389  0.1847 -0.1937
11493W        W28340   6.708   1.484   1.950  0.2843  0.0633  0.2016
11494W        W28341   8.579   9.697   1.553 -0.4565 -0.0787 -0.1657
11495W        W28342  13.086  14.469   2.566 -0.2218 -0.0048 -0.0488
11496W        W28343  10.052   0.793   2.306  0.1297 -0.1452  0.1943
11497W        W28344  10.863   9.247   1.495 -0.0568  0.1619 -0.0485
11498W        W28345  13.224   1.605  12.744  0.0342 -0.3391 -0.0000
11499W        W28346  11.875   8.281  16.314  0.0050 -0.0339  0.1622
11500W        W28347   1.856   8.711   4.365  0.1435  0.0136 -0.0718
11501W        W28348  11.551  13.865  12.190 -0.0110 -0.3586  0.3296
11502W        W28349   3.061  13.370   2.827  0.2069 -0.0233  0.0457
11503W        W28350   3.682   6.891   0.033  0.4562  0.1582  0.2900
11504W        W28351   6.948  16.787   4.457  0.0142  0.0715  0.0476
11505W        W28352  11.492   4.353  11.620  0.1326  0.1324  0.3004
11506W        W28353  15.254  14.071  14.595 -0.1357  0.1733  0.0753
11507W        W28354   0.165  15.697   0.209  0.0727  0.2513 -0.0301
11508W        W28355  17.342   9.223   0.486  0.0533  0.1674  0.0659
11509W        W28356  18.122   3.835   2.283 -0.1993 -0.2659  0.2854
11510W        W28357   4.738   1.498   3.884  0.0127 -0.0616  0.1758
11511W        W28358  16.284  15.279   4.369  0.2262 -0.0627  0.0857
11512W        W28359   3.893  10.369  16.560 -0.2147 -0.0516 -0.2740
11513W        W28360   7.341   0.776  12.273 -0.0115 -0.1421  0.0615
11514W        W28361  11.157  15.389   3.340  0.0917  0.1055  0.2067
11515W        W28362  17.140  10.452   5.476 -0.0972 -0.1452 -0.0119
11516W        W28363   8.040  12.901   2.158 -0.0235  0.1875  0.0274
11517W        W28364  16.311   1.948   4.706 -0.3821 -0.0486 -0.1658
11518W        W28365   6.156  15.514   1.500 -0.2711 -0.0330 -0.1682
11519W        W28366   3.598  12.666   1.460  0.0266  0.0154  0.1188
11520W        W28367   8.530   3.170   0.610  0.0165  0.0988  0.2976
11521W        W28368   0.807   0.682   4.956  0.0731  0.1829  0.2104
11522W        W28369   6.694  15.434  14.669  0.1002  0.0335  0.1458
11523W        W28370   0.374  11.469  16.218  0.0611 -0.0954  0.1037
11524W        W28371  17.305   5.726   1.353  0.1538  0.0952 -0.0814
11525W        W28372  10.989  14.741   1.717 -0.0863 -0.3165  0.0370
11526W        W28373   5.543   5.076   5.006 -0.1766  0.0030 -0.1310
11527W        W28374  15.698  12.709   3.585  0.0195  0.0091 -0.1691
11528W        W28375   0.472   5.537   4.500 -0.0501 -0.1498 -0.1047
11529W        W28376   5.187   9.091  14.295 -0.0390 -0.0883  0.0984
11530W        W28377   0.539  10.042  15.657 -0.1528  0.2693  0.0198
11531W        W28378   7.410  12.669   1.283 -0.1296  0.1454 -0.1651
11532W        W28379   5.802  12.109  11.806  0.0627 -0.1118  0.0839
11533W        W28380   5.618   5.789   5.472  0.2406 -0.1862 -0.2249
11534W        W28381   5.036   1.178   4.114  0.2471  0.1342 -0.0266
11535W        W28382   6.593   1.728   3.688  0.1886  0.1106 -0.0271
11536W        W28383   8.667  17.289  12.005 -0.0863 -0.0214  0.0281
11537W        W28384   0.482  17.256   5.274 -0.1005 -0.2910  0.2229
11538W        W28385   9.015   8.793  12.314 -0.1514  0.2654 -0.3635
11539W        W28386   2.405  14.620   1.058 -0.0258  0.0649  0.2233
11540W        W28387  10.861   3.739  14.595 -0.2679 -0.2029  0.0650
11541W        W28388  13.199  13.478   3.699 -0.1634 -0.1045  0.1002
11542W        W28389   5.681  18.081   4.258 -0.0063  0.2469 -0.2339
11543W        W28390   4.534   9.686   1.434  0.4667  0.0474 -0.0790
11544W        W28391  12.848   2.860  15.634 -0.0247 -0.1667 -0.0378
11545W        W28392   3.304  12.186   0.733 -0.2227 -0.0702 -0.4786
11546W        W28393  12.175  17.062  15.534  0.0935  0.0427  0.3960
11547W        W28394  12.880  12.284  16.587  0.2567 -0.0374  0.1169
11548W        W28395  10.665  11.751  16.016  0.0951 -0.3602 -0.3109
11549W        W28396   8.128   2.595   3.376  0.2050 -0.3795 -0.0768
11550W        W28397  13.446   7.190  12.892  0.3255 -0.3056 -0.0447
11551W        W28398   6.187   5.984  16.496  0.1691 -0.2711  0.1052
11552W        W28399   8.154   8.998  13.398  0.0452  0.0267 -0.0094
11553W        W28400   0.993  15.261  12.601 -0.1903  0.0518 -0.3689
11554W        W28401  11.099  15.097   4.890  0.4827  0.1370  0.1209
11555W        W28402  12.822  10.171   3.014 -0.0883  0.0377 -0.0189
11556W        W28403   6.199   5.439  15.320 -0.4771  0.1353  0.0224
11557W        W28404   7.205  17.311   1.972  0.0659  0.1743 -0.2844
11558W        W28405   3.269  16.394   3.566 -0.1936  0.0663  0.1132
11559W        W28406   2.821   3.197  12.632 -0.0898 -0.0648 -0.0955
11560W        W28407   4.644  15.496  13.760 -0.1698 -0.0342  0.0025
11561W        W28408   3.438   6.996  12.959 -0.0901  0.1380 -0.0994
11562W        W28409   5.186  13.967   3.315  0.2423  0.0089 -0.0724
11563W        W28410  10.006  15.824  15.279 -0.1708 -0.1447  0.0919
11564W        W28411  10.944   1.777   3.436  0.1596 -0.2154  0.0810
11565W        W28412   0.665   2.198  15.215  0.1300  0.0711  0.0107
11566W        W28413  14.094  14.429   3.624 -0.2896  0.0991  0.3955
11567W        W28414  18.090  12.170  13.800 -0.2531  0.2183 -0.2140
11568W        W28415  13.420   9.646   0.240  0.0129  0.3194 -0.3080
11569W        W28416   5.756  15.630  14.617 -0.2342 -0.0928 -0.1492
11570W        W28417  14.264   1.170  12.844 -0.2315  0.1248 -0.0354
11571W        W28418  17.657  10.377   2.461  0.1715  0.0469 -0.1276
11572W        W28419   4.649  10.833   4.612  0.1315 -0.2862 -0.0749
11573W        W28420   8.231   4.677  13.651 -0.0822 -0.1824 -0.1831
11574W        W28421   3.001   3.414  16.154  0.2712 -0.1826  0.0937
11575W        W28422  15.859  11.526  13.623 -0.0240  0.1112  0.2710
11576W        W28423  16.397  14.853   4.704  0.2765 -0.0761 -0.1186
11577W        W28424  14.547   0.664   0.938  0.0749 -0.0931  0.1254
11578W        W28425  14.922   6.186   4.145 -0.0022  0.0717  0.1785
11579W        W28426   2.885   0.735   1.286  0.1990 -0.0101 -0.0218
11580W        W28427  17.365   9.905  15.932  0.1466 -0.1046  0.0768
11581W        W28428   7.781  12.909  15.757  0.0979  0.3531  0.1500
11582W        W28429  15.616  14.158   2.790  0.1778 -0.1364 -0.3497
11583W        W28430   1.521  14.561   0.713 -0.2859  0.1361 -0.0711
11584W        W28431   6.913   7.599  12.300 -0.0128 -0.0947 -0.0095
11585W        W28432  12.354  11.776  15.887 -0.3099  0.1159  0.2507
11586W        W28433   8.691  17.694  12.744  0.1869 -0.2177  0.2314
11587W        W28434   3.269   0.637   1.541  0.0458 -0.1764 -0.1046
11588W        W28435  11.139  11.329  16.056 -0.4301  0.1533  0.0343
11589W        W28436   0.238  12.242   4.728  0.2771 -0.1017 -0.0199
11590W        W28437   7.412   1.350   6.030  0.1248 -0.1748  0.1273
11591W        W28438   4.320  17.628   4.559  0.1704  0.0802 -0.1167
11592W        W28439   3.023  16.367  11.948  0.1415 -0.0802  0.1554
11593W        W28440  12.606   9.910  15.220 -0.0297  0.0068 -0.1559
11594W        W28441   9.321   5.795  14.820  0.1852  0.0097  0.1991
11595W        W28442   2.779   9.941   2.440  0.0140  0.0126  0.0548
11596W        W28443  17.347   0.516   1.656 -0.1338  0.0045 -0.1542
11597W        W28444  10.930  17.523   3.862 -0.0135  0.1105 -0.3066
11598W        W28445  17.763   2.675   1.474 -0.1766 -0.3131  0.2087
11599W        W28446   4.799  15.198   0.328  0.1393  0.0291  0.2982
11600W        W28447   2.558   5.881   2.340  0.2291  0.0507  0.1354
11601W        W28448   4.663   5.582  14.040 -0.0214  0.0308 -0.0805
11602W        W28449  13.322   5.837   3.171 -0.1949  0.0591 -0.0987
11603W        W28450  14.884  12.966   4.925  0.2636  0.2418 -0.2267
11604W        W28451   8.469   8.197  15.784  0.0846  0.3424  0.0434
11605W        W28452  17.606  14.928   2.752 -0.1499  0.2257  0.1061
11606W        W28453  11.305  10.408  15.606 -0.2614  0.1153 -0.2243
11607W        W28454   8.644   3.658  13.154 -0.1588  0.0409 -0.1392
11608W        W28455   3.656   5.461  15.427  0.0954  0.1235 -0.1336
11609W        W28456  13.214   9.150   1.628 -0.4980  0.2182 -0.1355
11610W        W28457   4.160   0.446   2.358  0.1835 -0.0635 -0.0646
11611W        W28458   1.345  17.481   1.613  0.0557 -0.0505  0.1000
11612W        W28459  16.952  10.631   4.947 -0.0979 -0.0329  0.0947
11613W        W28460   1.938  12.087   3.694  0.4669 -0.1320 -0.1289
11614W        W28461  15.349   0.401   0.300  0.0794  0.3387  0.0815
11615W        W28462   8.299  17.253   3.046 -0.4586  0.2115  0.0941
11616W        W28463  14.902  12.566   4.174  0.1351 -0.2769 -0.0051
11617W        W28464  15.363  10.813  16.000  0.2125 -0.0047 -0.0436
11618W        W28465  17.075  16.726   0.663  0.1087  0.2428  0.3166
11619W        W28466   8.685  10.611   1.264  0.1168  0.2604  0.2931
11620W        W28467  16.650   4.548  15.630  0.1338 -0.0665  0.0829
11621W        W28468  15.632  14.957   0.846  0.2656  0.1003 -0.1198
11622W        W28469   3.525  12.541  14.930 -0.0065  0.2222 -0.1208
11623W        W28470  17.031   3.468   4.369  0.1033 -0.0765 -0.2696
11624W        W28471   7.608  17.988  15.927  0.0870  0.1844  0.2099
11625W        W28472   6.923  11.431  14.374 -0.0237 -0.1591  0.1987
11626W        W28473  12.485  11.902   0.115  0.1394  0.0346  0.2232
11627W        W28474  15.110   5.471   4.665 -0.0067  0.0741  0.0350
11628W        W28475   1.823  16.402  15.401  0.1849 -0.1758  0.1323
11629W        W28476   4.123  11.905  15.810  0.1681  0.0329 -0.0031
11630W        W28477  13.013   9.501   5.261 -0.0147  0.0234 -0.0218
11631W        W28478  14.544   5.694   0.156 -0.2514 -0.0429 -0.5469
11632W        W28479   6.962  15.568   5.236  0.0308  0.1965 -0.0552
11633W        W28480  15.421   8.866  13.745 -0.1180  0.0864  0.0537
11634W        W28481   1.291   2.202  15.627  0.2000  0.1841  0.2354
11635W        W28482  13.663  10.427  12.315 -0.1471 -0.0249  0.0465
11636W        W28483   1.148   0.634   0.507 -0.1119  0.0866 -0.0039
11637W        W28484   6.513  13.997   0.355 -0.0815  0.2971 -0.2167
11638W        W28485  12.475  13.337   4.076  0.0053 -0.3521 -0.4758
11639W        W28486   7.021  12.437   4.510 -0.0419  0.1733 -0.2740
11640W        W28487   6.109   5.015   3.742 -0.3154 -0.4673  0.3225
11641W        W28488   2.477  12.718   0.254 -0.0245 -0.0415 -0.1809
11642W        W28489  10.066   4.395   2.609  0.2097  0.0029 -0.0117
11643W        W28490   3.236   4.426   3.719  0.0551 -0.2048  0.0358
11644W        W28491  14.003  10.746  11.109 -0.2589  0.1268  0.1467
11645W        W28492  13.603   9.638  13.337  0.1191 -0.0005 -0.0681
11646W        W28493   7.252  10.706  15.575 -0.2055  0.0236  0.0243
11647W        W28494   3.615   3.013  15.544 -0.0634  0.0689  0.1776
11648W        W28495   7.626   9.514  13.091 -0.1461 -0.3096  0.1691
11649W        W28496   9.015   2.376  13.718  0.0879 -0.2959 -0.1777
11650W        W28497   1.380   6.986   2.294 -0.1945 -0.2232 -0.1172
11651W        W28498   2.853   5.256   3.564 -0.0915  0.0859  0.1058
11652W        W28499   6.771   2.537  11.544 -0.1751  0.0825 -0.2885
11653W        W28500   3.655  10.363  15.545 -0.2246 -0.4267 -0.3876
11654W        W28501   3.754   0.998   0.805  0.1682 -0.0539  0.1118
11655W        W28502   2.071  13.573  16.429  0.3158 -0.0091 -0.2130
11656W        W28503  14.734   6.398  13.231 -0.0029  0.2679 -0.1764
11657W        W28504  13.531   8.235   3.900  0.0260  0.2239 -0.1982
11658W        W28505   6.788   4.461   2.642  0.0439 -0.0378  0.1134
11659W        W28506   5.328  16.051   3.677  0.0807  0.1915  0.1554
11660W        W28507  14.761  11.295  13.427  0.2115 -0.0111 -0.0913
11661W        W28508  17.389  14.182   1.518 -0.1827 -0.2786 -0.0593
11662W        W28509  10.754  16.781  13.742 -0.3683 -0.1093  0.1106
11663W        W28510   9.275   2.341   2.947 -0.0418  0.1614  0.0472
11664W        W28511   7.819  14.277  12.366  0.1860  0.0411  0.1067
11665W        W28512  10.435   8.841  16.231  0.0096  0.3436 -0.1623
11666W        W28513  16.363   0.529  11.533 -0.0359  0.0094  0.1989
11667W        W28514  17.921   6.982   1.670  0.2342  0.0792 -0.0368
11668W        W28515   7.289   6.940   0.996 -0.0003  0.0421  0.2731
11669W        W28516  14.736   0.824   2.240 -0.2184 -0.2863  0.0813
11670W        W28517  13.040  12.641   5.323  0.3312 -0.1035 -0.0634
11671W        W28518  12.346  14.730   1.540  0.1053  0.1020 -0.0025
11672W        W28519  14.032  18.080  15.455  0.0005 -0.1713  0.1487
11673W        W28520   7.033  10.257   5.772 -0.2999  0.0874 -0.0690
11674W        W28521  15.838  14.522   2.124  0.0577 -0.0204  0.2528
11675W        W28522   8.124  11.243  12.808 -0.3776 -0.0061 -0.0375
11676W        W28523   7.945   8.590   5.410 -0.1613  0.0701 -0.0564
11677W        W28524  17.537   0.934   2.404 -0.0509 -0.0071 -0.2361
11678W        W28525   0.342   0.415  12.130 -0.2280 -0.0092  0.0919
11679W        W28526   9.799  17.407  14.595 -0.2222  0.0413  0.2334
11680W        W28527   8.354   2.654   4.925  0.4258  0.1364 -0.2837
11681W        W28528   0.185  12.060   3.303  0.0116 -0.0457 -0.1704
11682W        W28529  12.179   0.908   4.293  0.0561 -0.1032  0.0436
11683W        W28530   2.714  15.930   5.672  0.2162  0.0777  0.0871
11684W        W28531   9.433  16.548   4.094 -0.1089 -0.2417 -0.2314
11685W        W28532   2.278   8.218  15.202  0.0494  0.0334  0.1328
11686W        W28533  13.836   2.957   2.503  0.5854 -0.3475 -0.1609
11687W        W28534   0.686  11.805   5.547  0.0664 -0.1007  0.0646
11688W        W28535   7.322  13.659  13.907 -0.0113 -0.1598  0.1038
11689W        W28536   4.158   1.050  13.287 -0.0201 -0.1318  0.0923
11690W        W28537   8.986   0.181  14.470 -0.0726 -0.1289  0.2024
11691W        W28538   9.486   8.746   1.939  0.0267  0.0520 -0.1738
11692W        W28539   5.536  12.953   3.457  0.0802 -0.3120  0.0144
11693W        W28540   1.439  14.734  11.890  0.1251 -0.0332  0.0201
11694W        W28541   8.451  15.732   4.425 -0.0984 -0.2335  0.2359
11695W        W28542   3.220   8.079  15.853 -0.1320 -0.1065  0.1083
11696W        W28543   4.377  17.845   0.680 -0.1175 -0.3032 -0.3080
11697W        W28544  16.305   9.576   3.736 -0.1069 -0.2918 -0.0560
11698W        W28545  13.732  11.010   0.286  0.1954  0.1238  0.1702
11699W        W28546   9.271   6.545  14.058 -0.4362  0.0255 -0.0128
11700W        W28547   8.284   0.105  11.652  0.1979  0.2523 -0.3993
11701W        W28548  14.395   1.426   1.531  0.0920 -0.1302  0.3931
11702W        W28549   3.230   9.593   3.716  0.0202 -0.0731  0.2162
11703W        W28550   9.111   4.845  11.331  0.2784  0.1518 -0.1657
11704W        W28551  15.760  17.249   2.419  0.3991 -0.3801 -0.0037
11705W        W28552   3.667  17.629   6.366 -0.0192  0.2402 -0.1875
11706W        W28553  13.043   6.739   2.272 -0.1113  0.1268 -0.0787
11707W        W28554   4.078   7.938  12.771  0.0682 -0.1950 -0.1526
11708W        W28555  14.736   4.800  12.212  0.3426  0.0817  0.1492
11709W        W28556   7.050  11.351  13.407 -0.1134 -0.4354  0.0320
11710W        W28557  13.746   3.653   4.697  0.0810  0.2683 -0.0412
11711W        W28558  10.236  14.792  11.292 -0.3122 -0.1326 -0.0243
11712W        W28559  13.747  14.038   0.122 -0.3634 -0.0104 -0.1342
11713W        W28560  11.337   3.151   2.057 -0.0979  0.1845 -0.0647
11714W        W28561  16.092   6.833   4.725 -0.2918  0.1011 -0.1860
11715W        W28562   0.125   7.062   1.259  0.4983  0.2196  0.2611
11716W        W28563   5.280  16.667  16.336  0.1830  0.4137  0.2052
11717W        W28564   9.674  17.906  14.786  0.1033 -0.0290  0.4262
11718W        W28565   5.849   6.055  14.551  0.0255  0.0931  0.0247
11719W        W28566   8.404  17.411   0.110 -0.0898 -0.2887  0.0012
11720W        W28567   2.128   5.375  15.541 -0.1162  0.1724  0.0447
11721W        W28568  11.003  15.775   4.393 -0.1240  0.2469  0.1058
11722W        W28569  15.386   7.193  12.667  0.3165  0.0277 -0.0467
11723W        W28570  10.817   4.608   2.688  0.0660 -0.2254 -0.1631
11724W        W28571  17.971  12.399  11.730 -0.2500  0.3039  0.0623
11725W        W28572   5.809  11.671   3.640 -0.3023 -0.1967  0.0850
11726W        W28573   7.891  17.601   5.390  0.1485  0.0021 -0.0902
11727W        W28574   1.497  17.048  13.021  0.1699 -0.3098  0.1013
11728W        W28575   8.727  12.446   4.184  0.1347  0.0019  0.0691
11729W        W28576   9.706  12.338  13.656  0.3820 -0.0933 -0.1767
11730W        W28577  16.785   5.899  12.072 -0.1720 -0.0484 -0.1306
11731W        W28578   2.909  12.441  13.864 -0.0258  0.0885  0.0002
11732W        W28579   7.550  11.260   4.081  0.3221 -0.0467  0.3588
11733W        W28580  12.445  13.499  15.694  0.3846 -0.3219 -0.0122
11734W        W28581  15.260  10.727  14.476 -0.1955 -0.1400  0.1627
11735W        W28582   4.237   5.752  11.537  0.1199 -0.2935 -0.2028
11736W        W28583   1.501   2.389  13.837  0.1024  0.1175 -0.2658
11737W        W28584  11.518  16.894   4.843 -0.1331 -0.0872  0.0528
11738W        W28585   4.035   6.550  11.746 -0.2906 -0.0724 -0.0045
11739W        W28586  12.793   1.667   0.470  0.0396 -0.0633 -0.0778
11740W        W28587  15.748  17.128   0.082 -0.1941  0.2068 -0.1990
11741W        W28588   2.644   6.449  14.733  0.1667 -0.2948  0.1151
11742W        W28589   8.126  12.882  15.323  0.4323 -0.0250  0.2549
11743W        W28590  13.530   6.879  11.578 -0.1421  0.2075 -0.0929
11744W        W28591  10.135   8.140  16.445  0.0300 -0.0874  0.0893
11745W        W28592   2.580   9.753  13.083 -0.0123  0.0039 -0.1469
11746W        W28593  11.834  15.061   2.472  0.1470  0.1347 -0.2444
11747W        W28594  14.907   2.860   3.099  0.2254  0.0578  0.0636
11748W        W28595  18.037   5.776   3.156 -0.1066 -0.1002 -0.1558
11749W        W28596   8.943   3.706   2.005 -0.0704 -0.1856  0.0036
11750W        W28597   2.077   3.322   1.067 -0.0329 -0.1547 -0.0825
11751W        W28598   6.582   7.977   0.185  0.1488 -0.0833  0.3589
11752W        W28599   5.932   1.844   4.510 -0.0602 -0.1063 -0.0771
11753W        W28600   3.319   3.546  15.246  0.0353  0.0626 -0.0032
11754W        W28601   3.280   6.837  12.495  0.0709  0.0104  0.0255
11755W        W28602  11.912   5.900   0.721  0.2233 -0.1101 -0.1903
11756W        W28603   1.736  15.347   3.176 -0.1889  0.1384  0.0730
11757W        W28604   8.657   4.495  13.323 -0.0172  0.2035 -0.1032
11758W        W28605   1.411  10.339   2.304  0.0010  0.2553 -0.0609
11759W        W28606   4.921  11.027  16.025 -0.0991  0.2408 -0.0404
11760W        W28607   8.983   3.510  12.225  0.2241 -0.2070  0.0709
11761W        W28608   8.087  13.895   1.193 -0.0257 -0.0320 -0.0276
11762W        W28609  13.923   1.749   5.976 -0.1346 -0.0945  0.1300
11763W        W28610   3.888  15.529  12.612  0.2444  0.1348  0.1713
11764W        W28611  15.132   0.100   5.271  0.0878  0.0062 -0.1335
11765W        W28612   4.263  17.872   0.152  0.2950 -0.1444  0.0748
11766W        W28613   6.973  16.240   2.870 -0.3196  0.2828 -0.1394
11767W        W28614  18.108   0.453   5.384  0.0558  0.1044 -0.6617
11768W        W28615   7.818   7.037   0.207 -0.1935 -0.3064 -0.2356
11769W        W28616  16.103  17.679  16.148 -0.0860 -0.0196  0.2413
11770W        W28617   5.652   5.299   3.728 -0.0876 -0.2398  0.2081
11771W        W28618  10.626   1.549   2.602  0.2281  0.0141  0.1072
11772W        W28619   2.609   0.355   1.237 -0.0973  0.1703 -0.1163
11773W        W28620   3.030   6.404  15.170  0.3618 -0.0194  0.0800
11774W        W28621  13.818   1.473  16.327  0.1083 -0.2384 -0.0081
11775W        W28622  10.508  10.601   5.006 -0.0418  0.0922  0.1759
11776W        W28623   0.622  17.853   3.138  0.0788  0.0848 -0.2480
11777W        W28624   0.892   2.749  13.843  0.0066  0.0759  0.1784
11778W        W28625   9.722  14.581  16.327 -0.0364 -0.0720  0.3232
11779W        W28626   1.325  10.098   4.548  0.2492 -0.2178  0.0593
11780W        W28627  13.506   0.951   4.727 -0.1047 -0.1618  0.1637
11781W        W28628   1.382  12.697   1.922 -0.1068  0.0598  0.0731
11782W        W28629   2.302  13.408  15.265  0.2819 -0.1936  0.0057
11783W        W28630   9.332  12.609  16.009 -0.1924  0.1108 -0.3031
11784W        W28631   3.676   9.953   1.463 -0.1173 -0.4766 -0.0984
11785W        W28632  15.592   5.332  16.477  0.0398 -0.2005 -0.0900
11786W        W28633   0.184   0.919   4.446 -0.1186  0.2042 -0.1249
11787W        W28634  14.171  10.895  12.896  0.2485 -0.2746 -0.0128
11788W        W28635   0.720   8.527  16.559 -0.0350  0.0054  0.0317
11789W        W28636  10.834   4.861   0.684 -0.2871 -0.0239 -0.1702
11790W        W28637   9.068  17.178  15.228  0.0003 -0.4461 -0.2255
11791W        W28638  14.956   2.992  16.289 -0.0727  0.0359  0.0308
11792W        W28639  17.760  17.671  12.466  0.0336 -0.2971 -0.0178
11793W        W28640   3.889   6.275   0.257 -0.3954  0.0502 -0.0459
11794W        W28641   3.041  11.193  14.538  0.2563 -0.3392 -0.1182
11795W        W28642   7.899  13.491  11.828 -0.0815 -0.0921  0.0488
11796W        W28643   7.431   8.430  11.919 -0.1215  0.1776 -0.1894
11797W        W28644   9.942   4.208  16.373  0.3745 -0.0078 -0.1596
11798W        W28645  10.468  14.511  11.659  0.1609  0.1076  0.2864
11799W        W28646  12.703   5.141  16.560 -0.0885  0.0777  0.2495
11800W        W28647   5.579   8.187  15.202 -0.2701 -0.1651  0.1084
11801W        W28648  10.800   4.590   3.200 -0.1610  0.0382  0.0241
11802W        W28649  11.816   0.520  13.199 -0.0383 -0.2417  0.0851
11803W        W28650  14.306   4.456  13.467 -0.2742  0.4293  0.0217
11804W        W28651  11.797   7.683   0.416 -0.1921 -0.1067  0.1884
11805W        W28652   6.402   5.872  12.507  0.1591 -0.3425 -0.0743
11806W        W28653  14.170   2.572  14.134 -0.3299 -0.1090 -0.0450
11807W        W28654   8.054   6.298  12.136  0.0032 -0.0807  0.1068
11808W        W28655  12.618   3.920  11.388 -0.2033 -0.0380  0.1639
11809W        W28656  15.241   6.011   2.475 -0.0889 -0.0567  0.3536
11810W        W28657   9.768   6.732  12.301 -0.1651  0.0327 -0.2220
11811W        W28658  15.540  16.876   3.745  0.2210 -0.3859 -0.2884
11812W        W28659   0.561  18.037  13.448  0.1049 -0.2623  0.0194
11813W        W28660  10.400   1.213   0.838 -0.0613 -0.0697 -0.1081
11814W        W28661   2.924  12.196   2.183 -0.0071  0.2457  0.3432
11815W        W28662  17.585   0.391  12.772 -0.0741 -0.2146 -0.0146
11816W        W28663  12.726   6.988  15.538  0.2887  0.1211  0.3016
11817W        W28664  16.176  14.769  15.232 -0.2921 -0.0056  0.0007
11818W        W28665  10.959  11.769   3.330 -0.1841  0.0570 -0.4153
11819W        W28666  14.011  13.779   4.474 -0.2013 -0.1189  0.0116
11820W        W28667  11.883   1.820  15.214  0.2769  0.0564  0.0462
11821W        W28668   3.724   4.879  13.627  0.1080  0.2465 -0.0029
11822W        W28669   2.537  15.374  14.876 -0.1445  0.0288  0.1946
11823W        W28670  16.554  17.080  14.166 -0.0637  0.0628 -0.0269
11824W        W28671  13.101  16.750   5.891 -0.0299 -0.0634 -0.1773
11825W        W28672   8.705  14.716   5.270 -0.2097  0.2287  0.3319
11826W        W28673   7.501  10.860   2.990 -0.2066 -0.1383  0.4264
11827W        W28674   9.832   9.012   0.158  0.1141 -0.0036  0.0854
11828W        W28675   1.608  17.253  11.265  0.0277 -0.0078  0.0011
11829W        W28676   1.880   6.562   0.426  0.2160 -0.1527 -0.1177
11830W        W28677  12.053   5.967  13.448  0.3415  0.1371  0.0468
11831W        W28678   1.201   4.347   0.837 -0.1838 -0.0705 -0.1662
11832W        W28679  17.619   6.467   4.096 -0.0987 -0.2166 -0.1298
11833W        W28680  13.240  10.158  12.436  0.0034 -0.0277  0.2515
11834W        W28681   4.035   2.463  16.622 -0.3180 -0.0006  0.0433
11835W        W28682   7.468   2.407   3.889  0.0537 -0.0637 -0.0033
11836W        W28683  16.600   0.803   4.388  0.1187  0.0958  0.1065
11837W        W28684   1.652  11.517  12.990 -0.2454 -0.3895  0.2637
11838W        W28685  10.029  15.883  13.433 -0.0223 -0.0626 -0.1974
11839W        W28686  15.935  17.516  13.264  0.1152  0.3536  0.2358
11840W        W28687   0.907  14.625   2.824 -0.1701 -0.1664  0.0093
11841W        W28688  17.051   0.174   2.849  0.3412  0.0836 -0.1155
11842W        W28689  13.460   9.607  14.808  0.0577  0.0102 -0.0197
11843W        W28690   9.312   7.819  14.560  0.3445  0.2254  0.1810
11844W        W28691   5.235   5.188  12.662  0.1762  0.2527  0.0937
11845W        W28692   6.947   4.461   4.923  0.1434  0.0841  0.2307
11846W        W28693  11.774  17.960  15.201  0.1769 -0.0480  0.1241
11847W        W28694   8.297   9.010   2.884  0.0396 -0.1068 -0.0014
11848W        W28695  15.075   6.566   4.588 -0.0104  0.0831 -0.0129
11849W        W28696   2.011  12.312  15.626  0.1499 -0.1383  0.5440
11850W        W28697  12.995   6.932  12.885 -0.1561  0.2047  0.0501
11851W        W28698   7.573   3.818   3.839 -0.0842  0.0302  0.0929
11852W        W28699  18.058  17.527  14.939 -0.1344 -0.1057 -0.2327
11853W        W28700   5.541   1.386   5.501  0.1170 -0.2000  0.0194
11854W        W28701  13.799   8.196  14.301 -0.2972  0.1845  0.1592
11855W        W28702  13.613  13.627   4.130 -0.1255  0.2645 -0.2895
11856W        W28703   1.790   2.313   1.018 -0.1102 -0.1146  0.0502
11857W        W28704   3.811  16.216   2.447  0.1442  0.2006  0.2383
11858W        W28705  12.469   2.462  10.419 -0.1192 -0.2432  0.0821
11859W        W28706   1.034   5.437  13.003  0.1782  0.1099  0.0543
11860W        W28707   3.276   0.711  16.508 -0.1860 -0.2021 -0.2220
11861W        W28708  12.643  17.349   2.896 -0.1736 -0.0547 -0.1322
11862W        W28709   3.398  11.872   5.732 -0.0486  0.1251 -0.0694
11863W        W28710  17.115  16.223   2.475 -0.0197  0.1333 -0.0642
11864W        W28711  12.248   5.521   2.153  0.0416  0.1906 -0.1691
11865W        W28712  13.852   2.238   2.225  0.0341  0.0413  0.5299
11866W        W28713  12.442   5.957  11.959 -0.1636 -0.0063 -0.0664
11867W        W28714  12.821  11.617  12.522 -0.2919  0.0351 -0.0729
11868W        W28715   1.046   4.782   4.669  0.2100  0.1805  0.3460
11869W        W28716  15.904   6.674   2.774 -0.4624 -0.1865 -0.1343
11870W        W28717  14.389  12.536  13.447 -0.0995 -0.0922 -0.2946
11871W        W28718  10.412  11.650   0.787 -0.0536 -0.0834  0.2388
11872W        W28719   7.467  17.704   2.757  0.0088  0.1467 -0.3756
11873W        W28720   3.308   6.449   0.999  0.2128 -0.0320  0.0961
11874W        W28721  18.084  17.491  15.902  0.0215 -0.0423  0.1014
11875W        W28722  12.498   0.850   5.390  0.1813  0.4230  0.1142
11876W        W28723   9.011   7.188  15.296  0.1090 -0.1372 -0.1173
11877W        W28724   0.002  17.074  10.913 -0.0303 -0.0218  0.2652
11878W        W28725   8.260   5.681   1.048 -0.0066  0.1278  0.1776
11879W        W28726  13.193  16.060  11.834  0.0503 -0.3023  0.0238
11880W        W28727  17.589  11.992  15.018  0.1397 -0.0133  0.2137
11881W        W28728   8.300   5.856  13.123 -0.1916 -0.1803  0.1064
11882W        W28729   2.579  12.560   6.573 -0.2266  0.0860  0.2033
11883W        W28730   7.050   1.684  13.869 -0.0062  0.1177 -0.1214
11884W        W28731  14.224   6.052   2.498 -0.0279  0.1080  0.0436
11885W        W28732  17.321   6.074   3.837 -0.1602 -0.2963 -0.0921
11886W        W28733   9.164   7.393  14.824 -0.0273 -0.2766 -0.0638
11887W        W28734   5.841   0.024   4.738 -0.1097  0.0304  0.2646
11888W        W28735   7.325   8.739  15.443 -0.1596 -0.0091  0.0496
11889W        W28736  16.246   2.663  16.084 -0.2066 -0.2590 -0.2211
11890W        W28737   1.120   3.177   4.293 -0.0686  0.2376  0.2446
11891W        W28738  13.342  12.590  13.295  0.2291  0.1754 -0.0448
11892W        W28739   7.650   3.877   3.037 -0.2449 -0.0343 -0.1850
11893W        W28740   1.557  13.606   1.065 -0.1948 -0.4284  0.1154
11894W        W28741  14.523   5.981  12.342 -0.0502  0.0319 -0.0312
11895W        W28742  14.309  12.852  12.112  0.0429 -0.0438 -0.2256
11896W        W28743  14.385  14.561   2.288  0.0588  0.1680 -0.1567
11897W        W28744   3.407   6.040  11.839 -0.1161  0.0340 -0.1073
11898W        W28745   3.525   1.832  12.376  0.1512 -0.0410 -0.1367
11899W        W28746   7.996   0.104   0.195 -0.2727 -0.0583  0.3437
11900W        W28747  12.271   1.016   1.315 -0.0229  0.5097  0.0787
11901W        W28748  16.975   7.113  13.579  0.3591 -0.0820 -0.2745
11902W        W28749   1.660   7.786   5.374  0.0786 -0.0499 -0.1238
11903W        W28750   4.680   2.852   3.487 -0.2559 -0.3231 -0.3146
11904W        W28751   0.205   7.118  14.558 -0.0989  0.1598  0.3781
11905W        W28752  15.949  14.450  15.504  0.0274 -0.1891 -0.0778
11906W        W28753   5.889   3.986   4.378  0.0627 -0.0915 -0.0732
11907W        W28754   9.891  16.913  12.365  0.1790  0.0152  0.0412
11908W        W28755   8.453  14.432   0.147 -0.1571  0.1004  0.2714
11909W        W28756   5.325   3.078  14.200 -0.1085  0.3203 -0.0894
11910W        W28757  11.030   1.844   2.732  0.2116 -0.1397  0.3756
11911W        W28758   9.200  15.249  12.136 -0.1623 -0.0836 -0.2767
11912W        W28759  15.157  15.846  15.478 -0.0284 -0.1245  0.5113
11913W        W28760   2.182   6.510   3.323  0.5941  0.1515  0.0194
11914W        W28761  14.259  14.164  12.324 -0.4899 -0.0825  0.0114
11915W        W28762  12.440  12.262  11.999  0.0941 -0.0391  0.1939
11916W        W28763   2.484  11.660   2.573 -0.2578 -0.2403  0.0445
11917W        W28764  10.977  13.716  14.729 -0.2458 -0.1474  0.0450
11918W        W28765  13.019   1.599  13.250  0.3442 -0.2013  0.1420
11919W        W28766   0.660   9.842   5.148 -0.1928  0.0832  0.1203
11920W        W28767   7.311  13.082  16.037 -0.3305  0.3132 -0.2034
11921W        W28768  17.512   1.111  13.182 -0.2788  0.0939 -0.1525
11922W        W28769  16.310  12.453   0.516  0.0595 -0.0205  0.1282
11923W        W28770   6.857  11.457   4.304 -0.0118  0.2441  0.3711
11924W        W28771   3.517   7.920   4.809 -0.3351 -0.2480  0.1345
11925W        W28772   5.469  12.150  14.740  0.2248 -0.0144 -0.3697
11926W        W28773   6.655   2.100  14.994  0.2592 -0.0296 -0.2179
11927W        W28774  13.780   2.284  14.370  0.1396 -0.1607 -0.1607
11928W        W28775   1.276   6.102   0.864 -0.0094  0.2536 -0.0271
11929W        W28776  10.326   6.385   3.587 -0.2735 -0.0927  0.2675
11930W        W28777  12.120   4.635   2.591 -0.0134  0.0391 -0.1405
11931W        W28778   0.606   4.071   4.675 -0.0902 -0.0123  0.2030
11932W        W28779  14.992   6.529  16.508 -0.0443 -0.0027  0.2290
11933W        W28780  16.415  17.379  13.703 -0.4487  0.2058  0.1652
11934W        W28781   3.548   0.760  12.205 -0.0784 -0.1564 -0.1827
11935W        W28782  14.804  15.915   5.148  0.1672  0.0084 -0.1550
11936W        W28783   6.609  10.554   4.327  0.2670 -0.0609  0.1210
11937W        W28784  18.045  12.323   0.318  0.1386 -0.0014 -0.1535
11938W        W28785   7.032   6.330  14.811 -0.1108  0.0477  0.1547
11939W        W28786   1.610   8.266   4.687 -0.1458 -0.1211  0.2172
11940W        W28787   2.294  16.340   4.359  0.0366  0.1318  0.0514
11941W        W28788   3.936  12.448   4.197  0.1178  0.0042 -0.4429
11942W        W28789  17.956   3.854   0.953 -0.5119 -0.0014 -0.1953
11943W        W28790  15.351   0.422   2.649  0.0508  0.0847  0.2578
11944W        W28791  15.991   0.970   3.841  0.1103  0.1331 -0.1174
11945W        W28792   6.980   6.455   3.333 -0.0765  0.3235  0.3642
11946W        W28793   9.448  14.679   4.288 -0.1848  0.2253  0.2943
11947W        W28794   6.180   4.149   2.126  0.1171 -0.1142 -0.1530
11948W        W28795   0.046  10.010   2.371  0.2815  0.0932 -0.1421
11949W        W28796  15.954  10.005  15.003  0.0902 -0.1012 -0.0002
11950W        W28797  17.039  17.240  15.328 -0.0328 -0.1227 -0.0872
11951W        W28798  10.497  13.483  10.411 -0.1041 -0.1567  0.0924
11952W        W28799   6.377  12.707  13.806  0.0742  0.2462  0.3776
11953W        W28800  18.107  11.259   1.552 -0.4512  0.4144 -0.1746
11954W        W28801  16.472   3.957   2.113  0.1581  0.1236 -0.0958
11955W        W28802   7.553   9.516  16.133  0.1557 -0.0638  0.2485
11956W        W28803  11.604   6.383  15.931  0.0153 -0.0140  0.3159
11957W        W28804  15.106  15.429  12.270  0.2902 -0.0016  0.2761
11958W        W28805   7.833   5.378   1.202  0.2918 -0.0037  0.0287
11959W        W28806   9.739   4.808   5.105 -0.0294  0.2232  0.2839
11960W        W28807  12.607  13.837   5.645  0.3061  0.1988  0.2454
11961W        W28808  17.665   7.946   4.574  0.0996 -0.2560  0.0460
11962W        W28809   9.889  12.514  16.605  0.2121  0.0249 -0.1035
11963W        W28810   8.408  11.887   1.095  0.2094  0.0788  0.0169
11964W        W28811   7.577  13.998  15.288 -0.1513 -0.1422 -0.0374
11965W        W28812   0.621   1.498  14.673 -0.3107 -0.1371 -0.0192
11966W        W28813   2.857   3.425   0.517  0.3377 -0.3365  0.1158
11967W        W28814   2.560   3.691   5.140 -0.2069 -0.2404 -0.0182
11968W        W28815   5.392   3.721   1.632 -0.3001  0.3470 -0.2014
11969W        W28816  13.521  15.376  16.591 -0.0225 -0.0554  0.0132
11970W        W28817   0.752   4.135  13.951 -0.2385  0.0548 -0.1236
11971W        W28818   5.692   2.006   2.573 -0.2926  0.1270  0.0671
11972W        W28819   3.471   1.037   4.062 -0.2658  0.2817  0.1201
11973W        W28820   1.069   0.106  16.259 -0.0984  0.0020  0.1898
11974W        W28821  13.769  16.702  14.636 -0.0275  0.1067 -0.1058
11975W        W28822  14.701   1.722  14.234 -0.0771  0.1080 -0.2019
11976W        W28823  10.155  12.835   2.474 -0.1749 -0.2226  0.1075
11977W        W28824  12.935   7.109   1.599  0.0982 -0.0812 -0.1800
11978W        W28825  17.005   7.510   2.669 -0.1240 -0.0472  0.2445
11979W        W28826  15.888  15.564  13.285  0.2717  0.1076  0.0430
11980W        W28827   0.964   9.952   0.474  0.1274 -0.2806 -0.0569
11981W        W28828   5.026   3.381  13.023  0.1362 -0.0346 -0.2024
11982W        W28829  16.719   5.425  12.769  0.2220 -0.2432 -0.0031
11983W        W28830   9.364  15.450  11.730 -0.1279 -0.1065 -0.1630
11984W        W28831  10.105   6.448  11.962 -0.1736 -0.0284 -0.1282
11985W        W28832  15.031  13.663   0.244  0.2853 -0.3726  0.0875
11986W        W28833   3.364   2.556  15.261  0.0197  0.0732 -0.0008
11987W        W28834   4.564   9.859  12.431 -0.2433 -0.1154  0.4200
11988W        W28835   5.375   9.917  14.653  0.1197 -0.3394  0.0700
11989W        W28836   9.756   8.431   5.277 -0.1150 -0.2819 -0.0211
11990W        W28837   5.953   6.544   1.063  0.0530  0.1260 -0.1530
11991W        W28838  15.038   9.745  15.836 -0.0494  0.0609 -0.2378
11992W        W28839  17.374   4.236   2.978 -0.1223 -0.0539  0.0982
11993W        W28840  16.048   1.153  12.107 -0.1139 -0.0338  0.1204
11994W        W28841   3.398  12.771   1.918 -0.0658  0.1026  0.0793
11995W        W28842  10.184   1.563  14.435 -0.0832 -0.3593  0.0173
11996W        W28843  10.037   0.121   1.672  0.0893 -0.2968 -0.0110
11997W        W28844  17.675  10.529   1.222 -0.2005 -0.0293  0.1176
11998W        W28845  16.589  15.017  12.481  0.0054 -0.0856 -0.1029
11999W        W28846  15.703  14.095   3.828 -0.1562  0.2333 -0.1134
12000W        W28847  15.364  11.429   0.008  0.1115 -0.2441 -0.0545
12001W        W28848   8.809   9.351   4.445  0.4415  0.0815 -0.0455
12002W        W28849   6.615  15.613  12.060 -0.4598 -0.2678  0.0108
12003W        W28850   2.347   6.874   4.783 -0.1368  0.1078 -0.0605
12004W        W28851  13.858  10.435   0.451 -0.1136  0.4266 -0.0371
12005W        W28852   0.729  17.951  11.470 -0.0630  0.1007 -0.0377
12006W        W28853   7.947  10.547   0.647  0.0028 -0.0775  0.2768
12007W        W28854   2.116  12.457   4.622  0.3338  0.3367  0.0604
12008W        W28855  16.264   0.821   1.394  0.1819 -0.0170  0.2051
12009W        W28856  15.637   0.933  12.293  0.1709 -0.3552 -0.0592
12010W        W28857   1.941   9.857   3.707  0.2132 -0.0795 -0.1085
12011W        W28858  10.596   3.961   2.108  0.0424 -0.0042 -0.1464
12012W        W28859  11.096  16.900   4.644 -0.1770  0.2452 -0.1461
12013W        W28860  15.567   9.781  14.742 -0.0530  0.0548  0.0023
12014W        W28861   2.840   0.988   1.754  0.0314  0.4153  0.0493
12015W        W28862   0.036   0.598  16.107  0.0185 -0.0059  0.0781
12016W        W28863   4.785   6.977  10.776  0.0521  0.0018 -0.0212
12017W        W28864   7.225  11.909  14.060  0.0547  0.3697 -0.1286
12018W        W28865  11.978   9.887   4.927 -0.1422  0.0107  0.0062
12019W        W28866  15.670   1.807   2.905  0.3742 -0.0416 -0.0933
12020W        W28867   7.885  17.445   3.963 -0.2456  0.0377  0.0264
12021W        W28868   1.197   9.896   2.333 -0.0685 -0.0747 -0.2320
12022W        W28869  15.482   1.774   0.865 -0.0205 -0.1494  0.0744
12023W        W28870   9.046   7.389  11.822  0.0064  0.2042 -0.1034
12024W        W28871  13.275   7.723  15.218 -0.1131  0.0294 -0.0273
12025W        W28872   8.343  11.535  14.780  0.0818 -0.2640  0.0725
12026W        W28873  12.679  10.145   4.091 -0.1520 -0.0396  0.0161
12027W        W28874  13.598  16.950   5.123  0.0873 -0.1896  0.0790
12028W        W28875  17.034  11.190   0.824  0.3800  0.2073  0.0172
12029W        W28876   1.493  11.750   1.274 -0.0398  0.0832 -0.4537
12030W        W28877  13.707   2.683  16.567 -0.2090 -0.0362 -0.0018
12031W        W28878   6.072  12.447  16.517  0.1729 -0.0507 -0.1040
12032W        W28879   1.020   4.070   1.514 -0.1626  0.1324 -0.2572
12033W        W28880   4.592  10.141  15.084  0.0959  0.2905 -0.0352
12034W        W28881  14.156  10.458   3.179 -0.3012  0.2499 -0.0355
12035W        W28882   1.412  11.013   4.875 -0.3232  0.0090  0.0837
12036W        W28883  15.802   5.216   5.531 -0.0765 -0.0459  0.0207
12037W        W28884  10.863   4.786  12.929 -0.0092 -0.1061  0.0752
12038W        W28885   9.146  15.799  12.352 -0.0572  0.2307 -0.0339
12039W        W28886   6.556   3.135   2.412  0.0464  0.2524 -0.4373
12040W        W28887  17.094   9.737   4.175 -0.1710 -0.0950  0.1402
12041W        W28888  12.933   5.586   4.724 -0.0758 -0.2009  0.1088
12042W        W28889  13.959   2.545  13.362  0.1426  0.0921  0.0285
12043W        W28890  14.119   7.945  15.949 -0.0946 -0.2536 -0.1340
12044W        W28891   4.840   5.485   3.136  0.0055  0.0754  0.2573
12045W        W28892   3.929  14.952  16.486  0.2361  0.1170 -0.0667
12046W        W28893  12.171  12.486   0.843 -0.0647 -0.0096  0.1224
12047W        W28894   8.067  12.700   0.437  0.0056  0.2336 -0.1220
12048W        W28895  13.774   1.974   5.043 -0.0783  0.0122 -0.1231
12049W        W28896  15.228  16.322  16.428  0.0524 -0.0755 -0.1048
12050W        W28897   0.530   8.574   2.518 -0.2802 -0.0987  0.0852
12051W        W28898   3.723  13.712   4.517  0.0489 -0.3784  0.1172
12052W        W28899  16.182   2.960  12.805 -0.0058  0.0301 -0.0209
12053W        W28900  12.510   8.238   2.802 -0.0470  0.2374 -0.1664
12054W        W28901   0.515  14.637   4.213  0.1589 -0.1384 -0.0765
12055W        W28902   3.751   8.651  15.545  0.0635 -0.0553  0.1451
12056W        W28903  14.697  12.009  13.079  0.2355  0.0460 -0.1473
12057W        W28904  14.328  15.507   4.987 -0.2365  0.0609 -0.3498
12058W        W28905  13.560  15.127  15.746 -0.1269 -0.2005 -0.0812
12059W        W28906  14.061  11.465   4.539 -0.2082  0.0442  0.0601
12060W        W28907   5.844  16.887  16.163  0.2937  0.0767  0.3243
12061W        W28908   5.239   9.163   3.211  0.1648 -0.1152  0.0912
12062W        W28909  11.770   0.057  11.414 -0.3146 -0.0097 -0.4597
12063W        W28910   0.435  13.578   6.041  0.2637  0.5719  0.0720
12064W        W28911   5.593   6.772  13.815  0.0912  0.1150 -0.2039
12065W        W28912   5.100   1.152   0.618  0.1200  0.0898 -0.2140
12066W        W28913   0.421   0.987  14.507  0.2049  0.3085 -0.0656
12067W        W28914   5.647  11.595  12.129 -0.1881 -0.0659  0.2345
12068W        W28915  14.322   6.788   1.825 -0.0852 -0.1510 -0.0051
12069W        W28916  10.520   5.738  14.705 -0.0377  0.1948  0.3913
12070W        W28917  14.570  11.211  16.152 -0.1020  0.2916 -0.0164
12071W        W28918  12.227   7.117   1.933 -0.2110 -0.1238 -0.1398
12072W        W28919   2.263  17.751   1.588 -0.0680 -0.2059  0.2576
12073W        W28920   2.465   2.022   3.603 -0.1567 -0.0771 -0.1406
12074W        W28921   1.241  16.389  12.547 -0.2980 -0.1910 -0.0147
12075W        W28922   5.213  17.519  15.843 -0.0945 -0.0747  0.0396
12076W        W28923  11.232  10.736   3.478  0.1587  0.2578 -0.1013
12077W        W28924  11.376   3.608  14.314  0.0368 -0.0888 -0.3860
12078W        W28925   1.229   6.746  11.444 -0.0353 -0.0948  0.1411
12079W        W28926   0.816   3.341  11.644  0.2182 -0.0569 -0.0462
12080W        W28927  13.050   2.860  13.188  0.2236  0.0660 -0.0483
12081W        W28928   3.139  14.127  13.454  0.0546  0.0620  0.4966
12082W        W28929   6.023   3.070   5.210 -0.2457  0.0499  0.4011
12083W        W28930   1.793  10.793   6.578 -0.3943 -0.1134 -0.1528
12084W        W28931  16.039  13.927  12.610 -0.2286 -0.0061  0.0497
12085W        W28932  11.053   5.555   5.083  0.0185  0.3068  0.3419
12086W        W28933   7.378   2.182   3.153 -0.0301  0.2744 -0.0416
12087W        W28934  14.917   3.412  15.887 -0.0994  0.1267  0.1481
12088W        W28935   8.210   6.196   0.049 -0.1003 -0.0936  0.0258
12089W        W28936   2.751  17.192   1.699  0.0463 -0.3336  0.0612
12090W        W28937  11.222   0.115   2.317 -0.1227  0.0683  0.1387
12091W        W28938  14.585  14.961   3.114  0.2573 -0.0324 -0.0987
12092W        W28939  11.546   2.624  14.011 -0.0090 -0.0438 -0.1667
12093W        W28940   7.065  13.501   1.624  0.4186 -0.1539  0.2966
12094W        W28941  15.053   8.130   4.203  0.1295  0.2674  0.0265
12095W        W28942   1.613  13.896  13.289  0.1556 -0.2680 -0.0301
12096W        W28943  16.297  16.590   4.374 -0.0104 -0.2104 -0.1305
12097W        W28944   9.463   2.297  13.673 -0.0150 -0.0014  0.1741
12098W        W28945  15.914  15.922  15.722 -0.1055  0.2143 -0.0270
12099W        W28946   3.137   1.652   4.514 -0.0267 -0.0695 -0.0533
12100W        W28947   7.766  16.075  13.754 -0.2383 -0.0157 -0.2355
12101W        W28948   6.360   4.134   4.172 -0.1876  0.0729 -0.1729
12102W        W28949  14.166  16.017   0.407 -0.0307 -0.0677 -0.1932
12103W        W28950  14.630   7.341   5.532  0.0033 -0.0521  0.1305
12104W        W28951  10.451   2.846   1.592  0.0644  0.1596  0.2792
12105W        W28952   8.208   8.317   0.056  0.0932 -0.0111 -0.2046
12106W        W28953  10.799   7.213  13.660 -0.0592  0.2443  0.1323
12107W        W28954   3.135   1.567   3.979  0.1528 -0.2523  0.0590
12108W        W28955  12.476   3.646   2.695 -0.1070  0.2332  0.4177
12109W        W28956   7.797   2.275  12.919 -0.0226 -0.0625 -0.1636
12110W        W28957   1.195   4.551  15.264  0.1944  0.0155  0.1726
12111W        W28958  15.211  17.290   0.256 -0.0444  0.0387  0.2567
12112W        W28959   8.114  13.934   3.343 -0.0000 -0.2112 -0.0953
12113W        W28960  14.174  10.849   4.974  0.0735  0.1235  0.0155
12114W        W28961   1.266  10.099   3.224 -0.1362 -0.0158 -0.4747
12115W        W28962  15.734  10.630  16.498 -0.2640  0.0459  0.1577
12116W        W28963  13.947  16.261  13.408  0.0461 -0.1357  0.0533
12117W        W28964   5.664  11.778  15.648  0.2654 -0.3461  0.1328
12118W        W28965  14.504  14.078  16.185 -0.2525 -0.0673  0.1749
12119W        W28966  14.239   4.671   4.056  0.0891  0.1025  0.0431
12120W        W28967  15.569   5.859   3.716  0.0222 -0.0804  0.0644
12121W        W28968  11.448  10.351   4.220 -0.1172 -0.1249 -0.3249
12122W        W28969  16.188  16.884   4.904 -0.0420  0.0540  0.0777
12123W        W28970  12.686  11.522   5.536  0.0370  0.2275 -0.1308
12124W        W28971   2.366  12.890   5.375 -0.0681 -0.1862 -0.0664
12125W        W28972   9.652  13.604  14.379 -0.0383  0.1653  0.1700
12126W        W28973   2.780   0.338   4.169  0.0911  0.1334 -0.3043
12127W        W28974  17.838  18.016   1.185 -0.0851  0.0964  0.0313
12128W        W28975   8.363   0.098  15.762  0.0418 -0.0255  0.4331
12129W        W28976   1.467  13.479  13.634  0.1868 -0.0534 -0.0616
12130W        W28977  16.465   8.390   3.672  0.4925  0.2387  0.2468
12131W        W28978   6.411   7.740  12.463  0.0232  0.1531  0.0516
12132W        W28979  17.080   5.847   2.835  0.0170 -0.1674 -0.0115
12133W        W28980   4.497   8.863   3.650 -0.2205  0.0429  0.0152
12134W        W28981  14.051  12.615  16.118  0.1503  0.1145  0.4515
12135W        W28982  12.369  12.557   3.315  0.2298 -0.2015 -0.1367
12136W        W28983  11.724   0.481  14.946  0.0842 -0.0559 -0.3207
12137W        W28984  14.089   6.492  15.118  0.0879 -0.0273 -0.3063
12138W        W28985   8.543   3.574   3.278 -0.2367  0.0710 -0.1314
12139W        W28986  12.069   0.646   5.237  0.1189  0.1273  0.0418
12140W        W28987  13.305  17.493   1.872 -0.3607 -0.2402 -0.0122
12141W        W28988  12.348  16.140   5.561  0.0608 -0.0922  0.5286
12142W        W28989  17.098   8.812   4.088 -0.0640  0.0657 -0.2205
12143W        W28990  16.737   7.610  13.446 -0.0667  0.0672 -0.0026
12144W        W28991  17.565  18.140  12.573  0.2811 -0.1471  0.0994
12145W        W28992   0.864   9.341  13.390  0.0101  0.1911  0.0844
12146W        W28993  14.436   9.218  11.872  0.2561  0.0773  0.0360
12147W        W28994   4.414   7.412   1.517 -0.2127 -0.0133 -0.2900
12148W        W28995   5.531  15.086  14.836  0.1854  0.0677 -0.0137
12149W        W28996  17.986  12.472   5.355  0.1830 -0.2086 -0.0193
12150W        W28997   0.427  14.126  13.819  0.0522 -0.0989  0.1265
12151W        W28998  16.321   3.950  13.998  0.0364 -0.0725  0.1997
12152W        W28999   0.168   4.462   1.444  0.2562  0.1382 -0.0658
12153W        W29000   6.284   5.780  12.008  0.1685  0.2409 -0.2821
12154W        W29001   0.608  15.367   3.757  0.3142 -0.0835 -0.0443
12155W        W29002  13.706  10.801   3.634  0.0302 -0.2190 -0.1618
12156W        W29003  16.168   8.361  13.496 -0.0193  0.1073 -0.0203
12157W        W29004  11.718   3.311   2.328  0.1352  0.1016 -0.1406
12158W        W29005   4.707  18.005   2.702 -0.0883 -0.0119 -0.0848
12159W        W29006  10.786  10.213  13.532 -0.2690  0.0570  0.2416
12160W        W29007   6.391  16.064  15.706  0.0991  0.2056 -0.1876
12161W        W29008   9.148  16.111  11.929 -0.0138  0.1767 -0.2306
12162W        W29009   2.811  12.247   5.323  0.0004  0.1037  0.2602
12163W        W29010   8.789  14.462   0.859 -0.0799 -0.0479  0.1452
12164W        W29011   3.609   9.156   3.589  0.2349 -0.0398 -0.1281
12165W        W29012   6.182  11.205  12.741  0.1908  0.0503  0.2234
12166W        W29013   8.120   5.705  12.678 -0.0056  0.0053  0.2767
12167W        W29014   5.999   9.075  14.711 -0.2474 -0.0945 -0.1035
12168W        W29015   3.115   5.375  14.092  0.1745 -0.2143  0.1671
12169W        W29016  18.076   7.301   0.849  0.0655 -0.0719  0.2087
12170W        W29017   5.958  11.935  12.883 -0.1222  0.2077  0.0351
12171W        W29018   5.285   0.644  14.554  0.2152  0.0212 -0.0445
12172W        W29019  10.430   8.008   0.223 -0.0418  0.0501 -0.0739
12173W        W29020   4.013   5.706   3.833  0.1416  0.0177  0.0430
12174W        W29021   3.786   2.899  11.765 -0.0138  0.0823 -0.1657
12175W        W29022   4.409  16.287   1.869 -0.1670  0.0173  0.1245
12176W        W29023  15.068   6.147  14.069  0.1646 -0.0128 -0.0997
12177W        W29024   4.402   6.672   2.730 -0.1461  0.1273 -0.2543
12178W        W29025   2.518  18.044  13.050 -0.0642  0.2427 -0.0917
12179W        W29026  17.260  17.813   3.450 -0.1007 -0.0589 -0.0986
12180W        W29027   2.847   0.597   0.825 -0.0977  0.1769  0.4501
12181W        W29028  10.697   7.242  12.028  0.0398 -0.1659  0.0527
12182W        W29029  15.428   4.591   1.941  0.2988 -0.0191  0.1719
12183W        W29030   9.393  13.609   4.229  0.0205 -0.0015  0.0809
12184W        W29031   9.962   3.667   3.052 -0.0383 -0.0233 -0.1964
12185W        W29032   1.933   9.891   5.449  0.0655  0.0041 -0.1587
12186W        W29033  10.581  11.643  12.418  0.2092  0.0690  0.1433
12187W        W29034   9.192   0.119  12.862 -0.1502 -0.0405  0.0194
12188W        W29035   5.789  15.937   5.461  0.1487 -0.1857  0.1279
12189W        W29036  11.987   2.313  10.857 -0.3337  0.2958 -0.2916
12190W        W29037  17.091   8.594   5.803  0.4044  0.0262 -0.0810
12191W        W29038  17.262  17.543   0.823 -0.0843  0.2230  0.1467
12192W        W29039  13.175  12.315   1.418  0.2337 -0.1883  0.3340
12193W        W29040   7.509   8.281   2.072  0.0747  0.0378 -0.3347
12194W        W29041   0.136  13.576   3.055 -0.3310  0.0962 -0.1008
12195W        W29042   4.527   3.905  15.497 -0.4788  0.0699 -0.2060
12196W        W29043  15.734  11.050   0.204  0.1874 -0.4695  0.0818
12197W        W29044  16.602   8.364  14.168 -0.4549  0.2241 -0.0406
12198W        W29045   2.528  16.456   1.126  0.2937  0.0698 -0.4070
12199W        W29046   8.218  12.332  14.051  0.0450  0.2393  0.0422
12200W        W29047   2.228  17.311  14.548 -0.0177 -0.1997  0.1232
12201W        W29048  10.095   6.747   0.135 -0.0304  0.1520 -0.2566
12202W        W29049   3.864   7.186  13.741 -0.4085  0.1765  0.3701
12203W        W29050  10.171  15.696   4.990 -0.1285 -0.4091 -0.1399
12204W        W29051   7.008  12.738  14.440 -0.0613  0.0542 -0.0951
12205W        W29052   2.776   4.816  15.739 -0.0394  0.0892  0.0809
12206W        W29053   9.370  16.279   1.092  0.1978 -0.2076  0.1084
12207W        W29054   5.126  17.974  13.471 -0.2864  0.0132  0.4246
12208W        W29055  13.469  11.741   2.820  0.0645 -0.1352 -0.2201
12209W        W29056  11.741  10.504  15.834  0.2711 -0.1889  0.1947
12210W        W29057  10.371  17.928   3.779  0.1447  0.0660  0.1031
12211W        W29058   7.942  10.659  15.000  0.0626  0.0141 -0.1560
12212W        W29059   4.654   9.307  16.456 -0.2467 -0.0531  0.0683
12213W        W29060   9.514  14.627  15.287 -0.0532 -0.0155 -0.0155
12214W        W29061  17.366   0.669   3.843  0.2184 -0.0506 -0.1572
12215W        W29062  12.261   3.792  11.763 -0.2017  0.0929 -0.0124
12216W        W29063  10.831   3.674   1.222  0.1288 -0.3248 -0.2362
12217W        W29064   1.342   7.056  16.009  0.2178 -0.0170  0.2417
12218W        W29065  15.242   1.952  13.563  0.1911 -0.0970 -0.1434
12219W        W29066  11.173   6.687   4.777 -0.1525 -0.1346 -0.1930
12220W        W29067   6.071  10.738   2.502 -0.1838 -0.0875 -0.0075
12221W        W29068  12.935   9.785   2.737  0.0688  0.3526 -0.1022
12222W        W29069  12.848  10.802  14.933  0.2388 -0.0380  0.1403
12223W        W29070   8.735  17.739  11.765 -0.1632  0.0928 -0.1670
12224W        W29071   9.929   4.373   3.433 -0.1818  0.2680  0.0231
12225W        W29072  17.970  13.223  12.207 -0.0907  0.0529  0.0900
12226W        W29073  10.741   0.376  13.048  0.1620  0.3004  0.0622
12227W        W29074  13.929   8.080   4.592 -0.0120 -0.2591  0.0298
12228W        W29075  16.516  16.584  15.962 -0.2238 -0.0532  0.2442
12229W        W29076   2.122  15.117   4.009  0.4360 -0.0874 -0.2601
12230W        W29077   6.681  13.529   3.385 -0.0630 -0.0271 -0.1856
12231W        W29078   9.701  17.712   4.318 -0.1216  0.3848 -0.0698
12232W        W29079  10.492   6.856   3.979  0.2884 -0.1613  0.0042
12233W        W29080   7.772   3.302  14.025 -0.0507 -0.0208 -0.0192
12234W        W29081   4.249  11.547  15.542 -0.0365 -0.1123 -0.0244
12235W        W29082  11.066  11.797  16.443 -0.0512  0.1810 -0.1012
12236W        W29083  11.543  11.297   4.994 -0.0045  0.0479  0.0936
12237W        W29084   6.904  16.018   0.284  0.2821 -0.0502  0.2892
12238W        W29085  17.025   1.976   1.579  0.0984  0.1942  0.1703
12239W        W29086  17.333   8.031   2.670  0.2139 -0.0134  0.3248
12240W        W29087   2.302  17.618  13.160  0.1248 -0.1174  0.3075
12241W        W29088  10.886  14.941   2.544  0.2654 -0.3792 -0.0616
12242W        W29089   1.372  10.429   4.124 -0.0386  0.0264  0.1460
12243W        W29090  13.359   8.275  15.488 -0.0768 -0.1205 -0.0348
12244W        W29091  10.916  16.987   0.109  0.1408  0.1251  0.0218
12245W        W29092   3.563   8.064  13.963 -0.0207 -0.2855  0.0874
12246W        W29093   0.550   0.820  11.838 -0.2926 -0.1098 -0.0811
12247W        W29094  13.136  14.914  15.032 -0.2997 -0.2558 -0.2849
12248W        W29095   3.829   0.514  11.751 -0.3071 -0.0843  0.0109
12249W        W29096   7.481   8.444  14.663 -0.1125 -0.1119  0.3024
12250W        W29097  11.501   9.771   5.103 -0.3288  0.2873 -0.0989
12251W        W29098  10.719   3.021  12.180  0.0833  0.2413  0.0747
12252W        W29099   5.662   7.978  12.601  0.2494  0.2789  0.2696
12253W        W29100  15.324   9.559  11.489 -0.0407  0.0263 -0.0383
12254W        W29101   6.250  14.141  15.754  0.0273 -0.1443  0.0539
12255W        W29102  14.845   3.441  15.381 -0.2438  0.0803  0.0066
12256W        W29103  10.990   8.243  14.502  0.3058 -0.0071 -0.2121
12257W        W29104  16.715  12.078  15.374  0.2256 -0.0066 -0.0535
12258W        W29105  18.013  16.161  11.868  0.0561  0.2730  0.0389
12259W        W29106   5.311   0.870   4.709  0.0901  0.0071  0.2211
12260W        W29107  12.662  16.403  11.474 -0.3424  0.4615 -0.0470
12261W        W29108  14.549  16.351  16.167  0.2623  0.0463  0.1568
12262W        W29109   7.207   5.997   5.325  0.2010  0.0027 -0.1334
12263W        W29110  17.088   4.718  11.755 -0.0438  0.0321 -0.3092
12264W        W29111   4.843  14.685   3.892  0.1489 -0.2989 -0.2056
12265W        W29112  16.943   3.792   0.157  0.0289  0.1166  0.0145
12266W        W29113   7.333   2.090  13.936  0.0641 -0.0243 -0.0751
12267W        W29114   6.255   1.394  13.273 -0.4123  0.3232  0.0472
12268W        W29115   0.291   9.251   4.385 -0.3138  0.2630  0.4146
12269W        W29116  18.080   2.822  16.363 -0.0951  0.1803 -0.0340
12270W        W29117  17.157   1.644   0.637  0.2258  0.1011  0.0736
12271W        W29118  16.581   1.858  12.267 -0.1477  0.1283 -0.2861
12272W        W29119  10.545  11.455   3.154 -0.0994  0.1451  0.0029
12273W        W29120   1.023  17.883   2.193  0.0473  0.0647  0.2253
12274W        W29121  14.116  14.304   1.853 -0.1002  0.0054 -0.1244
12275W        W29122  14.061   2.764   2.990 -0.3422 -0.0374  0.1414
12276W        W29123  12.951   8.870  12.498  0.0600  0.0167  0.1783
12277W        W29124   7.508  12.330   5.173 -0.3626 -0.2294 -0.2282
12278W        W29125  10.464  10.068  15.651 -0.1330 -0.2479  0.0455
12279W        W29126  10.756   7.523  15.971  0.4069 -0.1041 -0.0116
12280W        W29127   3.516   3.461   4.795  0.0923  0.4720 -0.1035
12281W        W29128   8.222   9.543  15.500 -0.0632  0.3208  0.1954
12282W        W29129   5.081  12.918   2.450 -0.3798 -0.0950  0.2091
12283W        W29130   8.252   6.662   0.324  0.2026 -0.0468 -0.5216
12284W        W29131   9.658  14.692   0.517 -0.0749 -0.0700  0.2104
12285W        W29132   7.566  17.398   3.324 -0.0764  0.2037 -0.1936
12286W        W29133  16.122  10.753  13.390  0.2466 -0.0398 -0.1324
12287W        W29134   8.889   6.859  16.214 -0.1012 -0.2793  0.0334
12288W        W29135  11.296   6.591   2.640  0.0527  0.2801 -0.1725
12289W        W29136   9.085   1.559   1.557 -0.1401 -0.0410 -0.0504
12290W        W29137   8.839  11.719  14.618  0.1485  0.0794 -0.1597
12291W        W29138  16.478   1.811  10.910  0.0835  0.0119  0.0201
12292W        W29139  17.078   4.519  12.336  0.1709  0.1378  0.4665
12293W        W29140   2.936   6.166   2.261 -0.0731 -0.2545 -0.2693
12294W        W29141   9.555   5.285  15.413  0.1141  0.2077 -0.1075
12295W        W29142   6.264   9.849  14.851 -0.2878 -0.1207  0.0929
12296W        W29143  11.048  16.452  11.968 -0.0700  0.1731 -0.0732
12297W        W29144   1.644   0.429  14.482 -0.0475  0.0385 -0.0431
12298W        W29145  17.494   3.370   3.602  0.2673  0.4446  0.1442
12299W        W29146  15.222  16.417   2.595  0.0506 -0.1371 -0.0783
12300W        W29147   8.453   2.633  11.659  0.3686 -0.0237 -0.0852
12301W        W29148   9.072   8.438  15.636 -0.1766  0.2097 -0.1086
12302W        W29149  14.575  15.645   3.766 -0.0676  0.0731  0.0503
12303W        W29150   0.727  14.709   4.954  0.3968  0.2624  0.1181
12304W        W29151  17.416  14.671   3.632  0.1985  0.3437  0.1034
12305W        W29152   9.694  12.537   2.790 -0.0461  0.0827  0.0019
12306W        W29153  10.835  15.838   3.079 -0.2035  0.0529 -0.0183
12307W        W29154   0.634  11.108  14.479 -0.2146 -0.2385 -0.1298
12308W        W29155   3.192   9.660   2.163 -0.0099 -0.0183  0.1153
12309W        W29156   0.299  14.631  14.396 -0.1812 -0.1052  0.3410
12310W        W29157   5.637   6.255   5.406  0.2990 -0.2591 -0.0744
12311W        W29158   2.052  17.281   2.344 -0.0092  0.0024  0.0223
12312W        W29159   4.256   5.208   1.034  0.1495 -0.1278 -0.0968
12313W        W29160  10.451   2.646  15.824  0.1386  0.2685  0.2448
12314W        W29161  11.519   5.782   1.431  0.0474 -0.2535  0.1019
12315W        W29162   5.949   8.948   4.386  0.0449 -0.2139  0.0122
12316W        W29163  16.492   3.630   4.779  0.1902 -0.1358 -0.0572
12317W        W29164   6.870   8.167   0.618  0.0917 -0.4773  0.0719
12318W        W29165   0.376   3.455  11.337  0.1185 -0.3001 -0.2563
12319W        W29166   0.110   1.455  13.921 -0.1771 -0.3874 -0.2490
12320W        W29167  12.081  16.782   4.023  0.2183 -0.0134  0.1356
12321W        W29168   6.851   6.056  12.602 -0.0423 -0.3575  0.0709
12322W        W29169   1.126   7.487  13.742 -0.1944 -0.0312 -0.1333
12323W        W29170  13.053   4.263   0.952  0.2235  0.0292  0.1071
12324W        W29171   0.461  17.912   1.376 -0.3643 -0.4023 -0.0121
12325W        W29172  10.720   4.367  15.415  0.1361  0.0642 -0.1955
12326W        W29173   8.510  14.175  15.727  0.0775 -0.0703 -0.2132
12327W        W29174   9.121   5.523  15.289  0.0298 -0.0404 -0.6985
12328W        W29175   0.224   3.929   5.231  0.1255 -0.0231 -0.0564
12329W        W29176  10.251  10.927  16.421  0.0181  0.3577  0.0177
12330W        W29177   5.632  17.854  13.716  0.0722 -0.2292  0.1095
12331W        W29178  15.902  16.528  13.525 -0.1628  0.1311  0.1411
12332W        W29179   8.213  13.144   1.308 -0.2665  0.2339  0.2004
12333W        W29180   8.516   7.627   1.957  0.0417  0.1318 -0.0467
12334W        W29181  15.780   5.017   1.185 -0.0889 -0.0128 -0.0386
12335W        W29182   5.240  10.630   3.022  0.1931  0.0259  0.0657
12336W        W29183  16.201  11.925  12.110 -0.0751 -0.0304 -0.2002
12337W        W29184  12.545  17.386  15.281  0.1385 -0.0272  0.1572
12338W        W29185   6.753   9.379  16.530 -0.1985  0.4483  0.4851
12339W        W29186   7.167   4.024  15.314  0.1657 -0.0659 -0.5544
12340W        W29187  15.783  13.308  11.460 -0.2159 -0.1450 -0.1100
12341W        W29188   7.027  15.253   0.670 -0.2051 -0.0327  0.0090
12342W        W29189  16.011   1.267  16.595 -0.3794 -0.0404  0.4184
12343W        W29190  14.434   8.025   4.652  0.0055 -0.1312  0.0132
12344W        W29191   7.312  10.329  13.428 -0.0851  0.0739 -0.0544
12345W        W29192  17.617  16.916   1.856  0.1347 -0.0766 -0.1556
12346W        W29193  14.278   4.764  16.124 -0.0341 -0.2914  0.0076
12347W        W29194   7.305   0.109  14.251  0.0217 -0.1645  0.1971
12348W        W29195   6.228   6.366   2.450  0.1256 -0.0560  0.2809
12349W        W29196   7.301  11.256   1.666 -0.1129 -0.0990 -0.2306
12350W        W29197  15.242  15.911  16.011  0.2596  0.1699  0.1963
12351W        W29198   2.284  13.951  16.224  0.2984 -0.2174  0.1427
12352W        W29199   1.732   8.242   0.652  0.0231 -0.0918  0.0349
12353W        W29200   9.733  11.237   0.904  0.1027 -0.3732 -0.2185
12354W        W29201  10.857   5.084   2.355  0.2909 -0.2609  0.0537
12355W        W29202   9.517  16.689   2.255 -0.3728 -0.0328 -0.3299
12356W        W29203   0.076   4.305   2.923  0.0360 -0.2766  0.1610
12357W        W29204   7.581  14.270   3.135  0.3343  0.0553  0.0377
12358W        W29205   0.328  13.130   4.844 -0.2366 -0.2878  0.1561
12359W        W29206   3.112   9.594  13.982  0.1530 -0.3051  0.0899
12360W        W29207   8.529   1.712  14.035  0.0299  0.0085 -0.3145
12361W        W29208   1.502  17.221  12.139 -0.1133 -0.0473 -0.1639
12362W        W29209  10.953  17.566   2.111  0.0307  0.0133 -0.2268
12363W        W29210  12.626  16.143   1.120  0.1194 -0.0160  0.0169
12364W        W29211   8.029   3.911   4.145 -0.3951  0.3032 -0.2653
12365W        W29212   9.461   9.522   0.810  0.0670  0.1283 -0.0689
12366W        W29213  18.044  15.649  11.751  0.2038  0.0991  0.2188
12367W        W29214  17.115  14.953  12.559 -0.0084  0.0371  0.3251
12368W        W29215   9.871   6.585  12.929 -0.2000  0.1101  0.0020
12369W        W29216  12.441  11.483  16.457 -0.2840 -0.0190 -0.2353
12370W        W29217   8.113   3.934   4.678 -0.1456  0.1254  0.1577
12371W        W29218  17.481   1.338   0.379 -0.0402  0.1001 -0.2282
12372W        W29219   2.383   5.177   3.544  0.0445 -0.2324  0.4095
12373W        W29220  11.342  12.237  14.435  0.0041  0.1558  0.0727
12374W        W29221   3.538   5.099  13.205 -0.0109  0.1282 -0.1287
12375W        W29222   9.928   4.363   5.196  0.0278  0.3471 -0.2321
12376W        W29223   9.330  16.731   5.583  0.2710 -0.1927 -0.0589
12377W        W29224   1.054   6.055   2.494 -0.2079  0.1428  0.0706
12378W        W29225   5.602  15.435  13.580 -0.1781  0.0892 -0.0293
12379W        W29226   3.263  13.471  14.692 -0.0904 -0.0852 -0.0922
12380W        W29227  15.713   1.287   3.078  0.0584 -0.0803  0.1020
12381W        W29228   1.276   6.735   1.712 -0.1574  0.1067  0.1108
12382W        W29229   0.899  14.756   4.488 -0.0321  0.2872 -0.0355
12383W        W29230  10.459  14.596   3.148  0.1508 -0.0357  0.1510
12384W        W29231  17.072   3.274  14.503  0.0078 -0.2169  0.0385
12385W        W29232   4.226   2.494  14.856  0.2264  0.1006  0.2214
12386W        W29233   2.026   4.826  15.345  0.0817 -0.1127  0.0950
12387W        W29234   1.254   0.576   2.567  0.2688  0.4300  0.1647
12388W        W29235   0.904  15.165  16.297  0.0049  0.1229 -0.1412
12389W        W29236  10.426   1.759  14.821 -0.1704 -0.1767  0.2065
12390W        W29237  11.846  14.119   4.829  0.0185 -0.1067 -0.3073
12391W        W29238  10.405  15.533   4.553  0.1121 -0.2242 -0.0759
12392W        W29239   6.189  12.558   1.177 -0.1278  0.1045  0.3072
12393W        W29240  11.882   4.482   1.598 -0.0943 -0.5049  0.1935
12394W        W29241  10.727   3.974  15.043 -0.0467 -0.1876 -0.3611
12395W        W29242  13.567   8.578   0.306 -0.0709  0.1040 -0.0965
12396W        W29243   0.687  14.457  13.382  0.5005 -0.0576 -0.2930
12397W        W29244  13.377   8.029  16.046  0.3764 -0.0908  0.0709
12398W        W29245   4.628  13.791   4.068 -0.0271 -0.0501  0.0022
12399W        W29246   3.575  11.447   5.857  0.3025  0.3665 -0.1600
12400W        W29247  11.218  13.191   5.507 -0.0433  0.1076  0.0681
12401W        W29248  16.025  13.987  16.489 -0.1105  0.3382 -0.0539
12402W        W29249   4.964  17.770   1.152  0.1393 -0.0747 -0.3121
12403W        W29250   6.588   0.963  13.240  0.2318  0.2520 -0.0400
12404W        W29251  18.022  17.022  15.828  0.3940 -0.2710  0.3220
12405W        W29252   0.644  13.713   2.478 -0.2571 -0.1694  0.0912
12406W        W29253  16.261   0.856   4.802  0.2872 -0.0407  0.2187
12407W        W29254  13.519   6.442   2.330  0.3844 -0.3018 -0.1171
12408W        W29255  13.924   3.855  14.564  0.1084  0.0135 -0.1160
12409W        W29256  11.816   7.597   2.776 -0.0344  0.0120  0.1010
12410W        W29257  12.051  10.791  14.482 -0.0496 -0.1072  0.0260
12411W        W29258   5.025  13.763   3.767  0.1522 -0.2490  0.0615
12412W        W29259   0.309  14.627  15.340 -0.1446  0.2144 -0.2728
12413W        W29260   0.085   4.789   4.137  0.1104 -0.2082  0.1286
12414W        W29261  12.721   5.954  12.761 -0.4842  0.1563  0.0954
12415W        W29262   1.170   9.416   0.437  0.2426  0.2513  0.2465
12416W        W29263   5.780   1.828   2.107  0.0002  0.0552 -0.0388
12417W        W29264   1.946  14.040   3.831 -0.3393 -0.1415  0.1890
12418W        W29265  16.195  12.180   3.778  0.1301 -0.1376  0.3205
12419W        W29266   2.078   3.235   2.903  0.1809  0.0595 -0.1691
12420W        W29267  15.596  11.628   1.917  0.1029  0.1058  0.2471
12421W        W29268  16.269   7.457   4.753 -0.2475  0.4247 -0.1931
12422W        W29269  15.334   0.089  15.352  0.2704  0.1086 -0.0160
12423W        W29270   8.157  12.354  16.260 -0.1527 -0.1249  0.2428
12424W        W29271  15.588   6.126   2.121 -0.3052 -0.2549  0.0426
12425W        W29272  16.987   1.564   3.584  0.0593 -0.0399 -0.0732
12426W        W29273   1.120   7.198   3.266 -0.0218  0.2062 -0.1148
12427W        W29274  16.738  12.160   0.354 -0.0632  0.1318 -0.1375
12428W        W29275   0.405   7.724   2.730 -0.1605 -0.0404  0.0411
12429W        W29276   5.847   3.919   1.422  0.2389  0.1215  0.2044
12430W        W29277  11.220  10.283  13.902  0.5397  0.0575 -0.1326
12431W        W29278  15.127   3.739   4.386 -0.0673  0.2318 -0.2244
12432W        W29279  14.851   4.342  15.582  0.0056 -0.1149 -0.2674
12433W        W29280  17.297  17.174  16.554 -0.0060  0.1560  0.1182
12434W        W29281   2.028   0.375  14.105 -0.2180 -0.1938  0.3172
12435W        W29282  17.790   3.101   3.262  0.1414  0.3648 -0.1027
12436W        W29283   5.117   7.421  14.790  0.0229 -0.3171  0.2971
12437W        W29284  12.166  11.246  14.405  0.0213  0.0123 -0.1091
12438W        W29285  13.754   8.593   1.197  0.1851  0.2820 -0.2907
12439W        W29286   3.125   4.163  12.612  0.1296 -0.1219  0.0510
12440W        W29287   8.739   6.922   4.475 -0.0884  0.4056 -0.0048
12441W        W29288  15.529   6.606   1.464  0.0818 -0.0223  0.0950
12442W        W29289  14.606  14.507   1.802  0.0923 -0.1745  0.0186
12443W        W29290  12.006  16.003  12.472  0.0155 -0.0260 -0.0347
12444W        W29291  11.690   0.727   6.023 -0.0285 -0.0120  0.3765
12445W        W29292  16.680   4.864   0.456  0.3584 -0.0778  0.1097
12446W        W29293  18.112  13.103   0.046  0.2700  0.4325  0.1468
12447W        W29294  17.586   8.320  11.871  0.1930  0.1234 -0.0269
12448W        W29295  18.080   7.069  13.036 -0.1126  0.1988  0.2246
12449W        W29296   3.869  10.203   5.116  0.3204 -0.4161  0.4504
12450W        W29297   2.139   5.676  13.162 -0.0080  0.0823 -0.0096
12451W        W29298  15.970  12.192   5.109  0.1686 -0.0449 -0.0440
12452W        W29299   7.189  12.576  12.341  0.2340 -0.1206  0.1474
12453W        W29300   4.416   5.505   2.325  0.2900 -0.3226 -0.2133
12454W        W29301  15.361   9.306   1.320  0.0384  0.1924 -0.0342
12455W        W29302   4.798  10.001  14.661  0.1022 -0.2423 -0.0165
12456W        W29303  15.927   2.024   2.381 -0.1128 -0.0293  0.1452
12457W        W29304   9.660   1.315  11.713  0.0555  0.1398  0.1384
12458W        W29305   0.223  15.906   5.921 -0.2253 -0.1918  0.1680
12459W        W29306   9.735   8.911   1.020  0.0521 -0.1876 -0.0914
12460W        W29307   3.379   1.372  13.553 -0.1635 -0.0193  0.2346
12461W        W29308   0.188   9.092   0.366  0.0945  0.1410  0.2890
12462W        W29309   3.942  14.290   4.092  0.3912  0.1752  0.1541
12463W        W29310   8.506  14.022   2.686 -0.0909  0.0955  0.4249
12464W        W29311   9.633   9.105   4.838 -0.0579  0.0023  0.0863
12465W        W29312   3.902   8.776  16.524 -0.1561  0.1253 -0.2337
12466W        W29313  14.360   9.287  11.197 -0.2647  0.1514  0.2650
12467W        W29314   9.875  14.633  14.391  0.2555 -0.2074 -0.0365
12468W        W29315   9.633  12.443   1.887  0.1890 -0.0973 -0.1010
12469W        W29316  11.735  16.962  13.226 -0.1800  0.0895 -0.1128
12470W        W29317   0.523  15.059  13.539 -0.2940  0.0578  0.6224
12471W        W29318   9.497  16.239   4.797  0.2896  0.2922  0.0104
12472W        W29319   4.617   4.999  12.263  0.1071 -0.0446 -0.3398
12473W        W29320   1.575   3.144   2.441 -0.1147  0.0895 -0.2045
12474W        W29321   9.251  11.789   5.116  0.3112  0.0431 -0.2284
12475W        W29322   2.716   3.303  15.352 -0.5058  0.2147 -0.0942
12476W        W29323  13.089   7.863  12.966 -0.0795  0.0084 -0.1510
12477W        W29324  13.106  12.168  11.998 -0.1503 -0.2100  0.0767
12478W        W29325  10.573   1.503   1.913  0.0007  0.0369  0.0848
12479W        W29326   7.671  10.424   2.777  0.1666  0.1818  0.2026
12480W        W29327  11.726   1.019  15.752  0.1851  0.1135  0.0370
12481W        W29328   7.061  18.026   2.588 -0.0622 -0.1630  0.1235
12482W        W29329  15.565   7.813   0.671  0.0851 -0.1366 -0.0499
12483W        W29330   0.184   8.229   3.515 -0.2115 -0.1754  0.0110
12484W        W29331  11.425  10.466   1.278 -0.0986  0.1693 -0.0056
12485W        W29332   6.302   9.818  13.071  0.0631 -0.0230  0.1533
12486W        W29333   6.386  13.028  15.543  0.3337 -0.2753  0.0888
12487W        W29334  15.676   1.805   3.759 -0.0015  0.1014 -0.2744
12488W        W29335  15.979   3.887  12.728 -0.1900  0.2263  0.0375
12489W        W29336   3.988   8.741   3.532 -0.0400  0.1432 -0.0580
12490W        W29337   2.700   9.468   5.708 -0.3648 -0.0222 -0.0107
12491W        W29338  10.613   1.119  12.037 -0.0884 -0.0037 -0.4553
12492W        W29339   1.960  15.371   2.698  0.0383 -0.1744  0.2360
12493W        W29340  15.936   4.335   4.353 -0.0937 -0.1217 -0.1795
12494W        W29341   4.978   4.472   2.040  0.1427 -0.2162  0.3187
12495W        W29342   5.351   7.163   1.598 -0.3010 -0.1141  0.2235
12496W        W29343   3.911   3.339  12.760 -0.0660 -0.0643  0.0055
12497W        W29344   6.643   8.756   3.582  0.0867 -0.1525  0.0046
12498W        W29345   4.053   8.066  14.730  0.3971  0.3979  0.1823
12499W        W29346   0.753  12.292  13.570  0.2947  0.4706 -0.1682
12500W        W29347   1.025   1.122   2.989 -0.1763 -0.1210 -0.1807
12501W        W29348   0.704  16.612   4.763 -0.2439  0.2810 -0.0322
12502W        W29349   7.030   1.891   3.545  0.3147 -0.0828  0.0522
12503W        W29350  12.811   4.307  11.161  0.0166 -0.0978  0.0143
12504W        W29351  15.360  16.195   2.147 -0.0310 -0.0135 -0.0807
12505W        W29352   8.349   5.135  14.066 -0.0196 -0.1120  0.0191
12506W        W29353  12.668  18.027  14.875  0.1975  0.1539 -0.1121
12507W        W29354  10.024  16.731   2.176 -0.0389 -0.0893  0.0078
12508W        W29355  16.279  12.398  15.270  0.4282  0.3690  0.2533
12509W        W29356   6.494   2.520  13.347 -0.0519  0.3245  0.3638
12510W        W29357   6.052   6.632   1.987 -0.1789  0.2030 -0.0471
12511W        W29358  11.929  12.619   3.505  0.0792 -0.3340 -0.1749
12512W        W29359  16.300  12.883  12.160  0.2800 -0.2071 -0.0907
12513W        W29360   9.413   0.623   2.404  0.2830 -0.3368 -0.0317
12514W        W29361   0.283   3.300  14.148  0.0713  0.0058  0.1340
12515W        W29362  11.721  13.391  16.125  0.1244  0.1968 -0.1156
12516W        W29363   5.883  10.031  12.851  0.2869  0.0063  0.2388
12517W        W29364   0.160  12.938   1.549  0.0509  0.1738  0.3081
12518W        W29365   0.217   0.315   1.228  0.1766 -0.2281  0.0223
12519W        W29366   3.027  17.578   5.527 -0.0713  0.0291 -0.2363
12520W        W29367   0.169   8.137   4.065  0.1012  0.0367  0.1060
12521W        W29368   3.524  12.819   4.268 -0.2071 -0.3830  0.0929
12522W        W29369   6.579   0.751  11.905  0.2746 -0.1878  0.0285
12523W        W29370  12.312  11.649   1.485  0.0186  0.1891  0.0057
12524W        W29371  10.939  11.563   2.206  0.1613  0.3055  0.2763
12525W        W29372  15.026   6.254   2.954 -0.0556  0.1175 -0.2265
12526W        W29373   6.655  10.598   2.687 -0.1167 -0.2169 -0.0943
12527W        W29374   4.387   5.128   4.406 -0.0972  0.1314 -0.4622
12528W        W29375   1.357   5.455  14.020  0.0909  0.4332  0.0623
12529W        W29376   3.552  17.934  15.574  0.0634 -0.1275  0.3354
12530W        W29377   4.675   6.497  15.138 -0.0121 -0.2324  0.2514
12531W        W29378   4.641   4.445  16.610  0.1116  0.2577  0.1330
12532W        W29379  17.434  13.013   0.525  0.1655  0.1278 -0.0470
12533W        W29380  15.354   2.861  15.101 -0.0075  0.0148  0.3651
12534W        W29381   4.706   6.789   3.748 -0.0724  0.0246  0.1133
12535W        W29382  12.938   9.631   3.258 -0.0791  0.3060 -0.0053
12536W        W29383   3.098  11.321  11.591  0.1116  0.1652 -0.1211
12537W        W29384  11.623   1.951   5.318  0.1490 -0.1181 -0.1879
12538W        W29385   9.193  15.898   3.747  0.0591 -0.0289 -0.2109
12539W        W29386  15.006   1.621   4.953 -0.3599  0.0472  0.0155
12540W        W29387   1.828   3.932  15.205 -0.2969  0.0431 -0.0106
12541W        W29388  12.743  10.798   4.410  0.0236  0.1553 -0.1318
12542W        W29389   3.150  12.311   5.729 -0.1942 -0.3648  0.0285
12543W        W29390   4.179   7.534  13.108 -0.2317  0.0499 -0.1427
12544W        W29391  14.021  12.651   0.271  0.0295  0.0673 -0.2145
12545W        W29392   2.690   7.105   6.125 -0.3635  0.2671  0.3689
12546W        W29393   6.982  16.438  11.636  0.2170  0.1274 -0.3441
12547W        W29394   3.954   7.758  15.372 -0.2136 -0.1163 -0.1832
12548W        W29395   0.680  16.984   3.686 -0.0298  0.0048  0.0924
12549W        W29396  16.401  13.762   5.652  0.1103  0.2180 -0.0515
12550W        W29397   0.779   8.590   1.850  0.2614  0.0873 -0.1817
12551W        W29398   1.979   0.491   1.393  0.1308  0.1981  0.1097
12552W        W29399   3.808   9.349  12.073 -0.1010  0.0398  0.2420
12553W        W29400  14.815   2.057  12.566 -0.1897  0.2126  0.0958
12554W        W29401  15.039  14.531  15.355 -0.1056 -0.2148 -0.0350
12555W        W29402  16.884  10.118  11.506 -0.1561  0.0356  0.0895
12556W        W29403   0.919  17.685  13.430 -0.5025 -0.0468  0.0691
12557W        W29404  11.546  12.346   2.698  0.0460 -0.1907 -0.3318
12558W        W29405  16.836  10.238   2.463 -0.2575  0.1709  0.1502
12559W        W29406  17.790   6.319  12.114 -0.3922  0.5008  0.1696
12560W        W29407  11.700   0.668   3.013  0.2527  0.0536 -0.0663
12561W        W29408  10.505   7.433   4.703 -0.0696 -0.2336  0.0004
12562W        W29409  16.423  15.721   0.500  0.2583 -0.1830  0.3264
12563W        W29410   8.580   3.049  14.080  0.0077 -0.1468 -0.0708
12564W        W29411  12.195  13.607   3.726 -0.0473  0.0892 -0.2364
12565W        W29412   0.053   1.425  12.149  0.2121  0.2126 -0.2142
12566W        W29413   6.964   3.084   1.235  0.0076  0.6047  0.0580
12567W        W29414   9.303  13.266  16.553 -0.3459 -0.1300 -0.1059
12568W        W29415  12.797   3.768   1.107  0.2495  0.1162 -0.1332
12569W        W29416   5.618  13.130   0.479 -0.1654  0.0098 -0.2517
12570W        W29417   6.964   2.033  13.500  0.4037 -0.2553 -0.3700
12571W        W29418  12.414  15.713   4.847  0.5146 -0.1726 -0.1020
12572W        W29419   0.039  13.811  13.051 -0.1445  0.2623 -0.0008
12573W        W29420  11.190   4.174  16.263 -0.0938  0.0555 -0.3364
12574W        W29421  11.629   4.805   2.381  0.0684  0.0894  0.1470
12575W        W29422  13.836   7.634  14.325  0.1263  0.1808  0.0981
12576W        W29423  12.540   5.480  11.880  0.0966  0.3066 -0.0037
12577W        W29424  13.880   7.985   4.120  0.1808 -0.1144 -0.0417
12578W        W29425  16.088   1.246   3.416  0.0364 -0.0398  0.3772
12579W        W29426  15.664   7.437  13.042 -0.3114  0.0399 -0.3026
12580W        W29427  10.133  15.314  15.231 -0.0409  0.3518  0.0310
12581W        W29428  13.049   9.403   0.449 -0.2225  0.2610 -0.0232
12582W        W29429   8.041   3.541  14.921 -0.1908 -0.0701  0.0564
12583W        W29430   0.192  16.167  14.705  0.0269  0.4056  0.3411
12584W        W29431  13.939  18.069   2.942  0.0376 -0.1034  0.0711
12585W        W29432  14.535  10.065   5.094 -0.0597 -0.0321  0.1050
12586W        W29433   9.899  11.325  16.533 -0.1582  0.1890 -0.0653
12587W        W29434   2.913   6.141   4.809 -0.2025 -0.0760 -0.0671
12588W        W29435   4.558  10.412   5.468  0.1449 -0.0004 -0.0682
12589W        W29436   0.374   5.064   0.649 -0.0232  0.0536 -0.1197
12590W        W29437   6.812   0.465  13.195  0.1569  0.3693  0.0794
12591W        W29438   9.119  15.037   2.477  0.1580  0.0039  0.0843
12592W        W29439  17.903   2.622   3.059 -0.0608  0.0195  0.0315
12593W        W29440  13.365   8.314  11.743  0.0370  0.4092  0.0416
12594W        W29441  11.264   2.323   5.140  0.0213  0.1133  0.0601
12595W        W29442   9.181   7.850   4.873  0.0473 -0.0091  0.0958
12596W        W29443   3.686  15.013   3.914  0.0857 -0.2535 -0.1878
12597W        W29444  11.144   4.211   2.629  0.0879 -0.1543 -0.0108
12598W        W29445  14.794  17.664   5.017  0.1179  0.0272 -0.2080
12599W        W29446  10.210  12.695   2.933 -0.1386 -0.4141  0.1404
12600W        W29447  15.250  11.689  13.929  0.4718  0.2484 -0.4190
12601W        W29448  15.770  10.351   2.500 -0.0274 -0.2541 -0.2056
12602W        W29449   7.903  10.030   3.583  0.4266 -0.0767 -0.0952
12603W        W29450  12.023  11.349   5.025  0.3244 -0.3863  0.2673
12604W        W29451  18.090   9.322   0.814 -0.1682 -0.1193  0.0532
12605W        W29452   0.843  13.002   1.169  0.2408  0.2655  0.0394
12606W        W29453   9.108   3.956  13.931  0.2059  0.1087 -0.0046
12607W        W29454   2.363   5.553  13.579  0.1777  0.0985  0.3089
12608W        W29455   1.009  10.584   0.760 -0.0175  0.0878  0.0687
12609W        W29456  11.792   0.913  13.505  0.0470 -0.0328  0.0716
12610W        W29457  14.981  11.687  12.444  0.1976 -0.0545  0.0678
12611W        W29458   5.430  10.630  15.521  0.2252  0.0529  0.2998
12612W        W29459  18.122   1.655  15.285  0.1159 -0.3831  0.0597
12613W        W29460  17.115  17.325  16.124 -0.4835 -0.0176 -0.0738
12614W        W29461  10.309   7.252  14.144  0.0249 -0.0092 -0.0339
12615W        W29462  12.296  10.602   3.674 -0.2473 -0.1364  0.0661
12616W        W29463   4.337  16.122  15.051  0.0466  0.0867  0.0581
12617W        W29464  12.822   7.508   2.113 -0.0609 -0.0632  0.2648
12618W        W29465  10.478  11.927   6.178 -0.0074 -0.0102  0.1294
12619W        W29466   2.078   0.702   0.450  0.1103  0.2289  0.3557
12620W        W29467  17.490  11.203  16.306  0.0657 -0.0780  0.0726
12621W        W29468  16.239  11.831   4.611 -0.0630  0.0459  0.3216
12622W        W29469   3.786   6.657   0.574 -0.2019 -0.1700  0.0869
12623W        W29470   1.739   1.680  12.624  0.1388 -0.0922 -0.1826
12624W        W29471   6.480   9.739  12.308 -0.0655  0.1557  0.1342
12625W        W29472  10.981   4.788  15.258 -0.1588  0.2484 -0.1635
12626W        W29473   9.918   4.252   5.705  0.1681 -0.1589 -0.1214
12627W        W29474   7.751   9.090  12.507 -0.2933 -0.0914 -0.1902
12628W        W29475  17.084  16.890   4.341  0.3908 -0.0169  0.2035
12629W        W29476  18.084   9.766   4.561  0.4579 -0.1824  0.0950
12630W        W29477   8.450  10.540  14.648  0.2285 -0.1690 -0.3290
12631W        W29478   9.862  15.131   1.265  0.2118  0.0170 -0.0075
12632W        W29479   5.207  15.497   0.345  0.0352  0.0165 -0.2260
12633W        W29480   4.325  17.292  12.875 -0.1282  0.0047 -0.0511
12634W        W29481   8.794  11.241  11.729  0.0854 -0.1737 -0.1674
12635W        W29482   1.591   3.951   1.587  0.0538  0.0359 -0.1764
12636W        W29483   6.917   8.853  15.719 -0.3380 -0.0119 -0.3581
12637W        W29484  11.975  11.670  16.195 -0.0156  0.0427  0.1195
12638W        W29485  13.837   0.772   1.643 -0.0607  0.0424  0.1553
12639W        W29486   2.281   3.681   3.989 -0.0343 -0.1630 -0.0869
12640W        W29487   3.941   3.754   5.371  0.0094 -0.0264 -0.3049
12641W        W29488  11.555   4.238   1.185  0.1787  0.0712  0.1972
12642W        W29489  12.207  12.589  15.359 -0.2635 -0.1100  0.0051
12643W        W29490   2.654   8.277  15.922 -0.2481  0.1522 -0.0750
12644W        W29491   6.878  10.708  16.467 -0.1948  0.0554  0.2073
12645W        W29492   7.464   8.957   3.041  0.0328 -0.2570  0.3272
12646W        W29493   6.917   2.552  13.689 -0.0689  0.1732  0.1894
12647W        W29494   1.768   0.629  13.440  0.1066  0.0749  0.0778
12648W        W29495   4.030   8.228   3.139  0.0306  0.0717 -0.3752
12649W        W29496   2.448   0.121  12.616 -0.0116 -0.4463  0.2057
12650W        W29497  14.614   4.665   3.689  0.1941 -0.0330  0.1349
12651W        W29498   3.988   6.538  15.717 -0.2950  0.0552 -0.0534
12652W        W29499   1.547  11.532   0.407 -0.0273 -0.1594 -0.0244
12653W        W29500   6.692   1.643   6.304 -0.0246  0.0805 -0.1130
12654W        W29501  16.559   1.518   3.386  0.1323  0.1887  0.0631
12655W        W29502  15.832  13.488  12.717 -0.2436  0.0475 -0.2075
12656W        W29503   5.940   2.413  12.682  0.2374  0.1776 -0.0746
12657W        W29504   9.956   0.986  11.268 -0.2420  0.1917 -0.1592
12658W        W29505  16.592   3.084  12.493 -0.1603  0.0007 -0.0553
12659W        W29506  10.440   9.288  13.122 -0.0954  0.1956 -0.1968
12660W        W29507   8.362  10.073   4.769 -0.0084  0.2096  0.0225
12661W        W29508   1.720  13.404  14.605 -0.1786 -0.0720 -0.0070
12662W        W29509  10.118  10.985   0.674 -0.0497 -0.0648 -0.0056
12663W        W29510  13.144   9.385  13.280  0.0637 -0.0609  0.1428
12664W        W29511   5.471   4.114   0.031 -0.0926 -0.1824 -0.2789
12665W        W29512   1.723  17.534  11.699 -0.1155  0.3595  0.0500
12666W        W29513   9.869   2.841   4.160  0.1057 -0.1583 -0.1175
12667W        W29514   5.442   1.821   5.231 -0.2408 -0.1503 -0.0718
12668W        W29515   3.211   0.604   4.114  0.0831  0.0605  0.0119
12669W        W29516   0.920   8.793   5.148 -0.0932  0.4179  0.0804
12670W        W29517   8.920  13.436   0.814  0.1899  0.0861 -0.0156
12671W        W29518  10.277   1.729   2.324  0.3109  0.1200 -0.0851
12672W        W29519  14.713   9.284  16.035  0.0139 -0.1843  0.1951
12673W        W29520   9.758   3.858   4.702 -0.0014  0.0503  0.0087
12674W        W29521  13.397   2.022   4.026  0.1118  0.0910 -0.0719
12675W        W29522   2.899   4.093   2.845 -0.1057 -0.0654  0.0787
12676W        W29523   6.295   1.414   5.135  0.0876  0.0106 -0.0613
12677W        W29524   8.139   6.245   3.782  0.2927  0.0900  0.0673
12678W        W29525   1.995   1.421   3.031 -0.2191  0.1507 -0.1069
12679W        W29526   7.310  17.270   4.335  0.1844  0.0738  0.1653
12680W        W29527  17.013  11.170   4.079  0.1935  0.0338  0.0825
12681W        W29528  10.825  15.741  13.047  0.3733 -0.1437  0.3698
12682W        W29529   7.411   0.828  14.963  0.1841 -0.0030  0.1386
12683W        W29530  13.324   9.960   3.179  0.0288 -0.2471  0.0549
12684W        W29531  16.075   5.865   1.099 -0.0292  0.1283  0.2457
12685W        W29532   3.336   9.244   2.402 -0.1342 -0.0090  0.2733
12686W        W29533  14.224   2.616  15.149  0.4156  0.0487 -0.0635
12687W        W29534   9.738  13.522   3.115 -0.2374  0.3109 -0.0765
12688W        W29535   9.753   3.807   4.017 -0.0250  0.0411  0.1359
12689W        W29536   3.380  16.526   0.254  0.0548 -0.2264 -0.0260
12690W        W29537   0.389  13.286   0.036 -0.0253 -0.3683 -0.0215
12691W        W29538   8.235  13.135   3.572  0.3308 -0.1330 -0.0086
12692W        W29539   0.060  11.256   3.943  0.0742 -0.1320  0.0376
12693W        W29540   7.316   3.672  11.878  0.2265  0.2174  0.0039
12694W        W29541  16.523  11.365  14.720 -0.2910  0.1818 -0.0937
12695W        W29542   3.041  15.836   4.286  0.0579  0.2742  0.0953
12696W        W29543   2.275   1.893  14.900  0.1667  0.2323  0.0387
12697W        W29544   6.646   5.776   5.311 -0.1603 -0.0251  0.0489
12698W        W29545   5.364  14.759   4.203  0.0800  0.2359  0.2256
12699W        W29546  16.456  13.372  12.116 -0.0718  0.1288  0.2237
12700W        W29547  11.332  17.851   2.192 -0.2062 -0.0223 -0.1236
12701W        W29548   8.115  17.290  15.538 -0.2912 -0.2243  0.2602
12702W        W29549  12.542   9.263  15.723 -0.0344 -0.0779  0.1452
12703W        W29550  12.768  13.991   1.382  0.0040  0.1256 -0.2996
12704W        W29551   0.932   9.606   0.947  0.1005  0.3249  0.1549
12705W        W29552   5.060   3.950  14.154 -0.1282 -0.0505  0.3531
12706W        W29553   3.622  16.119   0.488 -0.1828 -0.1175 -0.0766
12707W        W29554  15.506   2.032  15.344  0.0982 -0.1802  0.1601
12708W        W29555   7.880  17.938   2.240  0.0746 -0.0843 -0.1627
12709W        W29556  14.653  15.750   4.264  0.0431  0.0545  0.1380
12710W        W29557  14.309   7.833  14.381 -0.0223  0.0306 -0.2094
12711W        W29558  10.192   6.824  13.808  0.1146  0.0188  0.1633
12712W        W29559   9.836  17.794  14.227  0.0733  0.2587 -0.1637
12713W        W29560  11.030  12.840  11.810 -0.0007  0.1811  0.0842
12714W        W29561   0.567   6.879  14.863  0.0824 -0.0831 -0.2806
12715W        W29562  12.587   1.854   3.560 -0.0079 -0.2590  0.1697
12716W        W29563  10.447  12.553  15.549  0.1721 -0.3595  0.1764
12717W        W29564  10.486   9.008   5.072 -0.0275  0.0086 -0.2988
12718W        W29565   8.031  13.504   4.445 -0.1986 -0.1079 -0.0106
12719W        W29566  15.114   1.018  12.785 -0.1953 -0.0392  0.0424
12720W        W29567  12.991   3.065   0.696  0.0753  0.0953  0.0517
12721W        W29568  11.053  16.130  11.449 -0.0848 -0.2135 -0.0433
12722W        W29569   8.859   2.215  16.556  0.2788  0.1426 -0.0301
12723W        W29570   2.838   2.883  13.643 -0.3770  0.2574  0.0225
12724W        W29571   9.655   6.434   2.150  0.0998  0.0075 -0.2218
12725W        W29572   6.785   8.596   4.566  0.0968 -0.1182  0.2503
12726W        W29573   8.963   0.857   1.515  0.1692 -0.2402  0.0695
12727W        W29574   6.839   2.874   1.770  0.1247 -0.1255  0.0649
12728W        W29575  12.646  15.411   3.511  0.0555  0.0613 -0.0503
12729W        W29576   9.797  10.030  14.001 -0.0916  0.0907 -0.0494
12730W        W29577   4.966  14.679  14.654 -0.1681 -0.2819 -0.1330
12731W        W29578   3.892   2.544   1.104  0.0931  0.2532 -0.3809
12732W        W29579   4.812  17.014  11.578 -0.0457 -0.0306  0.0393
12733W        W29580  10.929   1.375   3.055 -0.1336  0.2839  0.1708
12734W        W29581   0.929   8.322  14.766 -0.1399  0.2168  0.1135
12735W        W29582   7.434   7.017   4.649  0.2185 -0.0095 -0.0321
12736W        W29583   5.235  14.256  12.007  0.2955  0.1326  0.0983
12737W        W29584  12.173   0.839  12.788 -0.1036  0.0336  0.0257
12738W        W29585   1.725   7.530   1.819 -0.0093  0.1057 -0.0433
12739W        W29586   9.814  15.395   4.855  0.1915  0.0800 -0.1320
12740W        W29587   0.907  13.827   5.291  0.1594  0.0111 -0.0457
12741W        W29588   2.065   2.390   2.702  0.2886 -0.2767  0.0431
12742W        W29589   9.971   6.766  11.096 -0.0776  0.2090 -0.0145
12743W        W29590   0.980  16.019  16.417 -0.1356 -0.1994  0.1186
12744W        W29591   0.318  17.603  13.579 -0.1935  0.0075  0.0112
12745W        W29592   1.588   5.166  16.488 -0.0617  0.0170 -0.0255
12746W        W29593   1.374  17.355   4.720 -0.0726 -0.0644  0.1736
12747W        W29594  16.821  16.814  14.692  0.2533  0.0136 -0.1198
12748W        W29595  12.463   4.934   4.193 -0.4028  0.2377  0.1511
12749W        W29596   9.380  11.454  12.167  0.0552  0.2381  0.0366
12750W        W29597  10.484  14.677   0.816  0.1716  0.1471 -0.3546
12751W        W29598   9.108   9.181  13.759 -0.0917  0.2341  0.0810
12752W        W29599  15.146  12.147   4.383 -0.0247 -0.0100  0.1819
12753W        W29600   6.999   4.037   2.405  0.0480 -0.1155  0.1447
12754W        W29601   6.830  16.015   4.774 -0.2201 -0.2128 -0.0072
12755W        W29602   7.878   5.251   3.162 -0.1872  0.1684  0.0120
12756W        W29603   8.885   9.983   5.647  0.1184  0.1007 -0.2331
12757W        W29604   9.901  16.749   2.656 -0.1852 -0.0503  0.0375
12758W        W29605   0.383   8.532   3.160  0.0285 -0.1600 -0.1635
12759W        W29606  17.726  17.047  13.212 -0.0208  0.0186  0.0689
12760W        W29607   1.571   7.675  12.525  0.1411 -0.0588  0.1120
12761W        W29608   3.116   8.164   4.745 -0.0284  0.1405  0.2166
12762W        W29609  16.532   3.907  11.997 -0.0749  0.2372  0.0516
12763W        W29610  10.696   5.801   3.254  0.3163 -0.0942 -0.0583
12764W        W29611  10.862   3.545  13.265 -0.0104  0.0172  0.0022
12765W        W29612  11.052   9.018  11.913 -0.1619  0.1081  0.2417
12766W        W29613  17.743  10.038   4.850 -0.1137  0.0367  0.2356
12767W        W29614  15.591  15.671   0.321 -0.0321  0.2747 -0.1681
12768W        W29615  15.520  17.366  11.585 -0.1555  0.0238  0.1293
12769W        W29616  15.103   5.979  16.546  0.1705  0.0152 -0.0717
12770W        W29617   0.514  11.092  15.360  0.0620 -0.3038  0.0731
12771W        W29618  16.029  17.316  11.865  0.0449 -0.0896  0.2440
12772W        W29619  16.492  11.665  15.522 -0.1279 -0.2141  0.0379
12773W        W29620   1.550   7.911  15.911  0.1676 -0.2229 -0.5576
12774W        W29621  11.632  13.237   2.989 -0.1369 -0.1364 -0.0012
12775W        W29622   0.932   4.723   5.162  0.4272 -0.1322  0.1472
12776W        W29623   5.097   5.386   0.905 -0.3275  0.1988  0.1333
12777W        W29624   2.869   5.774   4.409  0.0961  0.1753 -0.0389
12778W        W29625  13.097   1.133   1.972  0.1148  0.1754 -0.1664
12779W        W29626   7.109   9.201  15.391 -0.0796 -0.1624  0.2151
12780W        W29627  12.714  10.069  14.700  0.1640  0.0078 -0.0589
12781W        W29628  14.243   9.052  13.764 -0.0908 -0.3157  0.0089
12782W        W29629   1.832   9.864  16.399  0.0099 -0.2117 -0.0132
12783W        W29630   4.239  13.539  13.518 -0.2571  0.0860 -0.0698
12784W        W29631  14.099   5.992   3.289  0.0451  0.0485  0.1278
12785W        W29632  12.634  12.479  12.581 -0.2891 -0.2753  0.1359
12786W        W29633   6.643   7.436   3.515 -0.0861 -0.1961 -0.1383
12787W        W29634   3.718  10.831  14.758 -0.1031  0.0554  0.2288
12788W        W29635  14.489  15.539   3.148 -0.4545 -0.2662  0.3483
12789W        W29636   6.162   8.767  12.301 -0.2292 -0.2694  0.0046
12790W        W29637   4.306   2.074   0.302 -0.1152  0.2609  0.2115
12791W        W29638  16.434  12.263  13.328 -0.0436  0.0962 -0.4795
12792W        W29639  15.401  12.440   4.701  0.2511 -0.1420  0.0225
12793W        W29640   3.246   9.276  16.291  0.1354 -0.1379  0.2294
12794W        W29641  16.561   8.794  14.588 -0.0983 -0.1246  0.0945
12795W        W29642   0.587  12.815  13.737 -0.2085 -0.0595 -0.2192
12796W        W29643  14.193   5.601  12.549 -0.0331  0.1373  0.2148
12797W        W29644   3.449   2.299  12.523 -0.0369  0.1234 -0.0459
12798W        W29645  17.738   4.989   3.853  0.0182 -0.0280 -0.2510
12799W        W29646  16.585  16.678  12.865  0.2792  0.0761 -0.1015
12800W        W29647   1.150   8.498   3.615  0.1392  0.1802 -0.0769
12801W        W29648   6.284   1.745  12.921  0.1161 -0.1354  0.0703
12802W        W29649  16.074  11.682  13.063 -0.2591 -0.0259 -0.1667
12803W        W29650   8.579  14.835   4.211  0.0798  0.0023 -0.0931
12804W        W29651  15.300   0.047   0.697 -0.0251 -0.0639 -0.2804
12805W        W29652   7.660   2.247   5.677 -0.1405  0.0475  0.1107
12806W        W29653   1.544  12.101   1.697  0.0896 -0.0413  0.1619
12807W        W29654  14.180   3.963  15.143 -0.0161  0.2253 -0.2033
12808W        W29655   3.821  14.897   4.782  0.4328  0.1564 -0.0210
12809W        W29656   0.772  16.373  10.845  0.0373  0.0576 -0.1413
12810W        W29657   7.424  15.730  13.626  0.1277  0.2883 -0.1550
12811W        W29658  12.518   2.570  14.272 -0.4102 -0.1631 -0.1346
12812W        W29659  15.086  12.207   0.523 -0.1718  0.0347 -0.0347
12813W        W29660  13.960  12.988  15.814  0.4579  0.3794 -0.3013
12814W        W29661  16.855   2.968  16.574 -0.0389 -0.0370  0.0278
12815W        W29662   2.859  17.614   0.125  0.0672  0.1483  0.0641
12816W        W29663   0.058  10.732   4.179 -0.1600 -0.1691 -0.0824
12817W        W29664  10.018   7.512  15.164  0.1487  0.1228  0.0579
12818W        W29665  11.275   9.092  14.705  0.0196  0.2791  0.0041
12819W        W29666   3.109  10.591  12.686  0.1592 -0.0617 -0.2166
12820W        W29667   9.233  13.354   1.783 -0.0554 -0.1987 -0.0257
12821W        W29668  16.684   0.429  15.028  0.0009  0.2537 -0.0397
12822W        W29669  17.321  16.847  15.291 -0.1698  0.2387  0.0497
12823W        W29670   9.663  17.984   2.320 -0.0470  0.2299  0.2858
12824W        W29671   8.886  10.997  16.601  0.5285 -0.0652  0.1897
12825W        W29672   1.426   1.401   3.674 -0.0448 -0.0481 -0.1040
12826W        W29673   0.621  18.035   1.907  0.3012 -0.0492 -0.4807
12827W        W29674  17.044   1.462   1.608  0.1669  0.0184 -0.2159
12828W        W29675  15.045  10.382   4.467  0.0947 -0.1180  0.1365
12829W        W29676   1.193  15.780  12.091  0.0456  0.0426 -0.0685
12830W        W29677  18.003  15.736  13.138  0.1097 -0.1805  0.0792
12831W        W29678   4.224   6.735  13.757 -0.0638  0.0636 -0.1362
12832W        W29679  14.879  14.916  14.928  0.0327  0.2849 -0.0036
12833W        W29680   6.492  10.628  15.799  0.1483 -0.1058  0.2569
12834W        W29681   9.070   4.444  14.266  0.0988 -0.1509  0.0398
12835W        W29682  16.146  15.237   1.642 -0.0981  0.0423  0.2696
12836W        W29683  14.193   8.780   3.880  0.3094  0.0277 -0.0458
12837W        W29684  17.535   5.840  16.500 -0.0313  0.2717  0.0159
12838W        W29685   3.857  13.861   5.556 -0.2760  0.0488 -0.2557
12839W        W29686  11.961  15.197   3.442 -0.3442 -0.1137 -0.1005
12840W        W29687  10.175   5.644  13.009  0.0469 -0.2796 -0.2069
12841W        W29688   7.221  16.087  12.428  0.1632 -0.1908 -0.0486
12842W        W29689   5.160  11.523   3.467  0.1390 -0.2372  0.2191
12843W        W29690   5.663   0.566   1.566 -0.1474  0.3768  0.2745
12844W        W29691   0.179   7.010  12.492 -0.1314  0.1941 -0.0097
12845W        W29692   0.198  10.242  16.581  0.0702  0.0129  0.1308
12846W        W29693  15.471   1.015  16.476  0.0200 -0.1082  0.0718
12847W        W29694  14.006  14.877  12.804  0.2700  0.1465 -0.1358
12848W        W29695  15.944  16.239   1.490  0.2630 -0.1768  0.0729
12849W        W29696  15.423   8.068  16.137  0.1817 -0.1844  0.1266
12850W        W29697   9.463  10.046   3.990 -0.0414 -0.0603  0.2767
12851W        W29698  10.564   6.044  12.975  0.0784  0.1866  0.1024
12852W        W29699   3.621   1.383   5.725 -0.2103 -0.2326 -0.3370
12853W        W29700  14.314   1.636  16.244  0.1163 -0.0718  0.0994
12854W        W29701   9.117   7.026   3.619  0.0842  0.0466  0.0432
12855W        W29702   7.417   0.975  16.148 -0.1871  0.1744 -0.1761
12856W        W29703   0.671   6.282  13.129 -0.1876  0.1762 -0.3671
12857W        W29704  10.955  12.726   3.575  0.0802 -0.2519  0.2946
12858W        W29705   6.634   1.650  14.157 -0.0106 -0.0852 -0.2189
12859W        W29706   0.339  10.571   3.122  0.1334 -0.2638 -0.0536
12860W        W29707   4.204   0.744   1.826 -0.4328 -0.1345  0.0728
12861W        W29708  11.561  16.662   3.983  0.0022  0.0488 -0.6625
12862W        W29709   3.888   4.195  16.176  0.0125  0.0675  0.1180
12863W        W29710  17.479   4.319  15.618  0.2462 -0.1021  0.1725
12864W        W29711   9.509   7.006  12.627 -0.0671 -0.2958 -0.1745
12865W        W29712  12.451   2.829   0.832 -0.1769  0.0853  0.3142
12866W        W29713  18.108   6.015   0.207  0.0309  0.2872 -0.0100
12867W        W29714   9.278  14.310   0.573  0.1549 -0.2282 -0.1271
12868W        W29715   4.221   0.775  13.816  0.2730  0.0449  0.0707
12869W        W29716   8.987   5.988  16.308  0.0643  0.1041 -0.1683
12870W        W29717  10.360   9.626   5.097  0.2656 -0.0749 -0.3141
12871W        W29718  12.692  10.668  13.901  0.0694 -0.2227 -0.1533
12872W        W29719   8.063   2.225  15.575 -0.2186 -0.0908 -0.1958
12873W        W29720   8.821  17.857   4.615  0.1088 -0.0353 -0.0621
12874W        W29721   6.296  16.708   2.548  0.1517 -0.0620  0.0531
12875W        W29722  11.880  13.657  14.972 -0.3832 -0.0198  0.2426
12876W        W29723   2.479  15.928   3.040 -0.3607  0.0396  0.0021
12877W        W29724   8.807  10.653  13.614 -0.2314 -0.2365 -0.1514
12878W        W29725   0.450   3.617  15.075 -0.2324  0.0854  0.2282
12879W        W29726   5.118  15.655  11.800  0.0600 -0.1956 -0.2675
12880W        W29727  17.179   7.325   0.784  0.1848  0.1721  0.0828
12881W        W29728   8.807  15.703  12.844  0.1592 -0.0464 -0.0394
12882W        W29729  13.853   6.694   4.050  0.1046 -0.2038  0.1115
12883W        W29730  10.326   1.941  12.907 -0.1928  0.5248 -0.2223
12884W        W29731  15.420   4.106   1.790 -0.2087  0.1206  0.0992
12885W        W29732   7.242   6.891   3.229 -0.0621 -0.0706  0.2808
12886W        W29733   2.817  14.978  16.289  0.0598 -0.2619  0.1488
12887W        W29734   1.812  15.606   4.151  0.0250 -0.0733  0.0429
12888W        W29735  13.463  14.695  12.231  0.0153 -0.0458 -0.0680
12889W        W29736   2.943  11.623  11.220  0.0882 -0.2493 -0.0626
12890W        W29737   1.696   8.271   5.171 -0.2721  0.1718 -0.0790
12891W        W29738   5.939   6.700  13.507  0.0655 -0.0381  0.1096
12892W        W29739  11.042  14.051   1.057 -0.1579 -0.0316 -0.2618
12893W        W29740   5.347   9.935  13.936  0.1064  0.1482  0.1915
12894W        W29741   6.880   1.241  11.397  0.0455 -0.0782 -0.0089
12895W        W29742   6.696   3.921   1.419 -0.1997 -0.2585  0.0671
12896W        W29743  13.415   2.289   4.825 -0.1003  0.1617 -0.1788
12897W        W29744  11.236   6.288  15.582 -0.0377  0.0601 -0.2862
12898W        W29745  12.657   0.851  15.848  0.0787 -0.1922 -0.2473
12899W        W29746   6.415  14.032  13.111  0.0249 -0.2689  0.2085
12900W        W29747   0.853  17.849   4.109 -0.2643  0.1443 -0.2397
12901W        W29748  17.447  11.188   1.035 -0.0471 -0.2109  0.0746
12902W        W29749  17.828   4.946  12.656 -0.1675 -0.0211  0.1477
12903W        W29750   7.464   5.530  13.212  0.2399 -0.0920  0.2442
12904W        W29751  15.936  10.685  15.628 -0.1030  0.1749  0.1073
12905W        W29752   7.078   3.682   1.087  0.1078 -0.3002  0.2459
12906W        W29753  13.223   4.873  14.274  0.1735  0.0862  0.3033
12907W        W29754   0.252   7.017   0.710  0.0865  0.0108  0.2222
12908W        W29755  10.358  11.981  14.481  0.3690 -0.1217  0.0701
12909W        W29756   3.409   2.656   0.601  0.2445 -0.1481  0.0419
12910W        W29757  10.171  11.527  12.059  0.0261 -0.0513  0.4838
12911W        W29758  17.759  14.102  12.858  0.2329 -0.0807 -0.0976
12912W        W29759  10.380   8.965  10.261  0.1601  0.2535  0.0658
12913W        W29760   0.821   4.561   2.977 -0.0614 -0.0247  0.2120
12914W        W29761  11.683  17.431  12.219  0.1260 -0.2320 -0.1013
12915W        W29762   7.051  14.968  16.346  0.2365  0.0409  0.2108
12916W        W29763  16.000   4.553  16.335  0.0196  0.0020 -0.0501
12917W        W29764   5.235  10.962   2.120 -0.1704  0.1058  0.1667
12918W        W29765   8.181  15.929  12.407  0.4897  0.3115  0.3616
12919W        W29766   5.821   2.271  16.498  0.0405 -0.2110 -0.2015
12920W        W29767  17.785   8.377   0.885 -0.1532  0.0729  0.0785
12921W        W29768  13.533   5.526   1.990 -0.1875 -0.1400 -0.3905
12922W        W29769  12.291   1.915   4.714  0.0004  0.1733  0.0846
12923W        W29770  13.931   1.031   2.109  0.1173 -0.0778  0.2140
12924W        W29771   9.366   8.589   1.429  0.1924  0.1191 -0.0603
12925W        W29772   5.743   2.023   0.695 -0.1106  0.0411 -0.0526
12926W        W29773   2.584  12.947  14.042  0.0598  0.0697  0.1406
12927W        W29774  15.630  17.936  16.148 -0.4578 -0.1785  0.1208
12928W        W29775   5.184   0.021   5.257 -0.2117  0.0224 -0.1601
12929W        W29776  17.117  17.423  12.269 -0.1308  0.0963 -0.1899
12930W        W29777   7.884   8.299  12.779 -0.1922  0.1981 -0.2968
12931W        W29778   8.349   4.896  15.658 -0.1712  0.3205 -0.1678
12932W        W29779   3.200   1.112  13.029 -0.1356 -0.0084  0.1611
12933W        W29780  10.274  17.201  14.729  0.2004 -0.1789  0.0707
12934W        W29781   1.731  14.136  15.201  0.0241 -0.0012  0.1490
12935W        W29782   1.113   2.604   1.570  0.3117  0.3827  0.0733
12936W        W29783   9.629   7.332   1.150 -0.2338  0.0341  0.1982
12937W        W29784   3.910  13.745  15.383 -0.1277 -0.1962 -0.0700
12938W        W29785   9.464   7.134  11.645 -0.1936  0.0632 -0.0323
12939W        W29786   9.332   0.826  11.938  0.1049 -0.0833 -0.1265
12940W        W29787   7.690   2.793   1.882 -0.2865 -0.2489 -0.0935
12941W        W29788   4.849   5.101   4.143 -0.0062 -0.0225 -0.0997
12942W        W29789  16.605   8.120  12.736 -0.1665  0.0102  0.0074
12943W        W29790   6.642   6.924   4.519  0.1742  0.2328 -0.1636
12944W        W29791   7.338  14.975  12.474  0.1553 -0.1287 -0.0860
12945W        W29792   5.646  16.968  15.089 -0.0963 -0.0532 -0.4391
12946W        W29793  14.540   0.312  11.668 -0.1345  0.1313 -0.4004
12947W        W29794  16.781   5.223   4.893 -0.1574 -0.2567  0.3091
12948W        W29795   8.848  17.226   3.070  0.0353  0.3440  0.3563
12949W        W29796   1.631   9.344  12.073  0.0533  0.2267 -0.0527
12950W        W29797   2.591  13.181   0.555 -0.2333  0.0439 -0.1055
12951W        W29798  13.881  11.754   3.723 -0.0803 -0.1495 -0.0538
12952W        W29799   7.484  17.463   0.568  0.0798  0.0782 -0.0175
12953W        W29800  11.107   8.964  13.086  0.0007  0.2455  0.0378
12954W        W29801   3.005   7.769  11.732  0.0847 -0.0352  0.2033
12955W        W29802  12.247   7.755   1.585  0.0470 -0.0642 -0.1270
12956W        W29803  11.231   0.908   1.926 -0.1164 -0.0093 -0.2382
12957W        W29804   2.231  15.350   5.261 -0.0376  0.0435  0.3179
12958W        W29805   3.197  12.609   5.301  0.0513  0.4226 -0.1652
12959W        W29806   1.884  14.452   1.125 -0.0824  0.2286  0.1260
12960W        W29807   0.149   3.153   4.156  0.2495  0.2980  0.0061
12961W        W29808   1.733  17.799  13.773  0.1509  0.1168  0.1493
12962W        W29809   1.556   5.791  11.781 -0.1148 -0.0665  0.0471
12963W        W29810   4.140  16.574   5.129  0.0101  0.2799  0.1178
12964W        W29811   8.466  17.063  11.564  0.2278  0.3519  0.2943
12965W        W29812  13.285   5.193   4.731  0.0225 -0.2376  0.2441
12966W        W29813  13.445   3.211  16.078  0.3601 -0.1103  0.3182
12967W        W29814   2.661   5.240   1.230 -0.0444 -0.0875  0.1231
12968W        W29815   7.787  13.716  14.911 -0.1167  0.0647 -0.1340
12969W        W29816   9.921   4.328  15.854 -0.2399  0.0677 -0.1471
12970W        W29817   8.218  17.859  13.462  0.0713  0.1517  0.2428
12971W        W29818   2.282  12.917  12.886  0.2520  0.2042 -0.2323
12972W        W29819  14.436   5.425   1.240 -0.0729  0.2307 -0.0750
12973W        W29820  12.385   6.863   4.262 -0.1128 -0.0030 -0.3304
12974W        W29821  14.685  10.356   0.008 -0.2339  0.1015 -0.0185
12975W        W29822   4.185   1.622  14.694  0.0707  0.3797 -0.1105
12976W        W29823  10.713  14.640   2.180 -0.0050  0.2958 -0.1989
12977W        W29824   9.607   5.417   4.507 -0.2635  0.1702 -0.0696
12978W        W29825  13.952   6.754  13.268  0.1376  0.4186 -0.0114
12979W        W29826   7.953  14.290   0.242  0.2430  0.2999  0.1978
12980W        W29827  11.089   9.445   3.764  0.0953  0.0585  0.2307
12981W        W29828   1.408   2.695   1.938  0.0492 -0.1415  0.0608
12982W        W29829   6.172   3.544  14.640  0.4774  0.0783 -0.2589
12983W        W29830   2.937   1.025  12.567 -0.1839  0.3599 -0.2722
12984W        W29831  11.277   8.429   4.621 -0.1097  0.2090  0.0275
12985W        W29832  10.816   0.261   1.364  0.3054 -0.0428 -0.0226
12986W        W29833   8.207  12.058   2.972 -0.1151  0.0463 -0.1021
12987W        W29834  13.401  15.508  13.282 -0.0468 -0.1266  0.2339
12988W        W29835   9.280   8.663   4.388 -0.0134 -0.0592 -0.1143
12989W        W29836   7.809  15.893   3.945  0.0383 -0.1557 -0.0185
12990W        W29837   1.558  13.446  13.069 -0.1615  0.0537  0.1786
12991W        W29838   0.976   4.016   2.860 -0.0308  0.2132  0.0397
12992W        W29839   9.101   7.974  11.086  0.2844  0.0308  0.2588
12993W        W29840  10.524  17.821   1.876  0.2119 -0.1009  0.2729
12994W        W29841  15.539   4.482  13.975  0.1733  0.3123  0.1675
12995W        W29842   1.545  17.898  16.156  0.0781  0.0570 -0.1076
12996W        W29843   4.138   6.236   2.899 -0.0108 -0.1713 -0.0085
12997W        W29844   9.704   0.144   5.426 -0.1195  0.0166 -0.2143
12998W        W29845   1.893   6.543   4.121 -0.1197  0.2133  0.0967
12999W        W29846  18.056  12.293  14.664  0.0301  0.1665  0.3522
13000W        W29847   1.385   2.167   2.086 -0.0767  0.1020 -0.0437
13001W        W29848   8.927   4.022  14.862  0.1956 -0.3351  0.0948
13002W        W29849   2.408  17.064  12.311 -0.2447 -0.0027 -0.0015
13003W        W29850   4.048  15.852   4.527 -0.0001 -0.0037 -0.0303
13004W        W29851   7.140   0.751   2.060  0.0345 -0.1965  0.1258
13005W        W29852   8.054   9.060  14.795 -0.0835 -0.2117  0.2823
13006W        W29853   4.909   5.592  10.477  0.0532 -0.0064 -0.0326
13007W        W29854  12.942   4.824  16.297 -0.2338 -0.0099 -0.0322
13008W        W29855   9.701   8.077  12.338 -0.3316 -0.1726  0.1255
13009W        W29856   3.591  12.711  12.707 -0.1424  0.0209  0.0605
13010W        W29857  10.225   8.199   1.964  0.1635 -0.0248 -0.0593
13011W        W29858   0.163   1.242   3.941  0.3400  0.0932 -0.1543
13012W        W29859   5.235   3.349  15.743  0.4100 -0.1713 -0.0165
13013W        W29860   3.946   6.338  16.199 -0.1724  0.3207  0.2263
13014W        W29861  13.470  15.874   4.002  0.0177  0.2158 -0.2911
13015W        W29862   4.796   4.980  14.011  0.1801  0.0064  0.0027
13016W        W29863   2.012   2.390  13.739 -0.0326 -0.0365  0.3107
13017W        W29864  17.405  16.384  16.336 -0.3326 -0.1265 -0.0391
13018W        W29865  16.929   4.713   1.382  0.1210 -0.2467 -0.0276
13019W        W29866   6.750   7.578  16.083 -0.0933  0.3033 -0.2116
13020W        W29867   3.274   9.841  14.344  0.0729 -0.0294  0.3086
13021W        W29868   3.505  15.209   2.681  0.0830  0.3108  0.0996
13022W        W29869   5.916   5.279   2.390 -0.1479  0.1705  0.2531
13023W        W29870   7.679  12.516  15.128 -0.1554  0.1227  0.0319
13024W        W29871  13.266  17.552   0.605 -0.1189  0.0025  0.0744
13025W        W29872  14.857  14.452   2.227 -0.1637 -0.0004 -0.4121
13026W        W29873  16.361   3.678   3.898 -0.0191 -0.0579  0.1307
13027W        W29874  17.418   7.989  13.714 -0.1334 -0.1117 -0.1580
13028W        W29875   5.404   1.157   2.392  0.1477  0.1597  0.2524
13029W        W29876   0.667   2.825   0.645  0.0550 -0.1421  0.0360
13030W        W29877  10.300  14.478  14.553 -0.3229 -0.3317  0.0351
13031W        W29878   2.102   3.490  11.339 -0.0632  0.0300 -0.1611
13032W        W29879   2.522   0.796   5.526  0.1328  0.0819  0.1335
13033W        W29880   5.447  14.918   4.712 -0.1042  0.1732  0.2860
13034W        W29881  13.008  16.185   0.772  0.1064 -0.0434  0.1687
13035W        W29882  16.938  14.338   1.292  0.0258  0.2080 -0.0247
13036W        W29883  11.815   3.821  11.540  0.0531  0.2458  0.2187
13037W        W29884   0.943   6.252  12.600  0.1381  0.0104  0.1854
13038W        W29885  13.467   5.896  13.654  0.0597 -0.0512 -0.0101
13039W        W29886   6.863   5.814  11.174 -0.1277  0.1988 -0.0212
13040W        W29887   7.046   0.094  15.070 -0.1553 -0.0672 -0.1186
13041W        W29888   2.431   1.092  14.426  0.1658 -0.1454 -0.0578
13042W        W29889  14.587   0.371   2.989 -0.0383  0.0005 -0.1615
13043W        W29890  15.131  10.181   3.384 -0.0307 -0.1952 -0.2739
13044W        W29891  14.429  14.558  12.575  0.0269 -0.1409  0.1222
13045W        W29892   4.866   9.699   3.189  0.0283  0.0012  0.1948
13046W        W29893  10.855   9.014  11.277 -0.1122 -0.1629 -0.4175
13047W        W29894  15.727  15.244   4.298 -0.0509  0.1461  0.1184
13048W        W29895  11.334  11.040   3.071  0.1149 -0.0727  0.1063
13049W        W29896  14.783   6.825  11.781  0.1300  0.1691  0.0924
13050W        W29897   5.897   2.886   1.795 -0.1833 -0.0353  0.1785
13051W        W29898  16.632   2.680  15.736  0.0968 -0.2313  0.0550
13052W        W29899   6.123   2.724  14.521 -0.2855  0.1157 -0.0282
13053W        W29900   4.623   3.246   1.636 -0.1145 -0.1564 -0.3288
13054W        W29901  11.130  16.601   4.261  0.1202 -0.1172 -0.0309
13055W        W29902   2.794   6.609  11.805  0.2710 -0.1512 -0.0266
13056W        W29903   3.751  14.703   1.974  0.0215  0.2006  0.0890
13057W        W29904   4.937  15.315   5.500  0.0378  0.0536  0.7486
13058W        W29905   9.279  12.838  12.641 -0.0109  0.1078  0.0666
13059W        W29906  12.397   4.478  14.896  0.1685  0.1388 -0.1643
13060W        W29907  16.358   4.501   2.171  0.1626 -0.0039 -0.3552
13061W        W29908  16.655   4.611   4.872  0.0894 -0.2258  0.2493
13062W        W29909   7.829   6.669   0.596 -0.0426 -0.2888  0.2124
13063W        W29910  17.277   6.323  10.660  0.0963  0.1644  0.1503
13064W        W29911  16.005   6.926   3.385 -0.0621 -0.1513 -0.3193
13065W        W29912   1.450  16.130  14.333 -0.3514  0.0165  0.0959
13066W        W29913   5.378   4.440  11.301 -0.2644  0.2319 -0.0189
13067W        W29914  16.550  12.026   0.854 -0.2044  0.3305 -0.0876
13068W        W29915   5.149  10.688   4.936 -0.1661  0.3288 -0.2778
13069W        W29916  11.464   9.284  11.646 -0.1249  0.2154  0.1866
13070W        W29917   6.693   2.023  16.569 -0.1260  0.0440  0.0914
13071W        W29918   5.036   9.267   5.508 -0.0149 -0.0020 -0.2875
13072W        W29919   2.791   1.228   2.174  0.1790  0.1759  0.0072
13073W        W29920  11.776  15.935   3.981  0.2633  0.1944  0.1471
13074W        W29921   4.315   6.479   3.823 -0.1970 -0.2087  0.1306
13075W        W29922  18.102   8.165  16.078 -0.1154 -0.1639  0.0019
13076W        W29923   0.605  10.151  15.128  0.0008  0.0089  0.1406
13077W        W29924   6.639  12.922   4.691  0.1543  0.1611 -0.0331
13078W        W29925  10.640   3.375   4.437 -0.4141  0.0485  0.1513
13079W        W29926  12.830   4.058   0.575 -0.3075  0.6140  0.1108
13080W        W29927  14.145  10.146  12.546  0.2172  0.0531 -0.0655
13081W        W29928   5.270   6.508   0.529  0.1580 -0.1715  0.0115
13082W        W29929  17.867   2.134   0.981 -0.2860 -0.0613 -0.1786
13083W        W29930   2.889   2.459   4.597 -0.0774  0.0153  0.1180
13084W        W29931  12.061   4.619   2.022  0.3702  0.0191  0.0454
13085W        W29932  14.544   3.447   1.698 -0.1520 -0.2215 -0.0631
13086W        W29933  10.259  17.169   5.148 -0.1586  0.0073  0.0801
13087W        W29934   2.449   5.436  14.907  0.2873  0.1807 -0.0721
13088W        W29935   4.272   9.242  14.174 -0.0578 -0.0474  0.2153
13089W        W29936   9.962  15.971  16.382 -0.1053  0.0194  0.0600
13090W        W29937   0.025  11.429  15.373 -0.0378  0.0393 -0.0324
13091W        W29938  15.811  11.378  12.784  0.2405 -0.0274 -0.0691
13092W        W29939   3.296  10.971  13.667  0.2139  0.0805 -0.0442
13093W        W29940   2.907   9.257  15.384 -0.2287  0.3589 -0.2295
13094W        W29941   0.456  13.881  12.661  0.1230  0.4198  0.2464
13095W        W29942   0.337  11.607   4.739 -0.4051  0.2517 -0.2622
13096W        W29943   5.093   4.827   5.029 -0.0334  0.0969  0.0189
13097W        W29944   1.445   9.329   0.943 -0.2283 -0.0832 -0.0030
13098W        W29945   2.588   4.205  13.488  0.1957  0.1901 -0.1393
13099W        W29946   6.985   9.395  15.832 -0.0059 -0.0920 -0.1394
13100W        W29947   6.147  13.828   3.591 -0.2430  0.2405  0.0901
13101W        W29948  13.265  15.132  16.187 -0.1809  0.0229 -0.0688
13102W        W29949  11.232   8.289  12.382  0.0252  0.0523 -0.1530
13103W        W29950   1.250   5.923  13.638 -0.3621 -0.2595  0.4475
13104W        W29951   4.129  17.032   2.584 -0.0587 -0.0562  0.3305
13105W        W29952  14.065   3.888  16.368 -0.3835  0.0357  0.1020
13106W        W29953  14.231   0.795   0.082  0.0117 -0.1966  0.0457
13107W        W29954  11.844  11.389  13.526 -0.0424 -0.0537  0.1418
13108W        W29955   1.974  10.600   3.453 -0.0355 -0.1457 -0.1034
13109W        W29956   5.094   4.737   5.562 -0.1131  0.1339 -0.0593
13110W        W29957  14.181   8.217   3.720 -0.0240  0.0328  0.0051
13111W        W29958  11.080   0.649   4.719 -0.0564 -0.1486 -0.0356
13112W        W29959   2.694  17.109   5.083 -0.1715 -0.1573  0.0789
13113W        W29960   4.697   9.536  11.685  0.0695  0.2152 -0.1389
13114W        W29961  17.872   9.637   5.092 -0.0248 -0.0154 -0.2303
13115W        W29962   1.205  14.371   3.229  0.0933  0.2677  0.0417
13116W        W29963  15.796   7.754   4.954  0.2103  0.2202  0.4271
13117W        W29964   4.706   6.989   1.789 -0.0242  0.0658 -0.0379
13118W        W29965   2.063  17.136   3.254 -0.1614 -0.1042  0.0019
13119W        W29966  10.664  12.068  14.105  0.2846 -0.1351  0.2039
13120W        W29967  15.610   8.425  14.348  0.0381 -0.0487  0.1322
13121W        W29968   9.816  16.857  13.817  0.0038 -0.1083  0.1540
13122W        W29969   3.866  17.592   2.379  0.1575 -0.2272 -0.1429
13123W        W29970  16.375   4.136   4.606 -0.2340 -0.2826 -0.1226
13124W        W29971   8.959   0.726   3.232  0.1112  0.0657  0.0610
13125W        W29972   0.079   2.434   4.873  0.1063  0.2068  0.1616
13126W        W29973  17.486  15.585  13.114 -0.1044 -0.2653 -0.1450
13127W        W29974  10.455   9.327   2.745 -0.2826  0.0471 -0.0751
13128W        W29975   7.531   3.834   1.174  0.0882 -0.0580  0.2991
13129W        W29976   2.109   3.443  14.453  0.3236 -0.0769 -0.0193
13130W        W29977  15.947  17.011   5.927 -0.3745  0.0201 -0.2571
13131W        W29978   3.919  16.295   2.981  0.1779 -0.0246  0.2348
13132W        W29979   3.848   5.463   1.387 -0.0790 -0.0266  0.0826
13133W        W29980   4.082   4.093  13.501 -0.1125 -0.0589 -0.0667
13134W        W29981  12.631   6.397  13.745 -0.2994 -0.0377 -0.0513
13135W        W29982   5.071  17.280   0.979 -0.1094 -0.2966 -0.1027
13136W        W29983   0.143  17.176   0.220 -0.0781 -0.0135 -0.4026
13137W        W29984   8.623  12.346  16.014 -0.0659 -0.0960 -0.1316
13138W        W29985   7.216   2.956   3.253 -0.0460  0.1680 -0.0446
13139W        W29986   4.852   3.009   0.365  0.2101  0.2217  0.0661
13140W        W29987  13.576  16.430  15.787  0.1426 -0.2093  0.2482
13141W        W29988  10.394   1.051   5.212  0.1943 -0.0320 -0.2120
13142W        W29989   4.148   8.124  16.141  0.1185  0.2034  0.2217
13143W        W29990  13.541   3.307  15.410  0.0074  0.0540 -0.0574
13144W        W29991   6.688   1.295  13.622  0.2813 -0.1539  0.0674
13145W        W29992  10.482   8.546  14.777 -0.2670  0.1218 -0.0177
13146W        W29993  12.455  11.655  14.531  0.1769 -0.1044  0.1427
13147W        W29994  11.200   1.374   3.474 -0.2710 -0.1076 -0.1047
13148W        W29995   5.438   6.832   2.887 -0.1957 -0.1753 -0.1647
13149W        W29996  10.110  15.046   4.595 -0.1062  0.1486  0.1676
13150W        W29997   8.542  16.283   2.820  0.3806 -0.1154 -0.0083
13151W        W29998   3.690   1.218   2.386  0.1378 -0.3591 -0.3195
13152W        W29999  12.531  10.808  14.364 -0.1652  0.1731  0.0253
13153W        W30000  13.073   9.306   2.514 -0.1282  0.3190 -0.0153
13154W        W30001   7.804  14.320   4.188 -0.0802  0.2796 -0.1127
13155W        W30002  10.352  11.315   5.369 -0.1341  0.0691 -0.1997
13156W        W30003   2.194   0.348  16.571  0.1572  0.3194  0.0727
13157W        W30004  18.067   5.635  12.189 -0.1036  0.0428 -0.1583
13158W        W30005   3.580   7.272  16.222  0.1983 -0.2712  0.0375
13159W        W30006   6.595  10.360   2.266 -0.2835 -0.0092  0.2879
13160W        W30007   5.453  13.063  14.837  0.2341  0.0235 -0.0354
13161W        W30008   0.930  15.220   1.405  0.1166  0.3898  0.0985
13162W        W30009  10.342  11.891   5.199 -0.0767 -0.1898  0.0893
13163W        W30010   3.154  16.711  14.614 -0.4182  0.2100 -0.2150
13164W        W30011   8.574  12.231   0.714  0.0191  0.2299 -0.1281
13165W        W30012  10.835  14.083  11.420  0.1107 -0.3968  0.0901
13166W        W30013   2.661   7.802   0.993  0.0656 -0.1311  0.1266
13167W        W30014   2.538  12.422   3.889  0.0890 -0.3307  0.0449
13168W        W30015  17.544   3.286  14.372 -0.2166  0.3267  0.0820
13169W        W30016  15.202  14.918   2.398 -0.3202  0.2229  0.2993
13170W        W30017   5.407  14.496   3.607 -0.1639 -0.0621 -0.1031
13171W        W30018  15.223   5.366   3.737  0.0463 -0.2909 -0.1705
13172W        W30019  12.644   8.617  15.958 -0.1952 -0.1322  0.0597
13173W        W30020  16.156   3.461  12.596  0.1211 -0.0231  0.0493
13174W        W30021   4.926   9.911   2.639 -0.1230 -0.1190 -0.0852
13175W        W30022  15.998   2.521   2.570  0.1760  0.1225  0.1050
13176W        W30023   0.393  12.263  12.120 -0.0023  0.0230 -0.0824
13177W        W30024  10.533  11.688  11.703 -0.0125 -0.0822 -0.0557
13178W        W30025  14.086   1.609  14.946  0.2171  0.1206 -0.1305
13179W        W30026   1.929  10.894   5.984  0.1680 -0.3369  0.1462
13180W        W30027  10.655  16.921   3.917 -0.2756 -0.0311 -0.2533
13181W        W30028  10.794   2.355   2.992 -0.0051 -0.0080  0.1213
13182W        W30029  15.548   4.440  16.490  0.0462  0.2228 -0.2886
13183W        W30030   0.209   8.238  13.844 -0.2615 -0.5747 -0.0032
13184W        W30031   7.572  11.855  12.066 -0.0610 -0.3234 -0.0498
13185W        W30032   1.401  11.534   4.773 -0.0449 -0.2176  0.0691
13186W        W30033   0.944   7.296   2.372  0.0191 -0.2892  0.0205
13187W        W30034   6.043  17.117   4.754 -0.1821  0.1488 -0.0933
13188W        W30035  17.940  15.977  12.290 -0.0467  0.2750  0.0968
13189W        W30036  13.507   3.710  15.727 -0.2851  0.0214  0.1121
13190W        W30037  12.825   2.280  15.023  0.3743 -0.1379 -0.0262
13191W        W30038  12.176  13.923   0.250  0.0888  0.4448 -0.1145
13192W        W30039  10.331   9.818   1.549  0.1937  0.0173  0.0846
13193W        W30040   0.732   7.423  13.495 -0.0242 -0.3943  0.2700
13194W        W30041  16.754  13.855   1.023 -0.0713 -0.0818  0.0287
13195W        W30042   2.416  10.723   3.833 -0.0405 -0.0460 -0.1171
13196W        W30043   2.046   9.918  13.065 -0.0118  0.1449  0.1395
13197W        W30044  10.505   0.707   2.159  0.0267  0.1000 -0.2467
13198W        W30045  18.122  10.680  14.886  0.1856  0.1299 -0.0953
13199W        W30046   3.029   7.501   4.292  0.0715  0.0974  0.1440
13200W        W30047   6.976   5.416  16.555  0.0142 -0.2527  0.0180
13201W        W30048  12.930   0.146  14.475  0.0368  0.2836 -0.1310
13202W        W30049   6.312   6.763  12.322 -0.3317  0.0575 -0.1749
13203W        W30050   6.189   0.166  15.307  0.0202 -0.3091  0.2407
13204W        W30051  16.809   0.391   2.454 -0.0105  0.0896  0.2881
13205W        W30052   6.820   2.513  15.314 -0.2930 -0.1084  0.1955
13206W        W30053   5.957   1.461   3.721 -0.4017  0.0201 -0.0186
13207W        W30054  16.376  13.379  15.715 -0.0310 -0.1788 -0.0014
13208W        W30055  17.202  13.430  16.622  0.3005  0.4955  0.1014
13209W        W30056   0.505   0.038   5.442 -0.0617 -0.1223  0.0459
13210W        W30057   5.057   7.157  13.924 -0.1276 -0.0543 -0.1753
13211W        W30058  12.905   4.196  12.345  0.0390 -0.0252  0.0785
13212W        W30059   3.062   2.816  16.265 -0.2512  0.3779 -0.1411
13213W        W30060   1.024   8.513  15.236  0.2442  0.0179 -0.0764
13214W        W30061   9.931  13.039   0.103  0.2196 -0.1204  0.0646
13215W        W30062  17.315   7.065  14.678  0.1973 -0.0231  0.1611
13216W        W30063   7.151   1.345   4.340 -0.1072  0.1944 -0.0099
13217W        W30064  17.069   2.957   4.154 -0.0750  0.3351 -0.3832
13218W        W30065   0.201  14.085  15.409  0.0266 -0.3637  0.0762
13219W        W30066  11.188   4.888  10.580  0.1624  0.3915  0.0809
13220W        W30067  10.502   0.489  16.217 -0.2397  0.1221 -0.1556
13221W        W30068  17.847  15.270  13.237  0.0021 -0.3917 -0.3340
13222W        W30069  15.738   5.645   4.146  0.1089 -0.2454  0.0058
13223W        W30070   8.098  15.025   4.472  0.1827  0.2115  0.4083
13224W        W30071  14.524  10.389   2.842  0.3155 -0.1818  0.0306
13225W        W30072   6.758  16.715   1.672  0.3800 -0.2866  0.2718
13226W        W30073  12.978  15.571  12.002 -0.2295  0.0930 -0.0019
13227W        W30074  18.083   1.567  15.899 -0.2169  0.0049  0.0890
13228W        W30075   6.411  17.376  16.093 -0.0587  0.3189  0.0436
13229W        W30076   4.826  17.932   4.430 -0.0925 -0.0263 -0.0155
13230W        W30077   9.714  10.922  13.423 -0.1234  0.3915  0.5418
13231W        W30078   3.247   9.278  14.943  0.2664 -0.2917  0.0892
13232W        W30079  16.791   8.067   0.453  0.0226 -0.4071 -0.0318
13233W        W30080   3.172  12.180   1.381  0.0658  0.0728 -0.1218
13234W        W30081  15.641  17.477   1.778  0.0382  0.0904 -0.0580
13235W        W30082   4.629   8.581  12.647  0.0314  0.0285  0.1563
13236W        W30083   7.239   1.876   5.013 -0.1094  0.0260  0.1273
13237W        W30084   0.295  11.696  13.347  0.1850 -0.2602 -0.0950
13238W        W30085   6.384  14.288   4.039 -0.1409 -0.3418  0.0296
13239W        W30086  10.135  13.128  15.423  0.0646  0.2128 -0.3076
13240W        W30087   8.758   0.914  16.160  0.1555  0.2587 -0.0595
13241W        W30088  14.375  16.542  12.730  0.0866  0.0938 -0.1165
13242W        W30089  11.920   5.835   2.257  0.5071  0.0918 -0.2171
13243W        W30090   0.502   0.527   3.674 -0.1656 -0.2388  0.1335
13244W        W30091  17.960  15.229   6.657 -0.0558  0.2810  0.3283
13245W        W30092  11.472  12.324   3.350 -0.0417 -0.1468  0.0658
13246W        W30093   4.822  13.889   5.530 -0.1635 -0.0500 -0.2141
13247W        W30094  17.567   9.716   4.326  0.0572 -0.0699  0.2143
13248W        W30095  17.643   3.520  15.384 -0.1231  0.2026 -0.1017
13249W        W30096   7.408  16.192   4.639 -0.1336  0.2019  0.1835
13250W        W30097  11.655   5.111  13.949  0.0408  0.2406 -0.1224
13251W        W30098   6.444  17.906   0.386  0.3035  0.0322  0.3904
13252W        W30099  16.134   0.186   3.450  0.2722  0.4257 -0.2058
13253W        W30100   5.119  11.886  16.261 -0.0189  0.1377 -0.0830
13254W        W30101  15.658   4.900  16.262 -0.3414  0.1801 -0.0990
13255W        W30102  13.196  16.966   5.390 -0.2274 -0.1706 -0.3208
13256W        W30103   2.347   0.657  16.208 -0.0819 -0.3703 -0.1807
13257W        W30104  15.316   5.772  16.078 -0.3091  0.1006 -0.1958
13258W        W30105   4.535   7.834  13.392 -0.1252 -0.2300 -0.4973
13259W        W30106  15.872  13.028  13.856  0.4204 -0.2102  0.1645
13260W        W30107  11.191  17.391  16.608  0.0421  0.0664  0.4582
13261W        W30108  10.217   4.755  12.980  0.1193 -0.0493  0.0336
13262W        W30109  10.956   8.864   5.040  0.0476  0.3987  0.1063
13263W        W30110  10.750   0.323   2.448  0.2243  0.0799  0.0748
13264W        W30111   1.173   9.472  11.912 -0.3795  0.2434 -0.0052
13265W        W30112  15.838  15.674  14.287  0.2549 -0.4549 -0.1378
13266W        W30113  12.001   6.100   2.705  0.0451 -0.0420 -0.2432
13267W        W30114   5.740   8.773  14.386  0.0006  0.1107 -0.0077
13268W        W30115  10.669  10.340  16.174  0.0822 -0.2338  0.0063
13269W        W30116   7.975   8.712  16.484  0.3019 -0.0333  0.0753
13270W        W30117   2.562  16.073  13.344  0.0484  0.0080  0.1573
13271W        W30118   5.270   6.343   2.657  0.0975 -0.1095  0.2881
13272W        W30119  16.518   4.851  16.301  0.0793  0.0159 -0.1969
13273W        W30120   8.821   3.370   5.599  0.0452  0.0693  0.0574
13274W        W30121  10.087  12.905  12.078 -0.0233  0.0764  0.0311
13275W        W30122  15.439   5.605   2.327 -0.0121  0.1760 -0.4197
13276W        W30123   5.119   5.844   4.668 -0.0999  0.3267  0.0378
13277W        W30124   3.058  12.705  12.691  0.3179 -0.2533 -0.2272
13278W        W30125   0.267   6.759   5.192 -0.1726  0.0986 -0.3427
13279W        W30126   0.392  14.142   5.154  0.2657 -0.0907  0.1408
13280W        W30127   5.182  15.729   5.297 -0.0546  0.5131  0.0790
13281W        W30128   4.052  11.496   0.252 -0.1899 -0.1667  0.0305
13282W        W30129  17.823  17.655  15.404 -0.0903  0.0556  0.2624
13283W        W30130  12.471  12.948  15.048 -0.0722 -0.0143 -0.0813
13284W        W30131  17.876  16.297  16.431  0.0698  0.1355 -0.0399
13285W        W30132   9.388  17.151   0.438 -0.0351  0.2370 -0.3744
13286W        W30133  16.144   6.462   2.278 -0.1329  0.0744  0.2154
13287W        W30134  16.917  16.675   2.541  0.1538  0.2466  0.0176
13288W        W30135  16.629  10.380   1.395  0.0455 -0.1065 -0.2298
13289W        W30136   6.348   2.582   2.997  0.0309 -0.1931 -0.0802
13290W        W30137   0.718  17.682   5.449 -0.1047 -0.2449 -0.1198
13291W        W30138  14.631  13.317  12.030 -0.0135 -0.1259  0.0961
13292W        W30139   3.413   3.832   5.593 -0.3385  0.1995 -0.0256
13293W        W30140  13.291   2.048   3.012 -0.2384 -0.1793  0.1269
13294W        W30141   5.133   7.872   0.422 -0.1524  0.0739  0.0108
13295W        W30142   9.412   0.938   5.487  0.0392  0.0998 -0.2166
13296W        W30143   5.779  17.142  11.664 -0.1164 -0.1429  0.0842
13297W        W30144  11.001   2.735  11.877  0.2954  0.2691 -0.1689
13298W        W30145   4.290  10.411   2.166 -0.1301 -0.1255  0.1236
13299W        W30146  15.592  13.393  15.587 -0.0239  0.1884  0.1764
13300W        W30147   3.995   6.449   2.460 -0.2317 -0.0346 -0.0364
13301W        W30148  10.212  16.059  15.928 -0.2600  0.2033 -0.0057
13302W        W30149  12.959  10.979  14.239  0.0660 -0.1480  0.0444
13303W        W30150   7.693   1.682   2.643 -0.3156 -0.0282 -0.0620
13304W        W30151  10.052   5.384   2.413 -0.2783 -0.0130  0.2606
13305W        W30152  14.562  11.720   4.590  0.1056  0.0878 -0.2261
13306W        W30153  17.225  13.819  15.218  0.2478 -0.2875  0.0462
13307W        W30154   8.032  11.100   0.428 -0.0402  0.1842  0.2373
13308W        W30155  17.865   7.885  14.931 -0.0150 -0.1167  0.0411
13309W        W30156  13.864  15.565   1.279  0.3814 -0.0505 -0.0032
13310W        W30157  15.924   9.399   2.637  0.2270  0.1370  0.0857
13311W        W30158  13.306  15.734  13.711  0.1977 -0.0391  0.0586
13312W        W30159   6.284  12.746  11.737  0.0243  0.0842 -0.1042
13313W        W30160   6.440  11.506  14.528 -0.0716 -0.1568 -0.1177
13314W        W30161  16.642  15.068   1.769  0.2346 -0.0073  0.0331
13315W        W30162   6.008  16.218   3.840 -0.4114 -0.0732  0.2544
13316W        W30163   0.085  12.094   5.644  0.3209 -0.1035  0.1809
13317W        W30164  11.157  11.561   0.245  0.0585  0.1250 -0.0450
13318W        W30165   9.770   3.204  12.631  0.2378  0.0899  0.1245
13319W        W30166   3.488   3.608  12.171 -0.1213 -0.3095 -0.0515
13320W        W30167  10.212  14.271  13.102  0.1777  0.1328 -0.0547
13321W        W30168  16.352  13.671  13.041 -0.2217  0.1762 -0.1182
13322W        W30169  16.401   9.076   0.645 -0.0243  0.2462 -0.2026
13323W        W30170   0.907   2.970  14.356 -0.2054 -0.2033  0.0457
13324W        W30171   9.611   7.586  14.816  0.0703  0.0095  0.0129
13325W        W30172   0.005  12.719  13.157  0.3227  0.0543  0.3249
13326W        W30173  17.885   9.848   0.597  0.0554 -0.0229 -0.0040
13327W        W30174   2.851  14.726  13.334 -0.2372  0.2662 -0.0815
13328W        W30175   0.958  12.539  15.502  0.0704  0.0583 -0.1223
13329W        W30176  11.811   8.168  12.372  0.0674 -0.0055 -0.2630
13330W        W30177   1.383   0.528  16.475  0.1374  0.2207 -0.2021
13331W        W30178  17.202   5.221  12.602 -0.3826  0.0538 -0.0690
13332W        W30179  15.253  16.476   4.551 -0.1909 -0.0775  0.2320
13333W        W30180  13.753   0.479  12.126  0.0386 -0.1532 -0.0202
13334W        W30181  14.836   7.757  12.022  0.1960 -0.0115  0.0212
13335W        W30182  14.971   2.836   3.725  0.1333 -0.1779 -0.0090
13336W        W30183  13.166  13.854   4.118 -0.1704  0.3909  0.1173
13337W        W30184  11.830  12.969   1.684  0.2525  0.1745  0.3530
13338W        W30185   5.522  16.219  12.336 -0.0491  0.1113  0.2020
13339W        W30186  11.525   0.316  15.367  0.2551 -0.1407 -0.2139
13340W        W30187   5.844   4.201   3.390 -0.0642  0.0919  0.3249
13341W        W30188   6.554   4.543  15.503  0.2929  0.2778 -0.1058
13342W        W30189   8.647   9.127  12.389  0.3048  0.2928  0.0954
13343W        W30190   0.268  17.617  11.643 -0.2593  0.4972  0.1100
13344W        W30191  15.846   8.932  12.522  0.2471  0.1216  0.1248
13345W        W30192   5.850   7.349  13.340 -0.0730  0.2419  0.1973
13346W        W30193  11.294  13.252  12.705  0.0767  0.0467 -0.3582
13347W        W30194  17.458   3.113  15.207 -0.5409  0.2297 -0.0481
13348W        W30195   1.668   4.724  14.365  0.1459  0.1668 -0.0366
13349W        W30196  15.680   8.396  12.062  0.0138 -0.1779  0.1434
13350W        W30197  13.750   2.580   5.741 -0.1487 -0.0822  0.0577
13351W        W30198  11.815   0.781   3.494 -0.3283 -0.2397 -0.0004
13352W        W30199   8.909   2.006  12.253 -0.3518  0.3521  0.1219
13353W        W30200   4.687  12.718  15.444 -0.4087  0.0394 -0.1124
13354W        W30201  10.804  11.860   1.866  0.1242  0.0693  0.2300
13355W        W30202   8.723   9.625  13.174  0.0555  0.1426  0.0784
13356W        W30203  10.437  11.442  15.166 -0.1382 -0.0442  0.0153
13357W        W30204   4.530  11.381   5.951  0.0986  0.0109  0.1987
13358W        W30205  12.569   7.856  16.151  0.0061  0.0769  0.4261
13359W        W30206   4.878   1.999   4.578  0.0507  0.0828  0.0269
13360W        W30207   5.088   5.919   4.066 -0.1320 -0.0264 -0.1016
13361W        W30208  17.367   3.281  15.742 -0.2682 -0.3407 -0.0404
13362W        W30209  12.806  17.363  11.972 -0.1188  0.0288 -0.1439
13363W        W30210   7.395   3.870  13.127 -0.0158 -0.0418 -0.2242
13364W        W30211  17.918   0.743  12.480  0.0199  0.3811  0.1261
13365W        W30212   0.680   9.551   0.426 -0.1195 -0.0542  0.1538
13366W        W30213  16.308  16.812  13.767  0.4545 -0.1156  0.0478
13367W        W30214  15.577   6.949   0.243 -0.2233  0.0210 -0.2234
13368W        W30215   0.358   7.382  13.098 -0.0469 -0.2074 -0.2141
13369W        W30216  11.598   4.290   4.031 -0.0367 -0.2484  0.0631
13370W        W30217   0.706  11.357  12.690  0.1061 -0.0473  0.3002
13371W        W30218  11.851  15.548   0.692  0.1973  0.0123 -0.1879
13372W        W30219   6.547   6.230  12.188  0.0582 -0.0997 -0.2067
13373W        W30220   6.523  13.957  12.247 -0.2896 -0.1258  0.0058
13374W        W30221   0.845  11.800  14.968 -0.0865  0.1393 -0.0178
13375W        W30222  12.799  11.281  15.618  0.2589 -0.1216 -0.1851
13376W        W30223  11.609  16.630  14.979  0.0941  0.1451  0.0740
13377W        W30224   6.395   7.969   2.464 -0.1241 -0.2691 -0.0629
13378W        W30225  16.775   4.597   0.040  0.3131 -0.1531 -0.0089
13379W        W30226  14.298  17.647   3.588  0.3593 -0.1252  0.2713
13380W        W30227   3.878   7.780  16.576  0.2518  0.0104 -0.0769
13381W        W30228   9.379   7.031  13.976 -0.1381 -0.0021 -0.0878
13382W        W30229  12.839   8.491   1.252 -0.3669  0.1151  0.0978
13383W        W30230   9.970  15.501   0.047 -0.0943  0.2414 -0.1777
13384W        W30231   0.982   2.076  10.239 -0.0330 -0.0095 -0.1432
13385W        W30232  11.505   7.778  13.703  0.2041  0.0246  0.0567
13386W        W30233  17.774   8.437   4.737 -0.1679 -0.3082 -0.0140
13387W        W30234  10.943  10.417   5.305 -0.5651 -0.1847 -0.1564
13388W        W30235  16.269   6.372   2.740  0.0418 -0.0412  0.0717
13389W        W30236  12.463  13.579   2.214 -0.2255 -0.3591 -0.1143
13390W        W30237  11.443   6.686   0.410  0.0169  0.0468  0.2425
13391W        W30238  10.831   9.407  14.829 -0.2225  0.0532 -0.0436
13392W        W30239   9.949   9.777   1.202 -0.0863  0.0032 -0.0009
13393W        W30240   6.606  13.626   4.413  0.0612 -0.1503 -0.1523
13394W        W30241  12.296   5.585   0.675  0.0012  0.2017  0.2035
13395W        W30242   5.878   8.457  12.649 -0.4105  0.0061  0.0231
13396W        W30243   0.613  12.724   3.709 -0.0110  0.2580 -0.0831
13397W        W30244  14.037   2.580  12.045 -0.1241 -0.1311 -0.1022
13398W        W30245   1.658   1.877  15.882  0.1045 -0.2805  0.0065
13399W        W30246   3.662  16.943   2.993 -0.1812 -0.1776 -0.1058
13400W        W30247  17.125  12.629   1.320  0.1147  0.2011 -0.2482
13401W        W30248  14.758   9.497   2.206  0.5716  0.4347 -0.1034
13402W        W30249   2.446   8.636   5.080 -0.2722 -0.1090 -0.4691
13403W        W30250  17.859  12.599   2.191  0.1742  0.1082 -0.2680
13404W        W30251   1.062  17.398   0.161  0.4571 -0.0785  0.1252
13405W        W30252  11.099  14.517   4.303  0.0735  0.4209  0.0423
13406W        W30253   2.616  10.675   4.354  0.1533 -0.0445 -0.0150
13407W        W30254  16.819   4.454  16.147 -0.1164  0.0808 -0.0146
13408W        W30255   3.966   2.249  15.454  0.2879 -0.1543  0.1921
13409W        W30256  16.050   9.920   2.543 -0.4082 -0.3251  0.1193
13410W        W30257  16.257   5.455  13.648  0.0633 -0.0645  0.0122
13411W        W30258  10.499  15.494   1.842  0.2331  0.0704  0.1882
13412W        W30259   8.387   6.912  14.975 -0.1644  0.1241 -0.0089
13413W        W30260   0.003  10.167   1.900 -0.1068 -0.0161  0.2253
13414W        W30261  17.602  10.033  16.355 -0.1528  0.0215  0.0547
13415W        W30262  15.737   6.627   1.933  0.0702  0.0156 -0.1082
13416W        W30263   8.506  10.959   2.966  0.2896 -0.1519  0.0183
13417W        W30264   6.482   1.956   5.486 -0.2895 -0.0875 -0.0655
13418W        W30265  17.991   4.009   4.184 -0.0315  0.1315  0.0764
13419W        W30266  14.184  14.350   0.043 -0.0148 -0.0709 -0.1193
13420W        W30267  10.209  14.791   1.491 -0.0138  0.0251  0.0473
13421W        W30268  10.131   4.196   2.110 -0.1296 -0.0582  0.1554
13422W        W30269   0.428  13.837   0.921  0.2512 -0.0506 -0.2829
13423W        W30270  10.992   7.027   3.868  0.3096 -0.0057  0.0031
13424W        W30271  12.168   1.038  15.084  0.4784  0.1186  0.0715
13425W        W30272  13.026  14.942   4.365 -0.0348 -0.1032  0.0544
13426W        W30273   2.137   7.765   2.243 -0.0529  0.0669  0.0269
13427W        W30274   8.988   4.881   3.160  0.2283 -0.3788 -0.1016
13428W        W30275  13.889   8.493   4.145  0.1241  0.0251 -0.2054
13429W        W30276  13.095   4.773   3.958 -0.3116 -0.4277 -0.2087
13430W        W30277   4.673  11.824  11.649 -0.1534  0.0056  0.2068
13431W        W30278   6.314   7.016   1.820 -0.0364  0.1474 -0.0766
13432W        W30279  10.381  15.832   1.329 -0.0591  0.1746  0.1821
13433W        W30280  13.721   0.435  14.270 -0.0438 -0.1978  0.0924
13434W        W30281   5.634  12.592   1.133 -0.1357 -0.0265  0.1908
13435W        W30282   9.365  13.160   2.247 -0.0010  0.0143 -0.2979
13436W        W30283  17.897   7.238   2.921  0.1026 -0.1257  0.0360
13437W        W30284   1.907  15.842   3.075  0.2853  0.1410  0.0048
13438W        W30285   4.264   0.490   5.465  0.0183 -0.0477 -0.0699
13439W        W30286  13.622   7.172   4.829  0.1738 -0.1100  0.0994
13440W        W30287   9.846   7.355   5.170 -0.1394  0.1044 -0.2599
13441W        W30288   5.849   4.436   0.283 -0.0592  0.0334  0.0326
13442W        W30289   8.436  11.052   4.623 -0.0989 -0.0881  0.1176
13443W        W30290   9.608  13.497  14.976 -0.1232 -0.1552 -0.0617
13444W        W30291  12.885  16.486   3.491 -0.1505  0.1892 -0.0668
13445W        W30292   8.584  16.012   5.208  0.2094 -0.0788 -0.0307
13446W        W30293  15.686   7.710  11.761  0.2585 -0.0559 -0.0059
13447W        W30294   9.400  15.038   1.448  0.1560 -0.0964  0.2175
13448W        W30295  13.174   4.364   0.339 -0.1075 -0.2652 -0.1395
13449W        W30296   1.119  17.557  15.565 -0.1694 -0.0147  0.0485
13450W        W30297  15.305  11.312   2.039  0.0967 -0.2352 -0.1009
13451W        W30298   3.195   8.760   5.514  0.0717  0.4330  0.1716
13452W        W30299  15.891   6.174  12.127 -0.3750  0.2294 -0.2021
13453W        W30300   1.007  16.747  15.440  0.1978 -0.3110  0.1728
13454W        W30301  15.240   9.261   2.165  0.1281 -0.0948  0.2312
13455W        W30302   1.861  14.522   1.651  0.1807  0.2364 -0.1267
13456W        W30303   2.154  16.087   2.049  0.0055  0.0409 -0.0654
13457W        W30304  16.093   9.066  15.351 -0.1432  0.0075 -0.0204
13458W        W30305  16.437   8.075  11.383  0.1922  0.2197  0.3214
13459W        W30306  12.472   6.542  16.290 -0.0241 -0.3699  0.1072
13460W        W30307  17.384  12.645  15.886  0.2138  0.2989 -0.0721
13461W        W30308   2.883   9.399   2.508 -0.1466  0.0994 -0.2146
13462W        W30309  13.367   6.838   1.786  0.0291  0.1469  0.3129
13463W        W30310   0.918   7.290  14.767 -0.0403  0.1219  0.0109
13464W        W30311   0.676   8.780   1.381 -0.2549  0.0507 -0.0944
13465W        W30312   7.579   3.205  15.817 -0.1191  0.2377 -0.1859
13466W        W30313   2.070   8.310   2.382 -0.0459 -0.0886 -0.2783
13467W        W30314   0.108   0.935  13.065  0.1330  0.1146 -0.2731
13468W        W30315  10.635  18.138  11.854  0.0404 -0.2379 -0.4838
13469W        W30316   0.462   1.160  12.240 -0.2042  0.0123  0.0366
13470W        W30317  17.055  12.332   1.772  0.1198 -0.0064 -0.0417
13471W        W30318   7.525   3.942  12.406  0.1485  0.0629  0.1664
13472W        W30319  10.386  12.100   2.533  0.2831 -0.1196  0.0455
13473W        W30320   1.717  17.872   5.277 -0.1036  0.2912 -0.1686
13474W        W30321   9.068   1.480   2.604  0.4202 -0.1866 -0.0461
13475W        W30322   8.912   3.701   2.934 -0.1146 -0.2251 -0.0957
13476W        W30323   7.498  15.970  14.646 -0.1695  0.4466  0.0001
13477W        W30324   7.400  13.853   1.644  0.3322  0.1630  0.2406
13478W        W30325  15.854  12.269   4.635  0.1527 -0.1494  0.0991
13479W        W30326   8.535  16.137   1.186  0.0085  0.1483  0.2915
13480W        W30327  11.769   9.977   3.902  0.2821 -0.0489 -0.0728
13481W        W30328  10.687   2.192  14.595  0.0129 -0.0013  0.3291
13482W        W30329  13.590   1.204  13.636 -0.2464  0.0700  0.0212
13483W        W30330   2.052   4.388  14.497 -0.0672 -0.1521  0.1591
13484W        W30331   6.349   0.811  12.533  0.2033 -0.2133  0.1499
13485W        W30332  13.956   6.186   4.268  0.0943 -0.2115 -0.2737
13486W        W30333  13.635  10.533  13.601 -0.2161 -0.1049 -0.0243
13487W        W30334  12.579  14.912   4.169  0.2214 -0.2599  0.1943
13488W        W30335   9.135   1.813  12.950  0.0193  0.1839  0.0874
13489W        W30336  15.312  12.450  16.274  0.2018 -0.0990 -0.0948
13490W        W30337   2.563  17.262   0.609  0.0510  0.0263  0.0957
13491W        W30338   3.284  15.941   3.028  0.0824 -0.1329 -0.0202
13492W        W30339  10.654  12.437  12.031 -0.2198 -0.1805  0.2514
13493W        W30340  13.197   9.031   4.094 -0.2170  0.2898 -0.1444
13494W        W30341   4.402  17.976   4.101  0.2717  0.3909 -0.1177
13495W        W30342  16.659   7.649   3.081  0.0991  0.3586  0.1337
13496W        W30343   4.685  13.209  15.677 -0.0471  0.2142 -0.0309
13497W        W30344   1.995   5.948   0.515 -0.2044 -0.1897  0.1729
13498W        W30345  13.540   1.070   2.871  0.0927  0.1609 -0.0758
13499W        W30346  18.072   9.850  14.294  0.2343 -0.2285  0.0298
13500W        W30347  11.257  15.475   0.049  0.1222  0.1491 -0.1345
13501W        W30348   9.648   6.220  11.166  0.2107  0.1700 -0.1709
13502W        W30349  17.530  17.670   1.539  0.0101  0.0758 -0.0654
13503W        W30350   6.797   7.211  14.875  0.1222  0.2224  0.0598
13504W        W30351   3.441   6.142  14.905  0.2750 -0.1375  0.0096
13505W        W30352  14.461   7.620  13.494  0.1470 -0.2374  0.2347
13506W        W30353   4.093   8.311  15.657 -0.1561  0.0484 -0.2239
13507W        W30354   1.349   9.453   2.573 -0.1424  0.0913  0.2255
13508W        W30355  18.157  12.481   1.386  0.2245 -0.1878  0.2748
13509W        W30356  17.629   8.565   3.423  0.5240  0.0472 -0.0143
13510W        W30357  10.790   1.639  12.595 -0.1159  0.2662 -0.1977
13511W        W30358  12.149   7.906   5.521 -0.4374  0.1427  0.2755
13512W        W30359   9.234   7.205  10.904  0.2892  0.0257  0.0080
13513W        W30360   0.887  12.064  12.197 -0.1177  0.3363  0.2211
13514W        W30361  16.886   2.916   0.514 -0.0253  0.0625  0.0867
13515W        W30362  13.756   9.261  13.776 -0.0314 -0.1168  0.0981
13516W        W30363   0.893  14.181  13.906  0.1163 -0.0772  0.2804
13517W        W30364   0.807  16.579  12.358 -0.3466  0.2141 -0.0638
13518W        W30365  13.321   1.508  15.897 -0.0594  0.1124  0.3598
13519W        W30366   1.542   6.112   1.410  0.0805 -0.0304  0.1250
13520W        W30367   3.536  16.718  12.667 -0.1143  0.1314 -0.0144
13521W        W30368  13.875   2.348  12.550 -0.0444 -0.0239 -0.0391
13522W        W30369   0.342  13.044  12.295  0.4171  0.0181  0.0903
13523W        W30370   1.255   5.605  12.099  0.0094 -0.2695 -0.1838
13524W        W30371  11.517  14.837   0.910 -0.0853  0.1437  0.3680
13525W        W30372   7.155  14.134   5.195  0.0404  0.2762 -0.0438
13526W        W30373  12.787  14.440   1.723 -0.0998 -0.0743 -0.0452
13527W        W30374   7.974   0.253   1.471 -0.0527 -0.0038 -0.1252
13528W        W30375   3.178   0.888   2.546 -0.0896 -0.2375 -0.0394
13529W        W30376   3.234   3.864   1.145  0.2622 -0.0954 -0.2507
13530W        W30377   8.361  10.946   5.835  0.1546  0.0068  0.1073
13531W        W30378  17.243  12.782   5.927  0.0732 -0.1586 -0.0220
13532W        W30379  16.431   7.354  15.795  0.0080 -0.1300 -0.3103
13533W        W30380   8.845   7.514   4.907  0.0089  0.1249  0.0218
13534W        W30381  17.096  16.790   1.582 -0.0646  0.0182 -0.0256
13535W        W30382  17.612   9.202   0.949  0.2096  0.0443  0.0315
13536W        W30383  16.989   5.087  16.199  0.1768 -0.2639  0.0260
13537W        W30384  15.273   0.629   1.331 -0.0487 -0.0916 -0.0202
13538W        W30385   3.768   1.526   3.732  0.2373 -0.0464 -0.0254
13539W        W30386  17.275  14.118  14.030  0.2933  0.1423 -0.4311
13540W        W30387  13.293  13.157  15.334  0.1479 -0.0442  0.1797
13541W        W30388   4.914  14.960   4.981  0.0036  0.1398  0.0511
13542W        W30389  14.219  11.320   2.905 -0.3378 -0.0820 -0.0324
13543W        W30390   7.469  11.200  16.232  0.0299  0.2104  0.1254
13544W        W30391   9.417   3.592   1.195  0.1128  0.2139  0.2078
13545W        W30392  10.711   2.510  14.193 -0.0601 -0.0305  0.0313
13546W        W30393   2.773  12.867   0.976 -0.3830 -0.0077  0.0809
13547W        W30394   8.631  12.779   5.972  0.2646 -0.0601  0.0201
13548W        W30395   5.337  18.014   3.900 -0.5022 -0.0263  0.0940
13549W        W30396  15.373  13.113   1.440  0.0699 -0.3582 -0.1937
13550W        W30397  15.385  16.614  13.114  0.2956  0.1214 -0.1439
13551W        W30398  11.608  16.654  16.124 -0.2151 -0.2069 -0.1226
13552W        W30399  17.558  15.950  16.095  0.1847  0.1206  0.0815
13553W        W30400   1.445  14.293  14.068  0.0688  0.0167  0.0026
13554W        W30401  17.715   8.537  12.920 -0.1143 -0.0366 -0.2160
13555W        W30402   5.813  11.661   2.754  0.0165  0.0290  0.1347
13556W        W30403   3.407   2.907   2.314 -0.1106 -0.1422  0.0554
13557W        W30404   8.739  14.404   3.879  0.0647  0.2906  0.0666
13558W        W30405   9.265   0.883   0.438  0.2847  0.0880  0.1718
13559W        W30406   2.978   4.776   1.173  0.0838 -0.3306  0.1119
13560W        W30407  13.853   1.907  13.945  0.1034 -0.0635 -0.2988
13561W        W30408   3.271  11.479   1.666 -0.0294  0.1391  0.0258
13562W        W30409  10.310   6.079   3.191  0.0680  0.0391  0.3834
13563W        W30410  13.730  11.900  14.633 -0.0449 -0.0461  0.4368
13564W        W30411   3.822   3.348  13.818  0.1375  0.2977 -0.0405
13565W        W30412  11.268   1.003  14.670 -0.1319 -0.2002 -0.0449
13566W        W30413  10.591   2.997  14.111  0.1985  0.1015  0.1407
13567W        W30414  15.071   0.702   1.825  0.1401  0.0799 -0.0922
13568W        W30415   9.877  15.578   1.496 -0.2924  0.0425 -0.1159
13569W        W30416   4.336  15.554  13.274  0.0613  0.2451 -0.0547
13570W        W30417   9.988  16.468  12.158  0.0570  0.0547 -0.0041
13571W        W30418  12.871  11.356   0.108  0.1677 -0.1820  0.2002
13572W        W30419   3.967  11.791  12.962 -0.0004 -0.0764 -0.1236
13573W        W30420  15.843  10.345  13.829  0.1719 -0.0882  0.2051
13574W        W30421  17.696  16.272  14.608  0.2778 -0.1460  0.1744
13575W        W30422  13.402   4.615  14.614  0.0656  0.2122 -0.0026
13576W        W30423  12.073   4.929  14.182 -0.2705  0.0528 -0.1143
13577W        W30424  10.848   6.368  13.240  0.0680  0.1588  0.3288
13578W        W30425  12.590   4.753  12.969  0.0869  0.0908  0.0921
13579W        W30426   3.317   2.722   1.700 -0.2191 -0.0100  0.1820
13580W        W30427  12.867   5.911  14.948 -0.4559  0.1454 -0.2043
13581W        W30428  11.035   4.055   3.904 -0.0439  0.1812 -0.1172
13582W        W30429   2.748   0.889   5.075  0.3028 -0.0291 -0.1343
13583W        W30430   2.130   0.346   3.529 -0.0663 -0.3602  0.0399
13584W        W30431  12.669   6.456  12.787  0.0746  0.3806  0.0263
13585W        W30432   1.717  16.807   5.776 -0.1507 -0.1176  0.3906
13586W        W30433  17.067  15.860   5.974  0.0496 -0.2774  0.0816
13587W        W30434   4.952  10.491  13.585  0.0763 -0.1343  0.0033
13588W        W30435  14.449  12.166   4.807 -0.0067 -0.0216  0.0076
13589W        W30436   2.939  10.957  16.394 -0.0329  0.0131  0.1899
13590W        W30437   9.094  17.772  13.031 -0.0588 -0.5037 -0.3100
13591W        W30438  14.441   6.433   2.197 -0.1732  0.0257 -0.1676
13592W        W30439  14.076  10.952   3.254  0.1686 -0.1305 -0.0329
13593W        W30440  10.989   3.913  12.932 -0.0855  0.2111  0.0692
13594W        W30441   9.627   2.831  12.283 -0.0698  0.2600  0.2001
13595W        W30442   0.626   3.675   0.090 -0.2333  0.0530 -0.2870
13596W        W30443  13.665   7.166  13.447  0.3542  0.1124  0.0710
13597W        W30444   3.636   3.819   2.340 -0.0933  0.1372 -0.3134
13598W        W30445  13.758  11.408  13.838 -0.3266  0.0560 -0.1815
13599W        W30446   7.270   0.045   4.490 -0.0184 -0.1659  0.0707
13600W        W30447   6.255   8.635  14.636 -0.2112  0.0471 -0.1157
13601W        W30448   4.424   5.163  14.856 -0.1744 -0.0019  0.0443
13602W        W30449  15.519   5.252  13.631 -0.1618 -0.0272  0.3258
13603W        W30450  11.271  15.151   4.314 -0.2911  0.1526  0.0923
13604W        W30451   8.456  14.668  15.766  0.2067  0.0622  0.0072
13605W        W30452  18.179  17.334  16.359  0.0509  0.2103 -0.1147
13606W        W30453   7.686   6.114   5.265 -0.0392  0.1832 -0.1212
13607W        W30454  14.611   6.947  14.316 -0.1365  0.0325  0.3194
13608W        W30455  14.307  13.313   4.395 -0.1892 -0.1300 -0.0093
13609W        W30456  17.762  12.994  12.941 -0.1963  0.0270  0.0531
13610W        W30457  14.038   2.146  14.763 -0.4619  0.0870  0.0099
13611W        W30458   8.152   4.830   0.455 -0.1913 -0.0631 -0.0180
13612W        W30459  15.601  17.381  14.151 -0.1573 -0.1993  0.0635
13613W        W30460   9.686  11.346  12.721  0.0793 -0.0056 -0.4107
13614W        W30461  11.434   3.515  11.692 -0.2574  0.1413 -0.1725
13615W        W30462   9.681  15.918   1.058 -0.3680 -0.1021 -0.0078
13616W        W30463   7.443  10.781   3.505  0.3465  0.0040 -0.2262
13617W        W30464  11.552   3.114  13.895 -0.0878 -0.1524  0.1784
13618W        W30465  12.001   4.124   4.440  0.4760  0.1135  0.1436
13619W        W30466   3.577   8.303   5.114  0.0310 -0.2478  0.1611
13620W        W30467  15.794   2.480  16.089 -0.0916 -0.0673 -0.0314
13621W        W30468   2.146   9.553  12.225 -0.0721  0.1342 -0.0394
13622W        W30469   7.481   6.459  16.161 -0.1198  0.1664 -0.2163
13623W        W30470   4.331  13.199   0.007 -0.3635 -0.3382  0.2251
13624W        W30471   7.223   7.984  12.084  0.1794 -0.1439  0.0459
13625W        W30472   7.062   2.863   4.621  0.0389  0.1729  0.2155
13626W        W30473   7.608  11.245   0.188 -0.0595  0.0401  0.1513
13627W        W30474  16.537   2.294   1.228 -0.1210  0.1935  0.1248
13628W        W30475   7.757  14.804  12.166  0.0611  0.3406 -0.1266
13629W        W30476   6.896  16.332  14.067  0.4972  0.3516 -0.1236
13630W        W30477  14.537  17.007  12.897 -0.0894  0.0493 -0.3239
13631W        W30478  16.991   3.215   0.946  0.2136 -0.1804 -0.1523
13632W        W30479  16.118  13.102  14.863 -0.0292  0.1340 -0.1377
13633W        W30480   1.049  17.439   2.002  0.1975  0.3210  0.0439
13634W        W30481  16.106   2.564   3.919  0.1013  0.2305  0.1052
13635W        W30482  11.483   0.612   3.933  0.0693 -0.1952 -0.0401
13636W        W30483   3.882   5.300  13.803 -0.0749 -0.0732  0.2875
13637W        W30484  16.513  18.010  12.358  0.2574  0.1201 -0.2931
13638W        W30485   2.828  11.790   1.332  0.5163  0.0081 -0.0998
13639W        W30486   6.198  14.220  16.268 -0.1523 -0.1162 -0.1145
13640W        W30487   3.560   3.109   0.899 -0.0673 -0.1438 -0.1509
13641W        W30488  17.637  15.102   1.310  0.1065 -0.0130 -0.1883
13642W        W30489   8.621   7.425  15.056  0.0702 -0.1093  0.1958
13643W        W30490   6.893  10.385   0.246  0.2129  0.0643 -0.0869
13644W        W30491  14.099   6.742   4.603  0.0447  0.0001 -0.0242
13645W        W30492   4.261  12.617   0.659  0.0354 -0.1591 -0.1307
13646W        W30493  11.089   4.404   4.306 -0.1946  0.1394  0.1970
13647W        W30494   9.744  10.312   3.512 -0.2164  0.0196  0.3603
13648W        W30495   1.781   4.427   4.043  0.3317  0.1526  0.1327
13649W        W30496   6.720  13.482   1.254 -0.1503 -0.0324  0.0667
13650W        W30497  13.299   9.162  16.029 -0.3505  0.0297  0.2378
13651W        W30498   0.160  16.127   5.278 -0.0720 -0.0608  0.4594
13652W        W30499  12.161   6.999  16.268 -0.2203 -0.0977 -0.0873
13653W        W30500   4.602   1.045   6.112  0.0775  0.1120  0.0457
13654W        W30501  13.986  18.094   3.971 -0.0486  0.2087 -0.1074
13655W        W30502  17.591  15.135  14.343 -0.3363 -0.1073 -0.2603
13656W        W30503  15.977   4.652   0.567  0.1478  0.0048 -0.0826
13657W        W30504   7.283   1.123  12.620 -0.0057  0.0040  0.2461
13658W        W30505   2.556  17.485   2.422  0.0522  0.1243  0.0525
13659W        W30506   8.580   2.801  14.580 -0.2011 -0.0491 -0.0850
13660W        W30507  12.740  10.799  15.441  0.1357  0.0070  0.0060
13661W        W30508  13.730   2.221   0.795 -0.2980 -0.0027 -0.3152
13662W        W30509   7.877   7.938  16.611  0.2704 -0.0220 -0.1438
13663W        W30510   4.934   0.145   1.758  0.0656  0.0175  0.2128
13664W        W30511   8.808   1.030   0.570 -0.1289  0.1263  0.2702
13665W        W30512   8.094   2.141   5.947 -0.1766  0.0046  0.1047
13666W        W30513   7.169  16.744   3.507  0.0069  0.0640  0.0690
13667W        W30514   1.145  17.136  16.357  0.1398 -0.0612  0.0481
13668W        W30515  14.876  14.564   6.261 -0.0670 -0.1462  0.2032
13669W        W30516   6.417   5.117   1.949 -0.0044  0.0423 -0.0350
13670W        W30517   4.973   9.410   1.188 -0.0270 -0.1677 -0.1549
13671W        W30518  11.684  12.955  12.530 -0.0447  0.0691  0.0126
13672W        W30519   6.066   4.305   5.259  0.1597 -0.0102 -0.0211
13673W        W30520   7.913  13.173  12.246 -0.2347 -0.0917  0.1037
13674W        W30521   7.286  13.781   3.220 -0.0142 -0.1816 -0.0254
13675W        W30522  16.725   2.832   3.803 -0.0471 -0.1511  0.0887
13676W        W30523   1.432   1.011  13.266  0.2264  0.2288  0.1004
13677W        W30524  10.714  15.786   0.077  0.2664 -0.0219  0.4417
13678W        W30525   9.354   2.739   4.805  0.1607  0.1300  0.0512
13679W        W30526  16.195  13.743  14.909  0.0882 -0.1024  0.1453
13680W        W30527   2.803   8.272  15.441 -0.1891  0.2776 -0.2456
13681W        W30528  12.986  14.119   3.650 -0.0723  0.0033  0.0168
13682W        W30529   0.995   4.964  15.154 -0.0237 -0.0888  0.0843
13683W        W30530   1.817  14.928   2.025  0.3219  0.1751  0.1621
13684W        W30531   2.042  12.602  14.250  0.0337 -0.1647 -0.0842
13685W        W30532  14.725   8.670   1.196 -0.3213 -0.0149 -0.0790
13686W        W30533   9.588   3.179   5.054  0.0972 -0.0063 -0.0039
13687W        W30534   5.340   5.757  11.572  0.1050 -0.0625 -0.3642
13688W        W30535  13.586  12.201  12.306  0.2592 -0.1622  0.2326
13689W        W30536  14.730  16.827   2.304 -0.1247  0.2420  0.1606
13690W        W30537   2.746   7.448  16.000  0.0608  0.0754  0.2406
13691W        W30538  17.654   6.636  14.031 -0.0841 -0.0901  0.0985
13692W        W30539   1.538  12.850  14.837 -0.4147 -0.0331 -0.1503
13693W        W30540  15.927  14.376  14.082 -0.0937  0.1365  0.1300
13694W        W30541   4.517  10.528   1.571  0.0271  0.0322 -0.1682
13695W        W30542  16.308  12.532  11.215  0.3650 -0.0245  0.0209
13696W        W30543  13.355   9.626  14.298  0.1092 -0.0179 -0.1223
13697W        W30544   5.498  13.910  15.728 -0.0366 -0.4114  0.1595
13698W        W30545  16.051   2.372  13.380 -0.0357 -0.1936  0.0630
13699W        W30546  12.390  10.458  15.181  0.0387 -0.3230  0.0166
13700W        W30547   7.279   5.112  13.418 -0.0697  0.0160 -0.2923
13701W        W30548  10.568  16.809   5.326  0.0657 -0.0091 -0.0338
13702W        W30549   2.557   3.727  11.241 -0.0799 -0.1832 -0.1422
13703W        W30550  16.325   9.020   1.777 -0.2179 -0.2980 -0.2690
13704W        W30551  12.485   2.492   3.980 -0.2061 -0.2394  0.0904
13705W        W30552   2.516   1.634  14.038  0.1592 -0.0108 -0.1939
13706W        W30553   3.491   5.695  10.441  0.1554  0.2417  0.0842
13707W        W30554   7.375  13.588   0.023 -0.1296  0.2638  0.0445
13708W        W30555  11.717   4.788  11.642  0.2262 -0.0296 -0.0726
13709W        W30556   9.662  10.174   2.077 -0.0074  0.0268  0.0643
13710W        W30557  17.607   5.949   0.984 -0.0877  0.0662  0.1636
13711W        W30558   6.198  15.417   0.500  0.3021 -0.1840 -0.2952
13712W        W30559   6.863  11.564  14.860 -0.1541 -0.0292  0.0311
13713W        W30560   8.913   4.565   2.698  0.0947  0.0491 -0.1340
13714W        W30561  17.084   8.399  13.069 -0.1113  0.3429 -0.2662
13715W        W30562   2.035  16.656   3.540  0.0957 -0.1206 -0.1410
13716W        W30563   1.199  12.112   1.067 -0.2044 -0.0606  0.0870
13717W        W30564   6.475  16.180   0.090  0.1215  0.0062  0.2471
13718W        W30565   0.083   8.708   2.200 -0.1758  0.2357  0.0842
13719W        W30566  17.418   6.208   4.464 -0.1240 -0.2704  0.0923
13720W        W30567  13.565   9.178   4.444 -0.1362  0.0641  0.1123
13721W        W30568   2.045  16.201   4.856 -0.0344 -0.0789  0.3724
13722W        W30569   8.647   8.397  12.396 -0.1278 -0.3151  0.1848
13723W        W30570  12.674  16.793  16.456 -0.1860 -0.1454  0.1010
13724W        W30571  17.872  11.942  12.825 -0.1244 -0.0821  0.2202
13725W        W30572  15.251   5.721   1.505  0.2762  0.1169 -0.2175
13726W        W30573  15.032   5.428  11.304  0.2780  0.0644  0.1971
13727W        W30574   9.598  13.383   0.290  0.0649  0.0943 -0.0311
13728W        W30575  10.914  17.372  15.946 -0.1244  0.0469  0.2882
13729W        W30576  16.585   6.731  13.760  0.3114 -0.2759 -0.1676
13730W        W30577   8.435   0.622  11.995  0.4900 -0.0890 -0.1027
13731W        W30578   7.684  13.139   4.781  0.2365  0.0587  0.0467
13732W        W30579  18.055   2.415  11.275  0.1967 -0.3132  0.0111
13733W        W30580   5.996   9.484   5.634  0.0486  0.0113 -0.0974
13734W        W30581   4.101   2.691  15.643 -0.1831 -0.1936  0.0399
13735W        W30582  12.857   3.865   2.191  0.0492  0.2724 -0.0191
13736W        W30583  16.679   3.477   2.282  0.0113  0.1926 -0.0608
13737W        W30584   7.347   1.480   3.466 -0.1167 -0.2932  0.1631
13738W        W30585   5.598  11.157   2.899 -0.0523  0.0029 -0.0105
13739W        W30586   2.530   5.101  13.469  0.0722 -0.1312  0.0909
13740W        W30587   3.170  17.787  11.237  0.1043  0.2295  0.1602
13741W        W30588  14.715   8.261  13.242  0.1314  0.0326 -0.2611
13742W        W30589  12.009  17.369   1.788 -0.1520  0.2515  0.2057
13743W        W30590   1.311  12.160  15.406 -0.1145 -0.1520  0.0417
13744W        W30591   8.065  16.205   1.703  0.0201  0.1987 -0.0966
13745W        W30592   3.130   4.497   0.649 -0.5138 -0.1876  0.1931
13746W        W30593   6.961  14.696  15.507 -0.2197  0.1659 -0.1309
13747W        W30594   8.726   1.456  11.530  0.1559  0.2608 -0.3363
13748W        W30595  14.016  13.457  15.213 -0.3124  0.0807  0.2460
13749W        W30596   4.290  14.779  14.133  0.2129 -0.2572 -0.0291
13750W        W30597  13.955  14.961  14.383 -0.3229  0.0446 -0.0676
13751W        W30598  14.242   6.423   4.985 -0.1545  0.1649  0.3038
13752W        W30599  13.373   0.775   1.579  0.2596 -0.4806  0.0274
13753W        W30600   8.378   3.365  15.201 -0.1277  0.0130 -0.0710
13754W        W30601  13.922  10.599  15.833  0.2530  0.0028  0.1454
13755W        W30602   0.508   3.863  16.270 -0.0926 -0.0060 -0.0101
13756W        W30603  15.879   2.412   4.883  0.1155 -0.0980  0.4663
13757W        W30604   0.989   1.236   6.261  0.0726 -0.3136  0.0406
13758W        W30605   8.585   0.519   0.563  0.0659  0.1293 -0.1939
13759W        W30606   0.220  12.579   0.721  0.0967 -0.2018  0.0445
13760W        W30607   1.518  13.101   3.654  0.2699 -0.0841  0.0321
13761W        W30608   6.963   9.689   4.413  0.2031  0.4153 -0.0504
13762W        W30609  10.764   5.705   0.958  0.0976  0.0034  0.1504
13763W        W30610  16.397  16.444   2.945  0.3099  0.3166  0.0274
13764W        W30611   2.265  16.180   0.794 -0.0580  0.0454 -0.1922
13765W        W30612  16.941  16.526  15.693 -0.0089  0.1087 -0.0353
13766W        W30613   7.226   4.192  13.826 -0.0001  0.3127  0.0071
13767W        W30614  10.124   6.156   1.195  0.1724  0.1949 -0.2003
13768W        W30615  14.040   6.134  12.551 -0.0501  0.2948  0.0650
13769W        W30616   5.187  10.890  15.038  0.0503  0.0105  0.2106
13770W        W30617  15.640   7.210  12.122  0.1764 -0.0490 -0.1215
13771W        W30618  13.580  17.291  14.036  0.0408  0.0783 -0.0204
13772W        W30619   3.582  16.985  11.427 -0.2140 -0.0276  0.2118
13773W        W30620   3.837   4.198  13.081 -0.0259 -0.0396  0.0031
13774W        W30621  12.838  12.629   1.663  0.3160 -0.1381  0.1494
13775W        W30622  14.882   0.187  12.028  0.0022  0.0087  0.0428
13776W        W30623   2.034   5.397   0.517  0.0350  0.1306  0.0220
13777W        W30624  15.975   4.511   3.502  0.0844 -0.0764 -0.0807
13778W        W30625  13.586   8.723  12.454  0.0304 -0.1065 -0.2145
13779W        W30626   7.962  14.703  15.959  0.1421  0.1181  0.0070
13780W        W30627  15.880   4.192  13.205 -0.1153  0.2484 -0.0275
13781W        W30628  12.911  17.034  14.744 -0.2758  0.0284  0.2150
13782W        W30629  16.700  17.953  15.338  0.0879  0.0533  0.0363
13783W        W30630  12.744  13.667   2.811 -0.6071  0.1090  0.2591
13784W        W30631   7.367  17.336  15.337  0.1026  0.0360  0.2141
13785W        W30632  16.505  13.097   3.762  0.2870  0.2136 -0.1492
13786W        W30633  11.250   2.312   1.868  0.0758 -0.0740  0.2592
13787W        W30634  17.065   2.488  15.539  0.0282  0.0888  0.2504
13788W        W30635   8.267   6.828   5.139 -0.0657 -0.0866 -0.1362
13789W        W30636  14.332   9.970   3.066  0.0477  0.1903 -0.1667
13790W        W30637   9.847   0.006   0.338 -0.2621  0.1774  0.0143
13791W        W30638  10.296   0.350  13.273 -0.2753 -0.0972 -0.0685
13792W        W30639  17.789   2.350   0.513  0.0288  0.1551 -0.1606
13793W        W30640  17.560   5.811   2.815 -0.1099 -0.2634 -0.2755
13794W        W30641  17.316   8.706  15.908  0.2156  0.4609  0.0544
13795W        W30642   4.420   1.031  14.838  0.1207 -0.0830 -0.1466
13796W        W30643   5.035  17.779   4.955  0.2044  0.1361  0.0430
13797W        W30644   0.164   9.586   0.543 -0.0275 -0.0119  0.2312
13798W        W30645   2.847  15.495   0.682  0.0641  0.0458  0.4555
13799W        W30646  15.872  13.063   1.366 -0.1141  0.0793 -0.2953
13800W        W30647   6.315   6.661   2.849 -0.0143 -0.0280  0.1656
13801W        W30648   8.356   6.656  11.003 -0.2153 -0.2690  0.1905
13802W        W30649   4.855  11.052  16.567 -0.0199 -0.0546 -0.1729
13803W        W30650   6.847   3.924   4.315  0.0106  0.0858 -0.2341
13804W        W30651   9.083  14.149  11.550  0.0718 -0.2321  0.2456
13805W        W30652   1.874   7.000  15.646  0.0981 -0.1118 -0.0606
13806W        W30653  12.061   8.037   4.001 -0.0111  0.3612 -0.0230
13807W        W30654  13.398  14.844   3.899  0.0071  0.2346  0.3522
13808W        W30655   4.056  15.444  14.665 -0.1186  0.0549  0.2999
13809W        W30656   7.313   2.577   2.837  0.0953 -0.2083  0.1198
13810W        W30657  17.216  12.080  15.423  0.0390  0.1652 -0.0040
13811W        W30658   5.988   1.807  13.284  0.2100  0.1173 -0.1353
13812W        W30659   8.865  11.720  16.030 -0.0147 -0.2307  0.1349
13813W        W30660   7.940   6.980  11.369 -0.0695 -0.0437 -0.3209
13814W        W30661  17.085   5.101  14.130  0.2013 -0.0987 -0.0985
13815W        W30662   3.401  12.998  14.530 -0.1577  0.0122 -0.0212
13816W        W30663  10.091   1.432  11.374 -0.1640 -0.2368 -0.2314
13817W        W30664  13.291  13.651   3.185 -0.2205  0.0527  0.0919
13818W        W30665   0.063   0.758   3.845 -0.2942 -0.0150  0.2013
13819W        W30666  17.544  16.951   0.361 -0.1765 -0.1827 -0.3435
13820W        W30667  13.260  14.604   1.723  0.2015  0.0457  0.0264
13821W        W30668  15.075   2.412   1.338 -0.0527 -0.4793 -0.1456
13822W        W30669   4.293   1.140   0.168 -0.0313 -0.2534  0.0736
13823W        W30670  17.317   4.458   4.758 -0.1535  0.2101  0.1675
13824W        W30671   6.949   5.608   3.392  0.3130  0.1869  0.3168
13825W        W30672   8.636   7.971  10.790  0.0650  0.1092 -0.0662
13826W        W30673   4.391  15.206  14.954 -0.0736  0.0894 -0.1195
13827W        W30674   4.036  17.845  13.153  0.1157  0.1096  0.0330
13828W        W30675  13.296   3.471  12.472  0.3471 -0.2054  0.0120
13829W        W30676   8.462   0.071   4.472  0.0709  0.0238 -0.1191
13830W        W30677  11.327   9.263   3.309 -0.0200 -0.0754 -0.4493
13831W        W30678   3.321   0.086  14.660  0.2075  0.3095 -0.0825
13832W        W30679  10.636   6.908   2.774 -0.2445  0.0302 -0.1524
13833W        W30680  15.663  14.106   5.105 -0.3845 -0.1094  0.0282
13834W        W30681   2.072   4.813   4.798 -0.1316 -0.1487  0.2403
13835W        W30682   2.396  11.143   4.141 -0.0183 -0.0682  0.1274
13836W        W30683   4.758   3.561  12.559  0.0555 -0.0266 -0.0511
13837W        W30684   8.618  16.988  15.459 -0.1187 -0.2921 -0.2895
13838W        W30685   4.146   4.570  15.909 -0.3109 -0.1764  0.0212
13839W        W30686  12.238   8.140   1.973  0.3143  0.3828  0.0802
13840W        W30687  11.989   9.622  15.788 -0.0116 -0.3322 -0.0976
13841W        W30688   9.322  14.295   1.931  0.3776 -0.0389  0.0594
13842W        W30689  10.701   5.480  14.316  0.0093 -0.1640 -0.0964
13843W        W30690  17.889   2.452  13.399 -0.0376  0.3463  0.3111
13844W        W30691   2.560  10.407  13.542 -0.0344  0.1142  0.0111
13845W        W30692   2.940  13.809   4.970 -0.0656  0.1613 -0.0129
13846W        W30693   6.127   9.121   5.309 -0.0004 -0.2404  0.2077
13847W        W30694   3.592  11.774  14.940 -0.0139 -0.1042  0.1463
13848W        W30695   5.022   7.497   4.746 -0.0019 -0.0445  0.0065
13849W        W30696   3.981   5.540  13.326 -0.0983 -0.0585 -0.1477
13850W        W30697  15.459  15.150  15.906 -0.0624  0.0634  0.0523
13851W        W30698   4.334   1.377  15.323  0.2983 -0.0057 -0.0341
13852W        W30699   4.975   7.254   0.143 -0.0728  0.0852 -0.0147
13853W        W30700   5.611   2.024   3.030 -0.3221 -0.0152  0.0769
13854W        W30701   9.634   7.463  14.234  0.0331 -0.1160 -0.3665
13855W        W30702   8.065   3.006  15.017  0.1617 -0.1278  0.3420
13856W        W30703   8.523  13.525   1.274 -0.0138  0.0881  0.4309
13857W        W30704   0.070   2.982   1.546 -0.0418 -0.3311  0.1769
13858W        W30705  14.261   8.147   0.532 -0.1375  0.0356 -0.1303
13859W        W30706   2.757  12.948   2.849 -0.0332 -0.0846  0.2219
13860W        W30707   5.019  13.103  15.333  0.2093 -0.2057  0.1854
13861W        W30708   2.549  15.509   0.290 -0.2610  0.0613  0.0073
13862W        W30709   3.999   3.675   4.868 -0.0540  0.0750 -0.0468
13863W        W30710  16.990  10.223  14.200 -0.2346 -0.0266  0.3630
13864W        W30711   6.370   4.710  14.858  0.0871 -0.1736 -0.0472
13865W        W30712   7.584   8.259   2.658  0.1779 -0.0587  0.1381
13866W        W30713   6.266  11.524   0.261  0.0817  0.2883  0.0159
13867W        W30714  15.177   6.856   5.114 -0.0619  0.0383  0.1653
13868W        W30715  10.585   0.671   1.623 -0.0078  0.0667 -0.2186
13869W        W30716   8.275  14.021  12.195  0.1663  0.2249 -0.0830
13870W        W30717   8.596   1.569   2.275  0.2288 -0.0042 -0.0511
13871W        W30718  17.039   2.972  15.496 -0.0361 -0.1028  0.1712
13872W        W30719   9.664  10.697  12.107 -0.3778 -0.1165 -0.3448
13873W        W30720   5.815  15.770   1.854 -0.2967  0.0905  0.0847
13874W        W30721   3.403   7.103  13.966  0.0097 -0.1956  0.1933
13875W        W30722  11.842  12.302  15.301  0.1571  0.3024 -0.0153
13876W        W30723   7.484   4.837   2.326  0.0309 -0.0964  0.0582
13877W        W30724   7.950   2.255   3.001 -0.2589  0.2158  0.2846
13878W        W30725   6.381  14.797   5.101 -0.0286 -0.0954  0.2756
13879W        W30726   9.953   3.136   3.286 -0.1096  0.0300 -0.0497
13880W        W30727   4.646   8.565   1.340  0.0526  0.1779  0.0171
13881W        W30728  14.688  15.519  16.196  0.0541 -0.0503  0.1314
13882W        W30729  14.769   8.964   2.027 -0.0184  0.0673 -0.0656
13883W        W30730   2.952  15.650   1.633 -0.0558 -0.2893 -0.2503
13884W        W30731   0.392   7.411  14.984  0.2032 -0.1543 -0.0298
13885W        W30732   2.825   1.942  16.440 -0.2298  0.0658 -0.2052
13886W        W30733  17.069  14.948  14.330  0.4899  0.2576  0.2451
13887W        W30734   4.569   7.670   5.737  0.0665  0.1282  0.1728
13888W        W30735   3.543  17.358   1.277  0.0035 -0.2763 -0.0899
13889W        W30736   6.889   4.667   5.636 -0.1279 -0.1486  0.1442
13890W        W30737  15.221   8.700  14.504  0.2692 -0.0177 -0.2208
13891W        W30738   4.803   9.315   3.544 -0.3225 -0.2234  0.0200
13892W        W30739   4.720   5.855   0.326  0.1963  0.1928  0.0063
13893W        W30740   0.680   9.303   1.343  0.1147 -0.1012  0.1042
13894W        W30741  13.002  17.931  13.354  0.0806 -0.2851 -0.0757
13895W        W30742   0.694   4.540   1.654  0.2723 -0.2499 -0.0727
13896W        W30743   4.268  11.753   6.221 -0.1347 -0.0885  0.1587
13897W        W30744  15.152  10.872  11.629  0.2570  0.4957 -0.0853
13898W        W30745   3.022   3.837  15.832 -0.2931  0.1726 -0.0984
13899W        W30746   1.638  16.077   1.793 -0.1635 -0.0687 -0.3728
13900W        W30747   6.378   8.329  16.491  0.0108 -0.1891  0.1663
13901W        W30748   4.387  17.691   1.322 -0.2983 -0.0621  0.0870
13902W        W30749  10.978   7.654  12.746 -0.0123  0.1116 -0.1077
13903W        W30750   0.051  15.855   0.682  0.1340 -0.2197  0.0739
13904W        W30751   3.508   0.980  12.658 -0.2661  0.0133 -0.1551
13905W        W30752  14.221   9.619   0.311 -0.1163  0.4781  0.2018
13906W        W30753  10.400  11.807  13.657  0.2043 -0.1381 -0.2482
13907W        W30754   0.489  11.399   6.282 -0.0916 -0.0224 -0.1669
13908W        W30755  15.487   4.203   0.288  0.0093 -0.1411  0.2730
13909W        W30756   2.161   7.560   4.977  0.0452  0.0384  0.0415
13910W        W30757   5.503  16.284   2.754 -0.1679  0.2207  0.4411
13911W        W30758  12.347   9.480  15.297 -0.2419  0.0945  0.2300
13912W        W30759  12.038  16.390  15.764  0.0544  0.0537 -0.2009
13913W        W30760   5.299   2.925   0.924 -0.1409 -0.0302  0.0437
13914W        W30761   8.266   8.999   3.884  0.0080  0.0672 -0.2717
13915W        W30762   2.103   7.512  13.283 -0.3206  0.1278 -0.2489
13916W        W30763  14.747   5.864  11.945 -0.0805 -0.1725  0.1066
13917W        W30764   7.280  10.756  16.116  0.3865 -0.1022  0.1981
13918W        W30765   5.304  11.703   1.916 -0.2359 -0.1436 -0.2538
13919W        W30766   3.288   3.155  12.023  0.0029  0.0763 -0.1897
13920W        W30767   8.178  11.984   2.092 -0.3397  0.5333 -0.1383
13921W        W30768   0.445   7.294   4.996  0.1156  0.0583 -0.0469
13922W        W30769   4.891  17.153   3.182  0.2779  0.1978  0.1684
13923W        W30770   1.525   2.608  12.938  0.0515  0.1156 -0.0851
13924W        W30771   7.948  10.543   2.314  0.0971  0.2200  0.0908
13925W        W30772  12.191   0.601  15.938  0.1618  0.3726 -0.2418
13926W        W30773  12.539  13.585   6.039  0.0380  0.0126 -0.3737
13927W        W30774   3.237   6.269   3.592  0.0641  0.1685 -0.0412
13928W        W30775   0.564  15.289   0.148 -0.1088  0.2215 -0.1174
13929W        W30776   7.014   7.536   5.198  0.1071  0.0577  0.1774
13930W        W30777   2.075   1.668  11.760  0.1068  0.0204  0.1476
13931W        W30778   3.603   3.587   2.839  0.0032 -0.0078 -0.1755
13932W        W30779   5.182   4.598   2.513 -0.0787  0.3125 -0.0311
13933W        W30780  16.061  17.791   1.719 -0.0844 -0.0264 -0.0462
13934W        W30781   0.676   8.187   4.094 -0.1613  0.0989  0.1807
13935W        W30782   1.597  12.980   4.801 -0.1217  0.0426 -0.0304
13936W        W30783   0.709   9.250  16.389 -0.0291 -0.0655  0.2834
13937W        W30784   5.131   4.016  11.777 -0.2214  0.1156 -0.1058
13938W        W30785  11.692   2.586  11.625 -0.4468 -0.0911 -0.2164
13939W        W30786  13.762   6.740  12.793 -0.1465 -0.2666 -0.0037
13940W        W30787   5.842   4.704   3.014 -0.0573  0.3434 -0.1979
13941W        W30788  17.962   1.537   3.754 -0.4686 -0.2790 -0.0852
13942W        W30789   0.861   3.710   2.390 -0.0159  0.2757 -0.2301
13943W        W30790  13.127  11.723  15.406 -0.2958  0.3842  0.2122
13944W        W30791  15.946   0.217  11.609  0.0606  0.0689  0.1197
13945W        W30792   4.828  13.085   0.298 -0.1169 -0.0682  0.1217
13946W        W30793   1.464  10.020  15.812  0.3391  0.1387  0.2156
13947W        W30794   9.448   1.888  15.250 -0.2707 -0.2620 -0.0320
13948W        W30795   3.777  14.014  16.163  0.2140 -0.2876 -0.1872
13949W        W30796  16.003   0.877   3.032 -0.1698 -0.2135  0.0745
13950W        W30797   6.305  16.963   1.682  0.2109 -0.0898  0.2531
13951W        W30798   9.630   4.675  16.003  0.1674  0.2344 -0.0522
13952W        W30799   5.566  13.865   1.627 -0.0939  0.0968 -0.2076
13953W        W30800   1.533   8.946  16.217 -0.0184  0.1275  0.2352
13954W        W30801  14.159  11.752   4.920  0.0723 -0.1450 -0.0042
13955W        W30802   4.983  17.384   1.498  0.0557  0.3026  0.0705
13956W        W30803   6.688   2.273   2.066 -0.0705 -0.0503 -0.2810
13957W        W30804  12.225   2.753  15.133  0.0720 -0.2050 -0.0830
13958W        W30805   1.992   2.902  11.833 -0.2638  0.2319 -0.0747
13959W        W30806   2.527   3.041   0.827 -0.0774 -0.2053  0.0950
13960W        W30807   1.844   1.967  14.021 -0.1915  0.1454 -0.2620
13961W        W30808   6.925   8.124  14.208  0.0104  0.0424  0.1729
13962W        W30809   4.695   9.670   5.393 -0.1104  0.0574  0.3154
13963W        W30810   7.010  12.178   5.313  0.0184  0.0397  0.0701
13964W        W30811   1.095   1.733   6.294  0.2641 -0.0929  0.0846
13965W        W30812   4.498   5.053   2.700  0.0965 -0.7720  0.0525
13966W        W30813  10.023  12.716   3.700  0.1892  0.1707 -0.1472
13967W        W30814  15.705   4.359  15.997 -0.0069  0.1054 -0.3453
13968W        W30815  17.478  11.681  15.474 -0.0851 -0.1141 -0.2295
13969W        W30816   1.025   7.470  12.305 -0.1962  0.1917  0.0857
13970W        W30817  16.508  16.450   4.783  0.1224 -0.0526  0.1281
13971W        W30818   0.433   2.035   4.885 -0.3748 -0.2028 -0.3723
13972W        W30819  14.217   8.614  11.714 -0.0821  0.0844 -0.1325
13973W        W30820  10.335  18.064  15.535  0.1548 -0.2284  0.1785
13974W        W30821   3.081   7.845  13.975  0.0192  0.2164 -0.0145
13975W        W30822   2.222  14.793   5.288 -0.1632  0.0980  0.2567
13976W        W30823  17.878  12.276   4.194 -0.0455 -0.2118 -0.1031
13977W        W30824   7.339   2.005   4.133 -0.0304  0.1724  0.2417
13978W        W30825  13.790   1.719  11.590 -0.2798 -0.3373 -0.3763
13979W        W30826   6.386   1.924   3.279  0.0326  0.1338 -0.1389
13980W        W30827  11.686   5.894  13.080  0.1021 -0.1433 -0.0104
13981W        W30828   6.639  18.091  14.755 -0.0511 -0.0932 -0.1166
13982W        W30829   7.267   1.625  15.312  0.0446 -0.0342  0.1475
13983W        W30830   5.211  15.885   0.679  0.0574  0.2217 -0.1772
13984W        W30831  10.455   0.701   2.661  0.0969 -0.1643  0.0467
13985W        W30832  11.283   7.620  13.189 -0.2666 -0.1333 -0.0912
13986W        W30833   8.442  13.206   1.962  0.0361 -0.2066  0.1301
13987W        W30834   1.665   6.668  13.860  0.0359 -0.0405 -0.3239
13988W        W30835   2.648  18.052  12.251 -0.0181 -0.1112  0.0579
13989W        W30836   5.986  14.445  12.500  0.1289 -0.0676  0.0756
13990W        W30837  16.797   1.936  16.155 -0.0540 -0.1518 -0.2129
13991W        W30838   0.862   7.421  16.237  0.1116 -0.2155  0.0505
13992W        W30839   4.066  11.544   3.325  0.0175 -0.2070 -0.1065
13993W        W30840  12.893  12.294   4.941  0.0298  0.3576 -0.3486
13994W        W30841  12.940  10.421   4.706 -0.1590  0.2447 -0.0045
13995W        W30842  14.465   4.584  16.558 -0.0472  0.5159 -0.5631
13996W        W30843   8.954   9.314   0.652 -0.0051 -0.2457  0.2225
13997W        W30844   8.199   5.701   1.566  0.1330 -0.0412  0.2340
13998W        W30845   6.622   4.315  12.007  0.0159  0.3424 -0.3436
13999W        W30846   1.789  18.124  14.492 -0.0805 -0.1550  0.0018
14000W        W30847  12.141  17.036   1.469  0.1854 -0.2143 -0.0417
14001W        W30848  17.920   8.004   2.741  0.1775 -0.2254  0.0889
14002W        W30849   2.874  13.087   5.385  0.0153 -0.1577  0.0510
14003W        W30850   3.702   8.259   2.790  0.2944 -0.2356  0.2014
14004W        W30851  12.591   4.295  13.134 -0.0112  0.0997 -0.2510
14005W        W30852  14.070  11.984   4.488 -0.0500  0.1625 -0.3515
14006W        W30853  12.281  11.417   3.292  0.1035  0.2548 -0.0078
14007W        W30854  17.313   6.828  13.345  0.2894  0.0417  0.0678
14008W        W30855   8.392   6.944  11.620  0.1856  0.0656 -0.2900
14009W        W30856  14.957   4.362   1.908 -0.0074 -0.1948  0.2158
14010W        W30857   3.360   0.468   2.608 -0.1943 -0.3420  0.1095
14011W        W30858   6.800   3.382  12.534 -0.1245  0.0495 -0.2291
14012W        W30859   0.562   8.312   1.434 -0.1258  0.1198  0.1414
14013W        W30860  17.252  16.345   5.818  0.2782  0.1284  0.2964
14014W        W30861   1.305   5.459  13.494  0.4538  0.1763 -0.0055
14015W        W30862   3.243  13.735   4.040 -0.2103  0.1502  0.1412
14016W        W30863   3.647  17.159   2.523  0.3155  0.2368 -0.6019
14017W        W30864   1.927   6.191   3.708 -0.1944 -0.2323 -0.0550
14018W        W30865  17.635   4.276  14.491 -0.0574 -0.0045 -0.0472
14019W        W30866   8.113   4.914  13.114  0.0679 -0.0746 -0.5121
14020W        W30867  17.755  12.889  11.906 -0.0215  0.3735  0.2162
14021W        W30868  10.725  14.262  14.878  0.0982  0.2087  0.2118
14022W        W30869  15.436   2.730  16.270 -0.1603 -0.1702  0.2437
14023W        W30870   7.685   5.325  15.306 -0.2027  0.0540  0.0982
14024W        W30871  15.672   8.702   4.847  0.4353 -0.2227  0.1820
14025W        W30872  10.243   1.751   0.056 -0.2189  0.0349  0.0058
14026W        W30873   1.621   9.927   2.619  0.0555 -0.0860  0.0314
14027W        W30874   8.191   7.999  16.143  0.0721  0.1054  0.0460
14028W        W30875  17.436  11.329  14.547 -0.0388 -0.0367 -0.0071
14029W        W30876   2.726   2.420  11.733 -0.1167 -0.1658  0.0302
14030W        W30877   8.268  17.159   1.665 -0.0088 -0.1292 -0.0823
14031W        W30878   9.239  13.538  13.196  0.2853  0.3246  0.0937
14032W        W30879  10.617   7.820   4.262  0.1495 -0.0537  0.2696
14033W        W30880   6.685   2.143   0.480  0.2127 -0.2353  0.1230
14034W        W30881  17.994   9.949   4.040  0.5006  0.0494  0.1730
14035W        W30882   4.485   6.876   1.344  0.2866 -0.1347 -0.0092
14036W        W30883  14.670   5.268  14.970  0.0562  0.1181 -0.2227
14037W        W30884  18.043   6.148  13.681  0.1072  0.2476 -0.0193
14038W        W30885  10.565   9.837  15.197  0.1498  0.3985 -0.1298
14039W        W30886  13.329  10.135   2.010  0.0851  0.0529 -0.1471
14040W        W30887  13.629  16.836  13.081  0.0045  0.2604 -0.2722
14041W        W30888   2.382   2.383   4.603  0.0919 -0.0260  0.1781
14042W        W30889  13.638  10.059   4.017 -0.0355 -0.0701 -0.1682
14043W        W30890  10.950  10.615  13.307  0.1396 -0.1107  0.0731
14044W        W30891  16.121   4.795  15.947  0.0681 -0.2254 -0.0536
14045W        W30892   8.509   5.721  13.668 -0.5478 -0.2435  0.0155
14046W        W30893  13.782  16.903   1.541  0.0033 -0.4293  0.3155
14047W        W30894  14.660   2.273  14.051 -0.0715  0.5830 -0.0655
14048W        W30895   5.113  11.450  15.338 -0.1744  0.1257  0.4020
14049W        W30896  11.214  11.901  11.553 -0.0207 -0.3390 -0.2160
14050W        W30897   0.625  17.217  11.717  0.2465  0.3081 -0.1670
14051W        W30898   6.007  11.424  11.809 -0.1602 -0.0756  0.0012
14052W        W30899  11.486   9.936   0.744  0.1483  0.0682  0.1410
14053W        W30900   8.569  15.239  12.942 -0.2776 -0.2943 -0.1588
14054W        W30901   0.033  14.107   0.419  0.1326  0.2336  0.0726
14055W        W30902  13.161  17.008   0.365 -0.0590 -0.2107  0.0488
14056W        W30903   4.110   9.844   3.657  0.0440  0.0297  0.0773
14057W        W30904  17.287   8.748   0.249  0.0346  0.0889  0.3463
14058W        W30905   8.004  12.981   0.895 -0.2237  0.0898 -0.2305
14059W        W30906  10.523  15.545  14.386  0.0676  0.0962  0.2143
14060W        W30907  17.633  13.490   5.324  0.0127  0.0856  0.2160
14061W        W30908  10.280   7.902  12.129 -0.0005  0.0026  0.0135
14062W        W30909  12.562   7.310  11.844 -0.1208  0.3112  0.0789
14063W        W30910  15.560   6.376  14.400  0.0647  0.1029 -0.2005
14064W        W30911   6.050  10.957  15.007 -0.1191 -0.1937 -0.2720
14065W        W30912   9.489  15.004  12.479 -0.2158  0.0445 -0.1463
14066W        W30913  15.541   6.248   2.806  0.0402 -0.1702 -0.3992
14067W        W30914  12.193   4.112  11.214  0.0655 -0.2372 -0.1009
14068W        W30915  17.124  10.694   3.096  0.2176  0.4028 -0.0012
14069W        W30916   2.342   9.398   3.612 -0.0550 -0.0704  0.1223
14070W        W30917  10.520   6.485   0.009  0.3742 -0.1381 -0.3801
14071W        W30918   4.169  16.648   6.358 -0.1592  0.0494  0.1414
14072W        W30919  17.112  10.709   5.926 -0.3228  0.1556  0.2904
14073W        W30920  13.300   7.506  12.427 -0.1749  0.0568  0.2073
14074W        W30921  11.202   0.047  13.731  0.1692  0.0532 -0.1129
14075W        W30922   1.310  12.058  12.483  0.1434  0.0073  0.0308
14076W        W30923   8.537   5.132   3.061 -0.0541  0.1047 -0.1172
14077W        W30924  11.369  14.987   2.130  0.4731 -0.0397  0.0321
14078W        W30925   3.259  11.538   0.924 -0.2138 -0.1762  0.1161
14079W        W30926   9.151  11.558   5.621  0.0772  0.1985  0.2690
14080W        W30927   7.559   6.095  16.519 -0.1351  0.1756  0.0461
14081W        W30928  14.539   9.874  16.452  0.1266 -0.1846  0.2696
14082W        W30929   3.658   3.693   0.882  0.1446  0.1712  0.1113
14083W        W30930   0.659   5.881  12.803  0.1143 -0.1313  0.1988
14084W        W30931   0.971   9.901  13.651  0.0419  0.3703  0.2865
14085W        W30932   6.886   1.552  14.596  0.0647 -0.0892  0.2381
14086W        W30933   3.322  17.503   5.937 -0.1326 -0.0941 -0.2360
14087W        W30934   1.214  11.309  12.784 -0.0973  0.0653 -0.1428
14088W        W30935   5.463  12.851  13.467  0.1467 -0.0039 -0.3126
14089W        W30936   2.199   0.704   4.287  0.1528  0.1563  0.0724
14090W        W30937  15.848  14.807   1.635  0.3147 -0.1257  0.2614
14091W        W30938  15.536  10.142  14.186  0.1499  0.0535 -0.1106
14092W        W30939   8.460   4.179  15.613 -0.0287  0.0288  0.2212
14093W        W30940   2.624   9.026   2.271  0.2112 -0.1600  0.0803
14094W        W30941   9.578  13.449  11.458 -0.1463  0.2341 -0.1860
14095W        W30942  14.031   3.705  11.379  0.1934 -0.0032 -0.1898
14096W        W30943   5.870   4.463   1.852 -0.1009  0.0770  0.1738
14097W        W30944  13.246  15.685   2.584 -0.0575  0.0309  0.1374
14098W        W30945   5.665  13.264   5.651 -0.1366  0.0209  0.1123
14099W        W30946   8.624  14.314  14.155  0.2187 -0.1442  0.1625
14100W        W30947   0.228  14.502  13.531  0.0852 -0.0428  0.2018
14101W        W30948  18.155  10.462  12.906 -0.0667 -0.1418  0.1246
14102W        W30949   5.570   2.302  13.840  0.1478  0.1291  0.0129
14103W        W30950  12.342  18.048  13.809  0.0698 -0.4104  0.0973
14104W        W30951   9.238   1.574  11.606 -0.1341  0.0735 -0.0447
14105W        W30952  11.058   9.830  13.571  0.1040 -0.1683  0.0544
14106W        W30953   2.392   0.885   2.023 -0.0498  0.2237  0.1024
14107W        W30954  10.126   6.885   3.472 -0.1408  0.0395  0.2665
14108W        W30955  13.882   4.795  14.803 -0.0592 -0.1726  0.0145
14109W        W30956  15.727  13.966  12.249 -0.2991 -0.1090  0.1612
14110W        W30957   6.153   6.540  14.489  0.2086  0.0762 -0.0202
14111W        W30958  15.122   6.293   1.427  0.0294  0.3156 -0.2960
14112W        W30959   3.037   0.230   1.550  0.3465 -0.0532 -0.0313
14113W        W30960   8.305   2.113  11.824 -0.2791 -0.1660 -0.3096
14114W        W30961  15.966   6.907   2.299  0.2187  0.2417 -0.0223
14115W        W30962  11.207  17.438   2.598  0.1477  0.0804  0.2913
14116W        W30963   6.905   5.732   1.479 -0.2155 -0.0990  0.1313
14117W        W30964  17.125  12.233   0.043 -0.2055  0.0673 -0.0521
14118W        W30965  12.613   7.340   4.409 -0.1316  0.1956 -0.0933
14119W        W30966  12.789   7.449   1.253  0.3043 -0.1073 -0.2612
14120W        W30967  12.310  13.568   0.755  0.1222 -0.0419 -0.1663
14121W        W30968  16.144  12.714  11.725 -0.0479 -0.0913  0.1409
14122W        W30969  14.075  13.470   4.888  0.0035 -0.0678 -0.3349
14123W        W30970  13.803  13.515   0.074  0.1524 -0.0499 -0.1602
14124W        W30971   5.126   5.599   5.609 -0.1766 -0.0123 -0.1742
14125W        W30972   8.084  12.716  14.828 -0.1994  0.0147  0.0636
14126W        W30973  16.752  15.187  15.623 -0.2286  0.3475  0.0493
14127W        W30974  15.827  17.683   0.582  0.1104  0.0325  0.2875
14128W        W30975   5.777  10.630  13.722  0.1208  0.0987  0.1606
14129W        W30976  16.981  15.130   3.104  0.0102  0.3570 -0.2416
14130W        W30977  14.098   2.225   3.787 -0.0412 -0.1928 -0.1816
14131W        W30978   6.291   3.914   5.152 -0.4062  0.0106  0.0219
14132W        W30979  11.646  11.125  14.301 -0.1501  0.2208 -0.0360
14133W        W30980  10.943   9.744  13.135 -0.2291 -0.1422  0.2948
14134W        W30981   9.656  12.799   2.343  0.3714 -0.0821 -0.0124
14135W        W30982  15.943   7.360  13.642 -0.0447 -0.2216 -0.2674
14136W        W30983   7.666  11.342   1.210 -0.0022 -0.1665 -0.1493
14137W        W30984   9.035   6.685   5.308  0.2122  0.0501  0.1408
14138W        W30985   7.173  17.605   5.929 -0.1503 -0.2163 -0.1989
14139W        W30986   7.410   4.675  11.909  0.0178  0.0826 -0.3022
14140W        W30987   0.670   6.347   4.491  0.1645 -0.3903 -0.1561
14141W        W30988  13.131   0.185  15.695  0.0588 -0.2215 -0.2176
14142W        W30989  15.341  15.032   3.974  0.0400 -0.0931  0.1818
14143W        W30990   4.090  11.815   1.278  0.0212 -0.0683  0.1827
14144W        W30991   6.355  17.896  14.341  0.0175  0.1466 -0.0489
14145W        W30992   4.157  12.004   4.383  0.2327 -0.1847 -0.1590
14146W        W30993   1.563   1.839   4.543  0.5343 -0.0329  0.1060
14147W        W30994  16.287  12.822  14.202 -0.2134 -0.2610 -0.0163
14148W        W30995   4.766   7.829   3.690  0.0513 -0.2456  0.4307
14149W        W30996  10.981  15.063  15.869 -0.2552  0.2931 -0.2972
14150W        W30997  15.281   2.692   5.618 -0.1272  0.0103 -0.1813
14151W        W30998  15.529  11.550   2.425  0.3015  0.0722 -0.0827
14152W        W30999  16.812   7.142  12.337 -0.0012 -0.1736 -0.0649
14153W        W31000  11.481  12.990  16.347 -0.1657 -0.0647  0.2789
14154W        W31001   5.832  16.217  14.639  0.0599 -0.1319 -0.1832
14155W        W31002   0.746   5.420  16.506 -0.0500 -0.0600  0.1453
14156W        W31003   8.613   5.330  12.551 -0.0548 -0.0390 -0.0033
14157W        W31004   5.194   6.854   0.902 -0.2062 -0.1283 -0.0190
14158W        W31005  17.479  12.712   3.200 -0.1769 -0.0680  0.3123
14159W        W31006  13.335   6.830  14.655 -0.1035  0.0897 -0.4492
14160W        W31007   5.884   9.048   3.797  0.0808  0.1209 -0.0375
14161W        W31008  11.641  18.151   5.022 -0.0194 -0.0123  0.2073
14162W        W31009   3.578  11.113  16.122  0.2099  0.2249  0.0873
14163W        W31010  14.878   7.015   5.841 -0.1366  0.0190 -0.3118
14164W        W31011   5.557   5.831   4.130 -0.2163 -0.5278 -0.2150
14165W        W31012  17.307  10.938   1.882 -0.0117  0.0120  0.1408
14166W        W31013  12.913  16.632   4.498  0.1489 -0.2271  0.0094
14167W        W31014   7.888   3.977   0.374 -0.0750 -0.2432  0.0492
14168W        W31015   7.241   0.788   6.151 -0.1697 -0.0431 -0.1262
14169W        W31016   7.813   4.457   0.387 -0.0548 -0.0519 -0.2169
14170W        W31017   7.789  12.582  13.911 -0.0655 -0.4447  0.0308
14171W        W31018   0.722  10.883   0.420 -0.0621 -0.1887 -0.3544
14172W        W31019   1.567   3.314   2.997 -0.0071 -0.2122  0.1183
14173W        W31020   7.197   6.038  12.011  0.0259 -0.0574 -0.4408
14174W        W31021   0.957   6.594  14.128  0.0606 -0.1985 -0.1617
14175W        W31022   0.878   8.146  15.613 -0.0398 -0.0876  0.2143
14176W        W31023   9.407   0.600  15.040  0.0605  0.2468 -0.0621
14177W        W31024   7.920   2.969   3.647  0.1110 -0.1059 -0.1784
14178W        W31025   2.495   4.692  14.886 -0.0748 -0.1979 -0.0994
14179W        W31026   3.289  12.406  13.024 -0.0737 -0.1926 -0.1003
14180W        W31027   1.527  13.966   2.538  0.1937  0.1085 -0.3489
14181W        W31028   0.071   9.979  12.243 -0.3227  0.1094 -0.2735
14182W        W31029  14.701  14.691   5.575 -0.1845 -0.0645  0.0523
14183W        W31030   2.180   9.495   5.623 -0.1772 -0.0536  0.2351
14184W        W31031  13.766   5.128   3.761  0.3069 -0.0444 -0.2687
14185W        W31032  16.291  17.082  14.602 -0.0187 -0.1484  0.3116
14186W        W31033  14.581   3.403   5.659 -0.2402 -0.1451  0.0272
14187W        W31034   8.375  14.293  14.604  0.0874 -0.1752 -0.1058
14188W        W31035   8.059  17.880  15.612 -0.0126 -0.3267  0.0056
14189W        W31036  13.224   4.552  15.975  0.2466 -0.2291 -0.2215
14190W        W31037   6.366   9.506   5.117  0.1190 -0.1490 -0.0644
14191W        W31038  15.638  15.509   5.927 -0.3458  0.0693 -0.2033
14192W        W31039  17.671   2.034  16.016  0.0065 -0.1236  0.2153
14193W        W31040   2.687  16.164  12.340 -0.0663 -0.0238  0.0454
14194W        W31041   8.408  14.539  16.244  0.0852  0.3120 -0.1511
14195W        W31042   1.124   0.111   4.296 -0.1187  0.1882 -0.4206
14196W        W31043  17.066  17.385   5.745  0.0302 -0.1455 -0.2629
14197W        W31044   4.278   7.825   1.778 -0.1853  0.0396 -0.0487
14198W        W31045   6.662  16.088  12.273 -0.1984 -0.1561  0.0715
14199W        W31046   6.465   7.064   0.415 -0.0158 -0.0764  0.2817
14200W        W31047  14.618   6.778  12.262 -0.2267 -0.3880 -0.0527
14201W        W31048  12.830   7.065   0.494 -0.1373  0.1382  0.2539
14202W        W31049  12.863   5.716  12.228 -0.1193  0.0131  0.1902
14203W        W31050  17.149  14.353  12.021 -0.0021  0.0583  0.1436
14204W        W31051  11.018   8.771  15.385  0.1210 -0.0955  0.2494
14205W        W31052   0.319   2.170   1.543 -0.2638  0.0499 -0.0242
14206W        W31053  10.842   3.038   2.152 -0.2441 -0.0136 -0.0924
14207W        W31054  10.163  10.060   4.773  0.0722 -0.0164 -0.2117
14208W        W31055  15.903   3.791   0.333  0.1298  0.0148  0.2642
14209W        W31056  16.075  13.031   0.667 -0.1562 -0.4346 -0.0457
14210W        W31057   1.436   9.854  11.746 -0.1181  0.0275 -0.1804
14211W        W31058   2.906   6.853  13.978  0.2965 -0.1737 -0.1525
14212W        W31059  14.441  11.745   3.101  0.2174  0.1942 -0.0971
14213W        W31060   2.379  14.694  13.167 -0.0900  0.1022  0.0031
14214W        W31061   0.017   7.856   3.211  0.1110  0.0311 -0.1898
14215W        W31062   4.505   8.297  13.625 -0.0552 -0.1688  0.0852
14216W        W31063   3.844   1.895   2.786  0.0170  0.2508 -0.0982
14217W        W31064   6.057  11.550   1.226  0.2514  0.1691 -0.1101
14218W        W31065   8.922  10.990  14.031  0.1236 -0.0666  0.1032
14219W        W31066  14.858  12.535   0.796  0.2817  0.2401 -0.2846
14220W        W31067   3.156   1.489  12.644 -0.0936 -0.0561 -0.0303
14221W        W31068   0.138  12.669   2.481 -0.1960  0.0543  0.0500
14222W        W31069  11.756  15.927   1.800 -0.0390  0.0189 -0.0127
14223W        W31070  14.304   2.013   1.372 -0.0913  0.1043 -0.1895
14224W        W31071   0.905  15.351  11.948  0.0323 -0.0244 -0.0639
14225W        W31072  10.148   6.681   0.628 -0.3420  0.2901  0.1086
14226W        W31073   4.457  14.308  14.811  0.2361 -0.2195 -0.3772
14227W        W31074   8.615   8.190   1.425 -0.1432 -0.1040 -0.0087
14228W        W31075  15.525   4.928  11.593  0.5046  0.1043  0.2768
14229W        W31076  13.513  10.505  14.111 -0.1056 -0.0585 -0.1786
14230W        W31077   0.500  14.365  15.705 -0.1595  0.1101  0.0736
14231W        W31078  17.544  17.124  14.213  0.2222  0.2272  0.0950
14232W        W31079   2.969  13.244   4.863  0.0860 -0.2293 -0.0082
14233W        W31080   0.674   5.085   2.910 -0.0215 -0.2815 -0.0807
14234W        W31081   6.341   6.753  15.536  0.2963 -0.1038  0.0151
14235W        W31082   2.282   7.382  14.705 -0.0217  0.3219  0.2861
14236W        W31083  11.724   2.817   3.954 -0.0904  0.0835  0.0145
14237W        W31084   9.741  12.260  10.553  0.0167 -0.0495 -0.0404
14238W        W31085  14.028   3.696   2.976 -0.0953  0.0089 -0.0418
14239W        W31086   6.983  17.774   4.612  0.1577 -0.2716  0.2591
14240W        W31087  10.335  15.681   2.335  0.2455  0.0359 -0.2756
14241W        W31088  10.738   0.601  11.884  0.1197  0.2378  0.0522
14242W        W31089  11.088  17.829   0.246  0.1061 -0.2355 -0.2642
14243W        W31090   0.018  18.141   1.531  0.0587 -0.1173 -0.4199
14244W        W31091  16.081   9.650   4.990 -0.3343  0.0267 -0.2607
14245W        W31092   7.253  11.746   4.100  0.2567  0.1191 -0.1373
14246W        W31093   3.365  11.682   2.970 -0.0824 -0.0651  0.1659
14247W        W31094   9.986   2.552  14.079 -0.0668 -0.0120  0.0389
14248W        W31095   0.068  10.757   3.632 -0.2373  0.1308 -0.0951
14249W        W31096   1.114  16.037   2.039 -0.1748 -0.0330 -0.0745
14250W        W31097   4.363  13.651  16.400 -0.1631  0.0142 -0.1154
14251W        W31098   6.742   6.532   3.766 -0.1491  0.0224  0.2475
14252W        W31099   5.104   9.241   4.447  0.1934  0.1376 -0.2860
14253W        W31100  11.502   4.641  13.735 -0.3232 -0.2863 -0.0932
14254W        W31101   4.197  16.946   1.667 -0.1914 -0.0763 -0.0864
14255W        W31102   3.236  17.914  13.352 -0.0364  0.0070 -0.1686
14256W        W31103   8.190   7.062   5.583 -0.1754  0.0698  0.0470
14257W        W31104   7.143  13.125   2.060 -0.1047  0.1667  0.0393
14258W        W31105   7.356  15.161   4.354 -0.0338 -0.0694  0.1607
14259W        W31106  13.090  14.283   2.127 -0.5331  0.2261  0.0863
14260W        W31107   4.601   1.671  12.579  0.0301  0.0239  0.1474
14261W        W31108   8.886   9.059  15.783 -0.1791 -0.0094  0.2183
14262W        W31109   2.793   2.155  13.188 -0.1387  0.0275 -0.1755
14263W        W31110  10.613   7.954   4.763 -0.1829 -0.1790 -0.2264
14264W        W31111   8.107  14.159  15.997 -0.1618 -0.0067 -0.3081
14265W        W31112  13.872   5.213   0.674 -0.1689  0.1239  0.0761
14266W        W31113   2.642   8.817   3.224  0.2195  0.5192 -0.4331
14267W        W31114   9.158   9.247  14.555  0.0877  0.0447 -0.3224
14268W        W31115   0.669  15.363  14.997  0.0557  0.0124 -0.3700
14269W        W31116  11.000   1.480   1.223  0.2198 -0.2182  0.0229
14270W        W31117   2.417   4.563  15.408 -0.0062 -0.1382  0.0999
14271W        W31118   8.670  16.687  15.042 -0.1526 -0.2864 -0.1536
14272W        W31119  17.034   3.853   1.597 -0.2184 -0.0696  0.1030
14273W        W31120  15.330   5.522  12.896  0.0418 -0.1432  0.2159
14274W        W31121   5.962   2.242  12.130  0.2179 -0.1422 -0.0474
14275W        W31122  15.359  13.134  13.700 -0.0358  0.2300  0.1876
14276W        W31123  15.268  17.430  15.419 -0.1371  0.1813  0.1215
14277W        W31124  14.198   9.879  14.509 -0.1622 -0.1058 -0.1909
14278W        W31125   6.436   9.381  13.998 -0.2052 -0.0199  0.0208
14279W        W31126   1.116   5.469  15.855  0.0619 -0.1509  0.0689
14280W        W31127   8.617   0.538  14.371 -0.2010 -0.0221  0.0318
14281W        W31128  12.728  11.892   0.747 -0.0065  0.1474  0.1349
14282W        W31129   5.936  12.959   3.715 -0.0845 -0.1507 -0.0610
14283W        W31130   5.627   6.824   3.666 -0.1055 -0.2270 -0.1839
14284W        W31131  13.638  13.930  12.489  0.2928 -0.3707 -0.1171
14285W        W31132  14.142   6.336   2.937  0.0185  0.5670  0.0335
14286W        W31133  15.187   2.675   4.706  0.3887  0.0688  0.0281
14287W        W31134  17.888   5.452   0.017 -0.1206  0.2580  0.0508
14288W        W31135  15.601  17.251  13.665  0.1645  0.0463  0.2108
14289W        W31136   3.259   0.200   5.405  0.1042  0.2630  0.1327
14290W        W31137   5.546   1.025  15.932 -0.0174  0.2199 -0.0267
14291W        W31138   2.272   6.531   3.783  0.1981 -0.1510 -0.1759
14292W        W31139  17.705   1.737   0.617  0.1330 -0.0892 -0.4210
14293W        W31140   5.378  16.384   0.109  0.1488  0.2545  0.1063
14294W        W31141  12.740  11.881  11.809  0.0571 -0.2471  0.0375
14295W        W31142  10.341   2.050  14.226  0.1470 -0.0107 -0.2583
14296W        W31143   9.592  18.126   1.667  0.1275  0.1180 -0.2506
14297W        W31144  16.943   9.003   4.940 -0.0482 -0.3125 -0.1428
14298W        W31145  12.030   6.216   1.096 -0.2384 -0.4543 -0.0107
14299W        W31146   5.894   2.526   5.682 -0.1452 -0.1051 -0.0613
14300W        W31147  12.064  10.341   0.445 -0.2431 -0.0789 -0.0870
14301W        W31148  10.732   9.093  12.741  0.2462 -0.2136 -0.3180
14302W        W31149   6.318  16.637  14.858 -0.0447  0.1900  0.0682
14303W        W31150   6.745   3.171   0.585 -0.1935  0.1780 -0.1823
14304W        W31151   4.169   5.881  16.480  0.0654  0.0168 -0.1339
14305W        W31152  12.847   2.808  13.695  0.0867  0.1962 -0.2677
14306W        W31153  17.101  17.870  13.948  0.0531  0.0281 -0.0862
14307W        W31154   3.796  14.545  16.250 -0.0176  0.0091 -0.0652
14308W        W31155  10.895  16.905   2.810  0.1537  0.0816 -0.2681
14309W        W31156   1.777  13.956  13.903 -0.4104  0.1902  0.0305
14310W        W31157   5.990  15.486   1.019 -0.4276  0.0204 -0.1044
14311W        W31158  11.134  11.496   4.703  0.1016  0.2258 -0.1565
14312W        W31159   6.094   0.216   4.323 -0.0602  0.1290 -0.1712
14313W        W31160   5.991   7.122   2.144 -0.1947 -0.2279 -0.0364
14314W        W31161   7.704  10.530  12.210  0.0335 -0.1547 -0.1215
14315W        W31162  17.249  15.660   3.327 -0.0060 -0.2074 -0.0634
14316W        W31163   7.842  13.218  14.946 -0.1843 -0.0721  0.1603
14317W        W31164   4.706  14.355  12.063  0.1321 -0.1800 -0.0430
14318W        W31165  15.057   3.201   0.123  0.0012  0.1823 -0.0216
14319W        W31166   0.031  11.901  14.382 -0.0714 -0.1555 -0.0550
14320W        W31167   8.114  15.766   2.296  0.3304  0.1944 -0.0092
14321W        W31168  10.317  16.346   1.077 -0.0091 -0.1091 -0.0829
14322W        W31169   4.436   7.506  11.548 -0.1810  0.1751 -0.4686
14323W        W31170   7.779  16.130   3.369  0.2784  0.0609 -0.2103
14324W        W31171   7.263   5.470  12.264  0.0487  0.0504  0.3413
14325W        W31172  11.947   8.870   3.928 -0.0613 -0.0108 -0.1074
14326W        W31173   1.021  15.710   0.980  0.1097 -0.1605 -0.3225
14327W        W31174   6.963   3.396  14.053 -0.0492 -0.2650 -0.4945
14328W        W31175  14.060  10.235   4.012 -0.1224  0.2169 -0.2076
14329W        W31176  15.234   5.985  15.393 -0.2328  0.1605  0.2743
14330W        W31177  11.738  14.909   0.459  0.0590  0.0805 -0.2097
14331W        W31178   4.761  17.939   2.190 -0.1263  0.1919 -0.2868
14332W        W31179   3.509   2.115  15.363 -0.2926 -0.0388 -0.0088
14333W        W31180  11.429   7.107   2.227  0.1499 -0.0580  0.1558
14334W        W31181  17.939   2.258   2.698  0.0880 -0.2173 -0.0276
14335W        W31182   4.550   2.108   3.145 -0.4337  0.4482  0.4019
14336W        W31183   4.507   8.448  15.917  0.2548  0.2688  0.4176
14337W        W31184  16.711   4.197  13.819 -0.0596  0.1759  0.0336
14338W        W31185   4.383   6.190   5.193  0.0010  0.1963  0.2625
14339W        W31186   8.638  15.247  12.168 -0.0828 -0.0540 -0.0719
14340W        W31187   7.365  11.691   1.936 -0.1664  0.0462  0.0513
14341W        W31188   9.967   0.923  15.797  0.0650 -0.0068  0.2312
14342W        W31189   6.012   3.085   3.072 -0.1471  0.0396  0.0678
14343W        W31190   9.850   2.767  11.428  0.0362 -0.0699 -0.2371
14344W        W31191   1.068   5.487  15.292  0.2438 -0.0593 -0.0009
14345W        W31192   0.163  13.735  13.978  0.2235 -0.0253  0.0773
14346W        W31193  15.867  10.414  12.510 -0.4676  0.1606  0.1555
14347W        W31194  12.685   6.483   0.178 -0.0606 -0.0195  0.1676
14348W        W31195  10.283   4.360  13.401  0.2318 -0.1836  0.1533
14349W        W31196   8.075   5.289   4.734 -0.0995  0.0156  0.1298
14350W        W31197   1.039  17.229   3.466  0.1932 -0.1106  0.1452
14351W        W31198  16.602  17.675   2.447  0.0451  0.3187  0.1187
14352W        W31199  12.885  14.077  12.548 -0.0128 -0.1851 -0.1550
14353W        W31200   0.683  11.327  14.894  0.1054  0.1050  0.0402
14354W        W31201   2.923  12.780  15.340  0.0734  0.1611  0.1780
14355W        W31202  17.616   7.114  13.046  0.0100 -0.0409 -0.1304
14356W        W31203  13.612  11.450   0.627  0.1318  0.0248  0.1663
14357W        W31204   3.742  13.640  13.517  0.0162 -0.0357 -0.2150
14358W        W31205   4.053   9.614  16.080  0.0687  0.2626 -0.0457
14359W        W31206   7.478   4.953   5.056  0.0978 -0.1224  0.1889
14360W        W31207   4.309  14.055  12.888  0.1084 -0.2289 -0.3434
14361W        W31208   8.498  16.476  15.464  0.0330 -0.0616 -0.1462
14362W        W31209  17.281   1.297   4.655 -0.2559  0.0965 -0.1229
14363W        W31210   4.571  11.274   5.452 -0.3360  0.2752 -0.1989
14364W        W31211   0.230  11.277  12.465  0.1672  0.2479  0.0724
14365W        W31212   9.233   1.309  12.069 -0.3033  0.1592  0.3475
14366W        W31213   3.268   1.013  15.580 -0.0235  0.0269  0.2157
14367W        W31214   9.567  16.043   4.133 -0.0094  0.0861 -0.1409
14368W        W31215   2.497   0.584   1.658 -0.1972 -0.2244  0.0260
14369W        W31216   4.437  17.189   3.021 -0.0746  0.2228  0.1920
14370W        W31217   9.605  16.502   3.064 -0.3574  0.0629 -0.1627
14371W        W31218  16.294   7.152   0.677 -0.2606 -0.0390  0.1614
14372W        W31219   5.486   4.117  14.367  0.1799 -0.1539  0.3950
14373W        W31220   7.028   6.493  13.767 -0.0683  0.0473  0.0076
14374W        W31221   3.857  15.258   5.243  0.2701 -0.1003 -0.1177
14375W        W31222   2.824   8.087   2.582 -0.0563 -0.0520 -0.2841
14376W        W31223  17.439  15.851  12.287 -0.1353 -0.3256 -0.0758
14377W        W31224  10.762  16.227   3.535  0.0226 -0.2725 -0.0336
14378W        W31225  16.983  18.048  12.611  0.1756  0.4331 -0.0978
14379W        W31226  12.648   4.222   1.865 -0.0599 -0.0870  0.1364
14380W        W31227  14.375   4.944  13.604 -0.5704  0.0908  0.2789
14381W        W31228   4.365  12.775  14.618  0.2131 -0.1000  0.0956
14382W        W31229   4.695  14.015   3.474  0.1527 -0.2010  0.6239
14383W        W31230  16.604  12.177   3.487 -0.0084 -0.0654 -0.1850
14384W        W31231   0.577  17.648   0.894 -0.2696  0.1436 -0.2427
14385W        W31232   9.493  17.600   5.340  0.1404 -0.1271 -0.0686
14386W        W31233   7.128  16.903  12.347 -0.2408 -0.3808 -0.1225
14387W        W31234   3.913  17.388  13.104  0.3153 -0.1995  0.1694
14388W        W31235  18.085   2.811   5.072 -0.0308 -0.4357  0.0400
14389W        W31236   3.027   8.706   3.868 -0.0505  0.1227  0.1383
14390W        W31237   3.747   2.904   1.416 -0.0523  0.1250 -0.0046
14391W        W31238   2.334   2.761  13.838  0.1627 -0.3312 -0.2698
14392W        W31239  11.986   5.128   4.425 -0.1137 -0.0997 -0.4461
14393W        W31240   8.883  17.609  15.050 -0.3842  0.3375 -0.0301
14394W        W31241   8.993   3.024   2.250  0.1553  0.2303 -0.0422
14395W        W31242   3.793   5.723  14.574 -0.0224  0.2453 -0.2407
14396W        W31243  16.345   2.599   0.423 -0.0956  0.0140 -0.2401
14397W        W31244   4.806  15.019   5.837 -0.1734 -0.1695 -0.0896
14398W        W31245   3.944  16.527   1.672  0.0114  0.2843  0.1425
14399W        W31246   7.878  16.169   0.054 -0.0561 -0.0605  0.1207
14400W        W31247   2.909  17.284   5.927 -0.1772 -0.2341  0.1824
14401W        W31248  13.061   8.201   4.021  0.0212 -0.0697 -0.0026
14402W        W31249   1.695  14.307  11.859 -0.0876 -0.1857  0.0567
14403W        W31250   1.218   5.914  12.934  0.1911 -0.0310  0.3974
14404W        W31251  16.808  16.501   4.292  0.2167 -0.1112  0.0918
14405W        W31252   0.014   4.840   4.848 -0.0346 -0.1441 -0.1075
14406W        W31253   8.824   6.439   0.779  0.1695  0.5090  0.1936
14407W        W31254  17.192   5.429  13.549  0.0675 -0.3529 -0.0047
14408W        W31255  13.075  12.197   0.908 -0.0343  0.0482 -0.3023
14409W        W31256  10.928   3.792   2.531  0.0094  0.3860 -0.1213
14410W        W31257  10.748  16.542   1.421 -0.4444  0.1495  0.0223
14411W        W31258   5.035   1.435  12.682  0.0236  0.3399  0.1230
14412W        W31259  10.170  10.927  15.907 -0.0701  0.0508  0.0963
14413W        W31260   6.616   8.674  11.637  0.0286  0.0694  0.2679
14414W        W31261  18.166   5.268   4.476 -0.0023  0.4290  0.1736
14415W        W31262  15.604   2.147  13.919 -0.2696 -0.1996  0.1584
14416W        W31263   7.964   5.342  14.441 -0.1486  0.1586  0.0123
14417W        W31264   2.153   6.356  14.709  0.2854 -0.0536 -0.2623
14418W        W31265   8.992   6.851  11.697 -0.1348  0.0425  0.0293
14419W        W31266   1.694  13.841   5.148  0.3199 -0.1113  0.1646
14420W        W31267   0.364  17.406  15.587 -0.1617  0.2249  0.1348
14421W        W31268  15.030   7.792   2.132  0.1010  0.1841 -0.0420
14422W        W31269   6.264   8.992   0.288  0.0124 -0.0228 -0.2192
14423W        W31270  16.456   1.454  11.941  0.0918  0.0276 -0.1170
14424W        W31271   1.194   8.126  11.518 -0.0354 -0.1633  0.1555
14425W        W31272   9.333  11.752   0.880  0.1424  0.0086 -0.2532
14426W        W31273   8.795   5.201  11.520  0.3529  0.0201  0.0083
14427W        W31274   3.165   5.353   4.474 -0.2426 -0.0044 -0.0578
14428W        W31275   0.181   8.979  11.839  0.0946 -0.1426  0.2221
14429W        W31276   7.900   6.851   1.063  0.2799 -0.0620  0.0243
14430W        W31277  14.604  17.918  13.421  0.0321  0.4082 -0.1701
14431W        W31278   7.405   3.391   3.612  0.2267 -0.1929  0.3494
14432W        W31279   1.730   4.220  14.012  0.1447  0.0452  0.3640
14433W        W31280  17.979  10.306   4.359  0.0802  0.0645  0.2262
14434W        W31281   3.188   9.185   3.991  0.1323 -0.0372 -0.4276
14435W        W31282  11.763   9.485  12.973  0.1482  0.0325 -0.1810
14436W        W31283  16.436   6.699  15.809  0.1838  0.0054  0.0239
14437W        W31284   5.107  11.157   2.680  0.2597 -0.0543 -0.1773
14438W        W31285  18.078   2.303  16.310 -0.0431 -0.3057  0.1365
14439W        W31286  16.536  10.640  13.070 -0.2798 -0.2658 -0.1277
14440W        W31287  11.352  13.261  11.618  0.0739 -0.2748  0.2843
14441W        W31288   0.760  13.675  14.083 -0.0632 -0.2698 -0.3752
14442W        W31289   2.312  16.800  16.597 -0.3698  0.2081  0.2625
14443W        W31290  15.930  10.549   4.107  0.1992 -0.4902  0.3156
14444W        W31291   6.840   2.903  11.842 -0.0448 -0.0429  0.1879
14445W        W31292   9.902   4.203  13.685  0.1277  0.0831  0.0510
14446W        W31293   5.918   2.578  11.658 -0.1520 -0.1514 -0.2991
14447W        W31294   6.003  12.629  15.311 -0.1006 -0.0731 -0.0719
14448W        W31295   1.446   3.572   3.436 -0.0991 -0.0587  0.0663
14449W        W31296  17.772   4.183  10.336 -0.0392 -0.0718 -0.1783
14450W        W31297   1.130  17.032  12.553 -0.0357  0.1854 -0.0216
14451W        W31298   7.139   2.262   0.574  0.2904 -0.1020 -0.0768
14452W        W31299  12.332   8.064   3.297  0.1866 -0.3571  0.0341
14453W        W31300   3.150  11.982   2.593  0.1461  0.0140  0.5512
14454W        W31301   3.929   7.778  13.726  0.2756 -0.1754 -0.0128
14455W        W31302   4.229  11.207  12.277 -0.1185 -0.0390 -0.0455
14456W        W31303   2.009  13.993   0.109 -0.0050 -0.1152  0.0544
14457W        W31304   9.243   3.949   3.257  0.1520 -0.2709 -0.0948
14458W        W31305   4.927  17.669   3.512  0.1225  0.2496  0.0399
14459W        W31306   1.846   5.286   4.382 -0.1048  0.0467  0.2724
14460W        W31307  10.674   3.426  12.507  0.3156  0.0894  0.1838
14461W        W31308   1.666   0.186  13.175  0.0520  0.1153  0.0283
14462W        W31309   7.692   8.009  12.382 -0.3803 -0.0954 -0.0268
14463W        W31310  12.417   5.587   3.002 -0.1675 -0.1683 -0.0382
14464W        W31311   8.019  15.601   4.536 -0.1070 -0.3762 -0.3077
14465W        W31312  13.786   0.029  14.504  0.1749  0.2500  0.1449
14466W        W31313   0.718   2.551   0.115 -0.1446 -0.0869 -0.4485
14467W        W31314  10.856  13.384  12.435 -0.0076 -0.1795 -0.1329
14468W        W31315  17.889   6.620   4.537  0.0364 -0.0130 -0.1495
14469W        W31316  13.025  14.876  12.238 -0.0493  0.0820 -0.0046
14470W        W31317  15.754   3.525  15.137  0.0106 -0.1429 -0.2812
14471W        W31318   3.500   7.329   2.835 -0.0150 -0.2457  0.0222
14472W        W31319  12.961   4.028   5.405  0.0946  0.0389 -0.1112
14473W        W31320   3.662   9.420  15.137 -0.0796 -0.0055  0.3859
14474W        W31321  14.418  16.632  13.669  0.2364 -0.1340 -0.0203
14475W        W31322   1.272  16.563   5.914  0.1063  0.1147 -0.0914
14476W        W31323  17.791   3.342  11.172 -0.1027 -0.0589  0.2493
14477W        W31324  10.034   6.306  15.188 -0.1322 -0.2756  0.2682
14478W        W31325  11.524  15.972   3.332  0.0158  0.1337  0.1218
14479W        W31326  10.700   2.276  12.759  0.1406 -0.2606 -0.3915
14480W        W31327   8.535   7.354  13.419 -0.1168  0.1612 -0.1593
14481W        W31328  13.079   2.956  11.368 -0.0610 -0.2907  0.0625
14482W        W31329   9.887  12.902  12.697  0.3306 -0.3099 -0.3106
14483W        W31330   3.694  14.102  15.699 -0.3113  0.1818  0.1828
14484W        W31331  17.114  17.187   0.399  0.0427 -0.6141 -0.1388
14485W        W31332   9.728  10.799  15.661 -0.2981 -0.2567 -0.1624
14486W        W31333   0.181   0.429   4.255 -0.2372 -0.2059  0.0997
14487W        W31334   4.956   7.061  15.827  0.1916 -0.0741  0.0276
14488W        W31335  17.922   7.677   0.065 -0.2241 -0.2240 -0.2172
14489W        W31336   8.740  12.427  11.535 -0.3367 -0.2125 -0.0193
14490W        W31337  11.488  11.464   4.195 -0.0129  0.0775  0.1649
14491W        W31338   5.771  12.987  12.365 -0.0047  0.1351 -0.1123
14492W        W31339   8.506   1.203  14.184 -0.0564 -0.1288  0.0810
14493W        W31340  14.549   4.575  11.233 -0.0104  0.1006 -0.4458
14494W        W31341   5.011   5.307  13.682  0.2409 -0.1919 -0.3064
14495W        W31342   6.534   5.888  15.884  0.0113 -0.1259  0.0567
14496W        W31343   7.220  12.102  11.659  0.0271 -0.1202 -0.1239
14497W        W31344  14.714   1.256  11.888 -0.1020 -0.1542  0.0308
14498W        W31345  15.141  12.157  14.605  0.0308 -0.0611 -0.1325
14499W        W31346  13.838  15.920  16.581 -0.1221  0.0647  0.1066
14500W        W31347   3.111   8.973   3.342  0.3248 -0.4228  0.0001
14501W        W31348  15.580   7.779  16.569  0.3240  0.0429 -0.0002
14502W        W31349   9.557   9.241   5.704 -0.1137 -0.0383  0.0055
14503W        W31350   2.103   9.671  15.100  0.0918  0.1111  0.1149
14504W        W31351  16.925  12.998   5.391 -0.4281 -0.1747  0.0713
14505W        W31352   7.179   3.571  11.444  0.2358 -0.2166 -0.4492
14506W        W31353  12.380   0.600  15.497 -0.0924 -0.0095  0.1340
14507W        W31354   7.160  13.244   5.527  0.0384 -0.1633 -0.0843
14508W        W31355  12.966  13.271   3.055  0.3390 -0.1641 -0.2545
14509W        W31356   2.786  11.112   6.828  0.0347  0.0804 -0.1189
14510W        W31357  16.949  11.503  15.516  0.2757  0.1123 -0.2924
14511W        W31358   1.306   0.903  12.395  0.3148  0.0049  0.1880
14512W        W31359  16.886  17.641   0.507 -0.2613  0.0675  0.2574
14513W        W31360   8.089   4.320   2.216 -0.0174  0.0395  0.0692
14514W        W31361   6.462   2.075   1.228 -0.1089 -0.1883  0.0444
14515W        W31362   8.182  10.542   3.021 -0.1956 -0.2885 -0.0219
14516W        W31363  12.460  14.792   3.521  0.2313 -0.0284  0.1663
14517W        W31364   7.199   1.995  16.464 -0.0227  0.0311  0.1940
14518W        W31365  10.015  12.251   5.401  0.3265  0.3335 -0.3637
14519W        W31366   9.499  10.352  12.933  0.1659 -0.1323  0.0220
14520W        W31367   2.526   8.362   1.087  0.1786 -0.0179 -0.0003
14521W        W31368   5.012   3.325   2.847  0.4504 -0.1931  0.2410
14522W        W31369  14.619   2.750  14.288  0.0208 -0.0208  0.0131
14523W        W31370  16.969  12.327  14.578 -0.2129  0.0200 -0.2871
14524W        W31371   8.211  13.043   0.033 -0.0458  0.0717 -0.3922
14525W        W31372   1.312  16.181   1.363  0.1859 -0.0736  0.0286
14526W        W31373   3.625  14.306   0.799  0.1210 -0.3169  0.1130
14527W        W31374  13.666   8.303   5.459 -0.0564  0.0257 -0.0708
14528W        W31375   0.517  13.796  15.180 -0.0414  0.0034  0.0609
14529W        W31376  13.357  11.910   3.340 -0.0305  0.0183  0.0192
14530W        W31377   7.886  10.361   0.084 -0.1029  0.0644 -0.0559
14531W        W31378  16.931   9.829  11.093 -0.2376  0.1421 -0.0043
14532W        W31379   5.622  13.851  11.854  0.1232  0.2470  0.0221
14533W        W31380   4.761  12.193   1.835 -0.0056 -0.3323 -0.1586
14534W        W31381  13.469  14.963   5.108  0.0150  0.0462  0.1416
14535W        W31382   5.311  14.579   5.798 -0.2216 -0.1320 -0.1002
14536W        W31383   3.905   7.286   4.274 -0.0536 -0.1732 -0.1203
14537W        W31384   0.482   4.507   2.092  0.1762  0.1877 -0.0245
14538W        W31385   4.340  13.030   3.713  0.2314  0.0931  0.1569
14539W        W31386   1.548   7.122  13.751 -0.1927 -0.1135 -0.2102
14540W        W31387   2.792   4.550   3.904 -0.0307  0.0246  0.0569
14541W        W31388  14.345  15.765  11.221 -0.3695 -0.0538  0.1341
14542W        W31389   3.475   3.369  11.046  0.1282  0.0783 -0.1495
14543W        W31390  13.058   4.489  11.945  0.0383  0.1519  0.0599
14544W        W31391  12.623  12.349  11.038 -0.2700 -0.0205  0.0777
14545W        W31392  14.356   6.760   1.333  0.0349  0.2625 -0.0327
14546W        W31393   8.720  16.795  16.024  0.2136 -0.3137  0.0066
14547W        W31394  11.448  13.564   3.418 -0.0285  0.4353 -0.0833
14548W        W31395   5.632   5.317  12.362  0.1171 -0.3189  0.1999
14549W        W31396  14.447  18.062  13.967 -0.1539  0.1009  0.1389
14550W        W31397   1.434   1.608   0.261 -0.1094 -0.5451  0.0345
14551W        W31398  17.396  13.086   2.894 -0.0330  0.1011  0.1432
14552W        W31399   3.828   6.822   2.099 -0.2468 -0.0280  0.0022
14553W        W31400  15.187  14.976  12.468  0.0570  0.1632  0.0531
14554W        W31401   1.404   3.926   1.166 -0.1735  0.1634 -0.0535
14555W        W31402   7.443  16.653  12.635  0.1252  0.0863 -0.2133
14556W        W31403  17.908  15.133   2.129  0.0526 -0.4327 -0.1725
14557W        W31404  15.453  16.422   3.915  0.2633  0.0974  0.1165
14558W        W31405  10.290   2.711  14.421  0.1182  0.0511  0.1637
14559W        W31406  14.761  15.040  12.269  0.1282  0.2146 -0.0884
14560W        W31407  11.653   0.992  14.969 -0.3667  0.0722  0.2364
14561W        W31408   5.321   7.994  14.020 -0.2201  0.1458 -0.1580
14562W        W31409   0.674   4.961   3.867 -0.2084 -0.0436  0.2014
14563W        W31410  13.499   7.289   5.297 -0.1620  0.1398 -0.0977
14564W        W31411  12.647   9.338  14.345 -0.0696 -0.1378  0.1613
14565W        W31412   7.804   5.464  12.305 -0.1594 -0.2383  0.0844
14566W        W31413   4.633   5.227   4.966  0.1340 -0.2257 -0.0123
14567W        W31414  15.463   7.954   4.502 -0.0588 -0.1726  0.0626
14568W        W31415  15.327   6.523   0.917 -0.2682 -0.0622 -0.2485
14569W        W31416  13.869   0.960  11.277  0.2885  0.2049 -0.0460
14570W        W31417  11.426  15.304  12.901  0.0838  0.2008  0.1729
14571W        W31418   9.854  17.977  15.317  0.0001  0.2659  0.0666
14572W        W31419  15.336   1.559  15.272 -0.1086  0.3579  0.0658
14573W        W31420   4.999   2.174  12.678 -0.0868  0.3380 -0.1021
14574W        W31421   5.163   0.079   1.201  0.2016 -0.0788 -0.1146
14575W        W31422   0.678  12.310   0.223 -0.0258 -0.2022  0.3934
14576W        W31423  11.659   4.130  14.101 -0.1185 -0.1388 -0.1915
14577W        W31424  13.403  17.805  16.369  0.1091 -0.1314 -0.3059
14578W        W31425   7.762  16.827  14.968  0.1785 -0.1311 -0.0266
14579W        W31426   7.362   7.546   4.634  0.1329 -0.0808 -0.0024
14580W        W31427  12.241   0.073   2.392 -0.2628 -0.1251 -0.0744
14581W        W31428   8.288   0.224  14.490 -0.1748  0.0087 -0.2300
14582W        W31429   4.180   9.118  16.217 -0.1638 -0.2118  0.1879
14583W        W31430  14.669   2.545  11.434 -0.1294 -0.1639  0.1292
14584W        W31431   6.890  10.918  15.837  0.0709  0.3988 -0.0535
14585W        W31432  10.335   5.767  16.559  0.0234 -0.2087  0.1198
14586W        W31433   4.694  16.182   0.629  0.1194 -0.0177 -0.0357
14587W        W31434   1.386  11.945   6.135  0.0580  0.1815  0.1625
14588W        W31435   2.885   0.218  13.960  0.0286  0.2138  0.2984
14589W        W31436  14.388   5.524   4.648  0.1803  0.0768  0.1243
14590W        W31437  16.765   7.106   1.078  0.1586 -0.0732  0.0023
14591W        W31438  14.082  16.591  13.068 -0.0327 -0.1742  0.0389
14592W        W31439  17.455   2.611   2.787 -0.3496 -0.0156  0.0426
14593W        W31440  14.016   1.311   4.519 -0.0679  0.3210  0.0655
14594W        W31441  12.905  17.731  11.480 -0.1442  0.0437 -0.0282
14595W        W31442   9.487   9.460  11.492 -0.1709  0.1958  0.1883
14596W        W31443   8.670   2.573  16.149  0.0475  0.0929 -0.0651
14597W        W31444  13.189   8.038   1.688 -0.2924 -0.0341  0.0288
14598W        W31445   2.810  13.422  13.813  0.2133  0.1346 -0.0918
14599W        W31446   9.168   1.057  12.496  0.0316  0.0710 -0.1637
14600W        W31447   9.086  13.594  13.726  0.0921 -0.1643 -0.0334
14601W        W31448   4.566  12.188   4.824  0.1936  0.1951  0.0898
14602W        W31449   8.765   1.812   0.240 -0.0926  0.1284 -0.2727
14603W        W31450   9.300   2.685   1.578  0.1929  0.1043 -0.0256
14604W        W31451   5.432  15.662   1.098 -0.1634 -0.1857  0.0325
14605W        W31452   3.941   9.745  12.380  0.0574 -0.1125  0.0200
14606W        W31453   0.910  16.718  16.193 -0.0946  0.3777 -0.0209
14607W        W31454   9.531  17.998  15.692  0.0242  0.0691 -0.0670
14608W        W31455  11.719   8.928   4.461 -0.0185 -0.0421 -0.0926
14609W        W31456   4.906   2.644   0.758 -0.1132 -0.1192  0.2165
14610W        W31457   7.743  15.741  12.755 -0.2729 -0.0673  0.1487
14611W        W31458  13.438  14.316  16.039  0.1149  0.0190  0.5682
14612W        W31459  12.462  12.761  13.925  0.2396 -0.1275 -0.1677
14613W        W31460   8.930  16.699   0.510 -0.2618 -0.0551 -0.1274
14614W        W31461   0.267   4.007  11.368 -0.1055  0.0047 -0.1586
14615W        W31462   4.784   2.921   1.205  0.1858 -0.0075  0.0069
14616W        W31463   4.275  14.987   1.191  0.1478 -0.2853  0.4465
14617W        W31464   5.194   0.151   0.535 -0.0472  0.0314 -0.0898
14618W        W31465   5.266   8.003   5.076 -0.2945 -0.2063  0.2040
14619W        W31466   4.346   2.796  14.003 -0.0362 -0.2023  0.0639
14620W        W31467   7.046  14.683   1.564  0.3810 -0.1171  0.0643
14621W        W31468   5.804   8.626  15.992  0.0137 -0.0081  0.0650
14622W        W31469   0.054  17.057   5.342  0.2554 -0.0758 -0.3267
14623W        W31470   2.293   4.005  13.144  0.1389  0.0949  0.4905
14624W        W31471   8.168   3.136  13.752  0.1164 -0.0335 -0.1673
14625W        W31472   3.789   4.649   1.913 -0.2693  0.0448  0.0816
14626W        W31473   3.102  16.808   2.939  0.2580 -0.2928  0.1942
14627W        W31474  13.961  12.033  14.247 -0.2832  0.1301  0.2765
14628W        W31475   0.440  10.312  12.623 -0.0358  0.3310 -0.2026
14629W        W31476   0.883  12.593  12.182  0.2508  0.1499  0.0993
14630W        W31477  15.375   3.471  11.887 -0.1796  0.0240  0.1217
14631W        W31478   1.919  14.535  13.973  0.1780 -0.1482  0.1904
14632W        W31479   5.714  10.943   0.144 -0.0891 -0.2736  0.1684
14633W        W31480  14.970  11.669   2.611 -0.0708 -0.4568  0.1560
14634W        W31481   9.287   3.064  14.217  0.0070 -0.1493 -0.0726
14635W        W31482   5.057   2.862   2.675  0.1413 -0.1714 -0.3192
14636W        W31483  13.184   7.551   3.016 -0.1938 -0.0830 -0.0782
14637W        W31484   7.353   8.481   1.606 -0.2805  0.0814  0.0702
14638W        W31485   1.408   8.482  16.101  0.1188 -0.3999  0.3127
14639W        W31486  13.251  13.668   1.394 -0.1037 -0.1167  0.0392
14640W        W31487   3.100  13.015  13.844 -0.0542 -0.0828  0.1412
14641W        W31488   9.935   0.314   3.162 -0.1212  0.0443  0.3543
14642W        W31489   1.574  16.036  15.829 -0.2353  0.1273 -0.0205
14643W        W31490   1.138   7.565   0.551  0.0631  0.2201 -0.3321
14644W        W31491  14.705  11.466   1.826  0.0019  0.0200  0.1913
14645W        W31492   1.796  13.575   3.768 -0.0405  0.0138 -0.2286
14646W        W31493   1.426   3.102   3.872  0.1488  0.2117  0.3068
14647W        W31494  13.427   1.687  13.547 -0.1301  0.0098  0.1693
14648W        W31495   7.926   1.920   1.722 -0.2339 -0.3454 -0.1856
14649W        W31496   1.631   5.779  15.253 -0.0635  0.0325  0.0737
14650W        W31497  13.383  17.751   5.484 -0.1457 -0.2904 -0.0601
14651W        W31498  17.834  12.503  16.003  0.0251 -0.2902 -0.0615
14652W        W31499   1.126  14.072   2.825 -0.0701  0.0707 -0.0180
14653W        W31500  17.003   0.248  15.438 -0.0712 -0.1810  0.1471
14654W        W31501   9.366  17.459  16.570  0.0681 -0.2871  0.1046
14655W        W31502  14.340  10.501  14.414 -0.0284 -0.2343 -0.2205
14656W        W31503   3.581  10.878   1.734  0.2120  0.0169 -0.2031
14657W        W31504   5.265  12.580   2.812  0.3112 -0.1883 -0.1539
14658W        W31505  15.063   5.296  13.954 -0.1262 -0.0414  0.0957
14659W        W31506  14.429   6.008   4.161 -0.2175  0.1827 -0.2670
14660W        W31507  13.501  13.045   3.796  0.0447 -0.1632 -0.0102
14661W        W31508   1.926  15.868  13.066 -0.0729  0.0233 -0.0924
14662W        W31509   0.681  14.326  12.751 -0.1670  0.0546  0.0613
14663W        W31510  14.256   4.247   4.544  0.3454  0.0761  0.0689
14664W        W31511   8.988   9.351   5.050  0.2244  0.1232 -0.0981
14665W        W31512   7.937   8.505   1.727  0.3372 -0.1730 -0.1433
14666W        W31513   4.035  15.396   5.825 -0.2292 -0.1215 -0.0716
14667W        W31514   5.858   0.185   5.751  0.4550  0.2900  0.2249
14668W        W31515  10.201  10.839   5.368  0.2306 -0.3762 -0.0109
14669W        W31516  13.147   4.925  12.758  0.4904 -0.1632  0.2494
14670W        W31517  14.278   1.352  15.815 -0.1675  0.1616  0.0737
14671W        W31518  13.739   6.625   2.795  0.0611  0.1903 -0.2491
14672W        W31519   1.984  10.933   2.997 -0.0242  0.3232 -0.1973
14673W        W31520  12.427   9.366   1.239  0.1939 -0.0396 -0.2317
14674W        W31521   3.363   0.748  11.681  0.1079  0.3710 -0.1972
14675W        W31522  13.519   8.853   5.540  0.0642  0.0064 -0.0021
14676W        W31523   0.682   0.690  14.945 -0.1378  0.2127  0.3051
14677W        W31524  14.408   4.750   4.568 -0.2067 -0.2540 -0.0509
14678W        W31525   5.911  10.335  13.275  0.4525  0.2380 -0.1952
14679W        W31526   3.477   0.609  15.853 -0.0285  0.0004  0.1285
14680W        W31527  16.465  14.545   0.645 -0.1410 -0.0657  0.2430
14681W        W31528  16.540  17.347   2.983 -0.1355  0.0990  0.0297
14682W        W31529   7.289  16.699   0.026  0.0092  0.0910  0.0247
14683W        W31530  14.244  11.936   4.046 -0.0931 -0.1913 -0.3389
14684W        W31531  10.245   1.724  15.349  0.0545 -0.0892  0.1157
14685W        W31532  12.859   2.016   1.882 -0.2193 -0.2086 -0.1004
14686W        W31533   2.646  17.583   1.347 -0.1656 -0.1984  0.5061
14687W        W31534   6.210   7.657   1.684 -0.3174 -0.1251  0.1064
14688W        W31535  12.063   9.763  11.573  0.1299  0.1463  0.2250
14689W        W31536   5.607   2.976   3.359 -0.0541  0.3234 -0.1971
14690W        W31537   8.414   6.137   5.681  0.0713  0.0484  0.4509
14691W        W31538   3.768   8.314   4.348 -0.0807 -0.1130  0.2289
14692W        W31539   5.035   5.125   1.607  0.3664 -0.4821  0.1619
14693W        W31540   7.223  17.763   3.482  0.0625  0.5984 -0.6220
14694W        W31541   2.848  12.029   3.936 -0.2026  0.0169  0.3029
14695W        W31542   7.630  13.267  14.093  0.0879 -0.1792  0.1591
14696W        W31543  16.176   9.167  12.153 -0.0534 -0.3568  0.0288
14697W        W31544   0.062   7.705   4.922 -0.0364 -0.2481  0.1455
14698W        W31545   4.560  11.471  15.167 -0.0135 -0.1223 -0.0581
14699W        W31546   6.142  14.237  15.097 -0.0808 -0.1520 -0.0152
14700W        W31547  11.572  13.528  12.984 -0.3229  0.1596 -0.2133
14701W        W31548   5.687   0.948  13.937 -0.1584 -0.3903  0.1250
14702W        W31549   8.424   9.439   1.122 -0.1072  0.3944 -0.1941
14703W        W31550  14.821   1.748  16.295  0.0544  0.0186  0.0681
14704W        W31551  11.437  13.805   1.391 -0.2433 -0.1337  0.0252
14705W        W31552   7.581  17.948   0.289  0.1026 -0.0225 -0.2895
14706W        W31553  13.166  10.567   1.129  0.0287 -0.0115  0.1005
14707W        W31554  11.649  12.740  15.479  0.1285 -0.1467  0.1232
14708W        W31555  14.178  15.192   2.872 -0.3353 -0.2316 -0.3331
14709W        W31556   1.385   5.314   4.088 -0.0414 -0.1621 -0.0855
14710W        W31557  17.542   7.176  11.528 -0.1688 -0.4084  0.1163
14711W        W31558   4.157  12.541   1.173  0.0486  0.0374  0.3192
14712W        W31559   3.489   6.468   2.438 -0.0312 -0.2784 -0.1458
14713W        W31560  10.483  10.020  13.155  0.1458  0.0268  0.1757
14714W        W31561   2.966   8.466   3.398  0.0596  0.1631 -0.0793
14715W        W31562  13.964   9.855   1.135 -0.1872 -0.0389  0.1189
14716W        W31563  13.973   7.392   5.360  0.1544  0.0875  0.0174
14717W        W31564  15.527  12.540   5.202  0.3012  0.0299 -0.3332
14718W        W31565  17.422   5.567  15.960 -0.2016  0.3320 -0.0378
14719W        W31566  16.405   2.270   5.135  0.0023  0.2192  0.1870
14720W        W31567  15.719  10.923  14.693  0.1604 -0.0122 -0.0314
14721W        W31568   0.448   5.019   4.453 -0.1120  0.2107 -0.3010
14722W        W31569   5.040   9.593   0.418 -0.1946  0.0057 -0.0143
14723W        W31570  10.894  14.928   4.037 -0.0307 -0.2441  0.1486
14724W        W31571   5.557  17.043   3.759 -0.0767  0.1488  0.1206
14725W        W31572  15.652  10.442   1.435  0.0379 -0.1343 -0.1027
14726W        W31573   0.400  12.805   1.158  0.1209 -0.1748  0.1124
14727W        W31574   6.995  13.338   4.526 -0.1069  0.1773 -0.2673
14728W        W31575  16.291  13.771  16.123 -0.0309  0.1901 -0.2520
14729W        W31576  12.915   4.684   1.714 -0.2461  0.1132 -0.1368
14730W        W31577   3.717  15.489  11.805  0.0543 -0.0696  0.2682
14731W        W31578   8.005  15.019   0.703  0.0843 -0.2941  0.1844
14732W        W31579   4.331  15.862   0.736 -0.0073 -0.0984  0.1930
14733W        W31580   1.977   4.501   0.298 -0.1799  0.2399 -0.3165
14734W        W31581  12.127  11.080  13.925 -0.2208  0.0108  0.0019
14735W        W31582   6.274  15.933   0.548  0.0593 -0.4049  0.3106
14736W        W31583   8.517   3.844  15.249  0.0510  0.0006  0.2002
14737W        W31584   2.067   4.991   0.168 -0.1043  0.3141 -0.0787
14738W        W31585  16.240  11.698  15.013 -0.4709 -0.1701 -0.0703
14739W        W31586   4.894  17.885  12.652  0.0477  0.0913  0.0669
14740W        W31587  15.741  15.411   3.322  0.0628  0.2198 -0.1703
14741W        W31588  11.536  17.829   0.659 -0.2599 -0.0021  0.1889
14742W        W31589  13.763  18.109   1.411  0.2500 -0.3660  0.1201
14743W        W31590  16.524   4.567   2.916 -0.2612  0.1215 -0.0780
14744W        W31591   3.474  15.424   2.245 -0.0078  0.2462  0.0729
14745W        W31592  16.183  11.875   3.400 -0.1286  0.0397 -0.1866
14746W        W31593  14.592  16.131  12.493 -0.3025 -0.3963  0.1525
14747W        W31594   3.233  10.560   1.959  0.2415 -0.1847  0.0497
14748W        W31595   6.451  10.081   5.084  0.0860  0.0252 -0.2601
14749W        W31596   0.629   5.770   2.284 -0.2523  0.4003  0.1956
14750W        W31597  16.947  12.547  15.329 -0.0182  0.1522 -0.1738
14751W        W31598  10.789   2.920  11.453  0.2864  0.0864  0.0476
14752W        W31599   5.186   5.198   5.355  0.0374  0.2926 -0.0038
14753W        W31600   7.069  17.100   5.187 -0.2925  0.2669  0.2719
14754W        W31601   8.548  11.482  13.869  0.2667  0.0231  0.0627
14755W        W31602  17.396   9.464   3.456  0.0997 -0.2680 -0.2540
14756W        W31603  15.581   2.287  11.175  0.1643  0.1282  0.1996
14757W        W31604   0.468  12.105  12.554  0.0976  0.2128  0.0755
14758W        W31605  14.549   2.558   2.910 -0.0923 -0.1520 -0.0891
14759W        W31606   4.965  10.407  15.657  0.3901 -0.2063 -0.2079
14760W        W31607   1.030  15.703  15.138 -0.2164 -0.2322  0.0660
14761W        W31608   6.962  17.057   0.029 -0.3475 -0.5565  0.1270
14762W        W31609   7.918  15.491  12.225 -0.0444  0.0844 -0.0841
14763W        W31610   2.458  15.911  16.126  0.0150  0.0622 -0.0296
14764W        W31611   1.395  16.791   5.413 -0.0692 -0.3457 -0.1865
14765W        W31612   6.691   1.519   4.232 -0.1126 -0.2254 -0.0155
14766W        W31613   3.666   8.319  14.668  0.2540  0.0438 -0.2873
14767W        W31614   0.180  17.782   1.840 -0.3199  0.3360  0.0274
14768W        W31615  17.147   0.845   1.217 -0.5975  0.0261 -0.1036
14769W        W31616   8.501   6.110  13.934  0.0087  0.1585  0.1098
14770W        W31617   4.152   4.432  13.886  0.2385  0.0970  0.0282
14771W        W31618   4.681  14.957   3.160 -0.2624 -0.2835  0.2158
14772W        W31619  15.964  12.702  12.932 -0.0904  0.1852  0.0094
14773W        W31620  11.314   4.794   3.957  0.1905 -0.4262  0.0667
14774W        W31621  15.380   6.136   0.624 -0.0282  0.1418  0.3777
14775W        W31622   1.105  14.162  16.458 -0.1049 -0.1514  0.0720
14776W        W31623  14.663   3.743  12.659  0.0470  0.0084 -0.2260
14777W        W31624   5.778   9.486  15.660 -0.0705 -0.0272 -0.2859
14778W        W31625  15.540  12.814  16.617 -0.1892  0.3038 -0.1726
14779W        W31626   7.936   9.336   2.994 -0.1565  0.0083  0.1962
14780W        W31627  16.201  15.345   2.502 -0.0283  0.0959 -0.0526
14781W        W31628   6.828   3.288   4.187  0.0895 -0.0109 -0.0087
14782W        W31629   1.335   2.544   3.193 -0.0199  0.0644  0.4154
14783W        W31630   0.140   4.869  12.753  0.2094  0.2792  0.0943
14784W        W31631   1.678  10.471   4.507  0.2331  0.0953  0.3492
14785W        W31632   4.037   5.316  11.492  0.1961 -0.0579  0.1630
14786W        W31633   6.370   7.738  15.746 -0.1772  0.0102 -0.1325
14787W        W31634   2.511  14.045  11.624  0.2037 -0.2671  0.2172
14788W        W31635  15.873   0.666  14.845  0.1532 -0.1709  0.0244
14789W        W31636   5.804  15.917   2.947  0.0039 -0.4009 -0.0842
14790W        W31637   6.106   7.296   1.333 -0.2374  0.0396 -0.0911
14791W        W31638  16.118  17.239  14.079 -0.0601  0.0671 -0.2094
14792W        W31639   3.348  15.551  14.376  0.1458 -0.1290  0.1058
14793W        W31640   6.578   0.571   4.816  0.2090 -0.1689  0.0834
14794W        W31641  11.578  12.816   2.144 -0.1168 -0.0741  0.2718
14795W        W31642  10.135  14.581   5.589 -0.1726 -0.1636 -0.1958
14796W        W31643  17.171   1.334  12.922 -0.2316 -0.2719 -0.1911
14797W        W31644   7.784   9.916   2.877  0.1957  0.3750  0.0266
14798W        W31645   1.843  11.424   3.240  0.0035 -0.2624 -0.1300
14799W        W31646   0.824   2.017   4.561  0.1572  0.1309 -0.3784
14800W        W31647  16.807  13.656   4.367 -0.1214 -0.3510 -0.1107
14801W        W31648   1.115  13.591   4.398 -0.2780  0.3822 -0.2415
14802W        W31649  18.013   6.171   5.275  0.1920  0.0375 -0.2207
14803W        W31650   5.216   4.241  12.946 -0.1647  0.1059 -0.5255
14804W        W31651   5.077   1.563  15.495  0.1371  0.0560  0.1550
14805W        W31652  14.745   2.814  13.342 -0.0530  0.4202  0.0784
14806W        W31653  15.595  11.759  13.253  0.0991 -0.3014  0.2676
14807W        W31654   6.463   7.431  13.535 -0.1097 -0.1693  0.0694
14808W        W31655   4.369  16.808  15.046  0.0281  0.0500  0.2748
14809W        W31656   9.694  17.955   0.943 -0.1060 -0.2911  0.1129
14810W        W31657  10.013   1.251  16.221 -0.2608 -0.1766 -0.0331
14811W        W31658   1.456   0.846  16.121 -0.1620  0.1748  0.2910
14812W        W31659   9.140  15.701  16.000  0.1590  0.0809 -0.2802
14813W        W31660   9.745   6.277   2.618  0.1137  0.0726  0.0997
14814W        W31661  14.957   0.137   2.751  0.2116 -0.1021  0.3224
14815W        W31662  10.070   1.200  12.060 -0.2919  0.1867  0.0418
14816W        W31663   4.799  13.598   3.196 -0.0388  0.1497  0.3438
14817W        W31664  17.653   5.671  13.180  0.0847  0.1298 -0.2238
14818W        W31665  10.697   0.339  14.298  0.0238  0.0103  0.3287
14819W        W31666   3.489  14.734   2.463  0.1550 -0.5099  0.0266
14820W        W31667   5.812  10.536   2.889 -0.3403  0.1616  0.0551
14821W        W31668   5.682   0.243   5.227  0.1859  0.1180  0.0122
14822W        W31669   0.113  17.776   0.984  0.0363  0.0904 -0.1293
14823W        W31670   4.821   9.619  15.016 -0.1947  0.0978 -0.0115
14824W        W31671  11.626   2.840   3.499  0.1067 -0.3238  0.0795
14825W        W31672  17.634   6.864   5.764  0.0567  0.2762 -0.2085
14826W        W31673  17.629  14.957  12.508  0.1281 -0.4777 -0.0120
14827W        W31674   3.730  14.587  15.642 -0.1880 -0.1376 -0.1509
14828W        W31675  13.446  10.414   4.909 -0.2010  0.2239 -0.0885
14829W        W31676  15.572   8.421  13.824  0.3089  0.2287  0.2900
14830W        W31677   6.979  11.993  14.581 -0.0865 -0.0393  0.1797
14831W        W31678   9.339   0.288  15.882 -0.0234 -0.0009 -0.0436
14832W        W31679  17.260  16.750  13.919  0.0512 -0.3937  0.1521
14833W        W31680   2.082  12.217  13.491  0.1845  0.2946 -0.0374
14834W        W31681   1.287   4.191  13.874  0.1806  0.0465  0.1124
14835W        W31682   4.582   0.973  16.015 -0.1674  0.2391  0.2227
14836W        W31683   2.073   6.228  16.209 -0.2883  0.1913 -0.2031
14837W        W31684  15.297  12.068  12.449  0.0497 -0.1384 -0.1369
14838W        W31685   4.737  10.181   5.056  0.1331 -0.0045 -0.1936
14839W        W31686   0.923  12.335  12.804  0.0989  0.0640 -0.3216
14840W        W31687   4.484   8.266  15.318 -0.1992 -0.0736 -0.0264
14841W        W31688  10.520   7.791  12.871  0.2315 -0.2640 -0.1678
14842W        W31689   1.933   7.012   2.663 -0.2871  0.2911 -0.1070
14843W        W31690   2.168   5.765  15.215 -0.3185 -0.2064 -0.0434
14844W        W31691  14.446   1.502   4.279 -0.0167  0.1053  0.0222
14845W        W31692  14.480  14.211   5.462  0.2351  0.0116  0.0548
14846W        W31693  14.122  15.375  15.902  0.0085  0.1813  0.2956
14847W        W31694   7.193   3.952   2.863  0.2773 -0.1248  0.2261
14848W        W31695   2.353   9.312   4.215 -0.0124  0.1995 -0.0954
14849W        W31696  14.733   8.644  14.694 -0.0837 -0.0273  0.0878
14850W        W31697   5.373  12.190   5.173 -0.1204  0.0176  0.2082
14851W        W31698   4.231   6.021   4.672 -0.2746 -0.2235 -0.0485
14852W        W31699  13.528  14.204   0.607  0.0472  0.1546  0.1054
14853W        W31700   3.665   5.232  11.852  0.2265  0.5617 -0.1657
14854W        W31701   0.623   3.217   4.482 -0.2660 -0.0447 -0.2722
14855W        W31702  13.865   4.671   1.234  0.2707 -0.2392  0.2054
14856W        W31703   8.855  16.643  13.631  0.0274  0.2925 -0.0688
14857W        W31704  14.796   7.763  14.912 -0.0234  0.1890  0.2568
14858W        W31705  10.463  17.064   0.328 -0.1339  0.1208 -0.2108
14859W        W31706  14.162   7.947  12.793 -0.0150  0.3449  0.1182
14860W        W31707   4.651   2.406   3.629 -0.2884 -0.1868 -0.0219
14861W        W31708  16.741  13.986  12.001  0.1390 -0.0102 -0.1218
14862W        W31709   2.058  17.471   5.405 -0.1035 -0.0642 -0.0615
14863W        W31710  14.003  12.627   5.106  0.0413  0.0201  0.0446
14864W        W31711   2.230  12.493   6.065 -0.2805  0.2083  0.0483
14865W        W31712  12.932   1.361  14.892 -0.1853 -0.1412  0.1286
14866W        W31713  17.834   7.342   1.327  0.1081 -0.1209  0.0417
14867W        W31714  11.680   4.290   2.523 -0.1302  0.1664 -0.4395
14868W        W31715  11.174   0.166  12.852  0.0643  0.2854  0.0206
14869W        W31716   7.886   7.398  11.063 -0.0657 -0.1141 -0.1922
14870W        W31717   0.614  11.398   5.218  0.0356  0.2177  0.3087
14871W        W31718   8.784  17.782  12.253 -0.3653  0.1236  0.2642
14872W        W31719  17.535   3.486   0.819 -0.1831 -0.2255 -0.0560
14873W        W31720   1.995  12.673   1.095 -0.1246 -0.0449 -0.0329
14874W        W31721  12.104   0.948  12.316  0.3384 -0.0532 -0.0559
14875W        W31722   1.138   2.867  14.969  0.0624 -0.0327 -0.2959
14876W        W31723  14.662   2.556  16.281 -0.0638 -0.0012 -0.1155
14877W        W31724   0.476   6.734  16.560 -0.0087  0.0088  0.2600
14878W        W31725  14.189   3.977  14.159  0.0473 -0.0130  0.0070
14879W        W31726  17.586   4.362   4.335  0.3516  0.1795 -0.0905
14880W        W31727  13.042  15.408  15.123  0.2448 -0.1995  0.1220
14881W        W31728   5.803   2.958  12.018 -0.0561  0.1066  0.2343
14882W        W31729  17.304  12.792  13.959  0.2629  0.1919 -0.2544
14883W        W31730   1.148   6.581   1.240  0.0469 -0.1683 -0.0420
14884W        W31731   1.355   0.235   3.378  0.0306  0.5125 -0.0872
14885W        W31732   3.426   7.445   5.031 -0.0408  0.0933 -0.1316
14886W        W31733  15.624   4.591  12.884 -0.0495  0.0732 -0.0166
14887W        W31734   3.550   4.722  14.558 -0.0490  0.1793  0.0592
14888W        W31735  12.493   4.201  13.594 -0.1575  0.0485 -0.2088
14889W        W31736   6.371  10.094   1.183  0.1171 -0.0624  0.3382
14890W        W31737   7.372   7.957  14.793 -0.4563  0.0016  0.0740
14891W        W31738  14.679   3.630   0.245 -0.3740  0.3192  0.0470
14892W        W31739   8.139   0.643  13.532 -0.0672 -0.3127 -0.1602
14893W        W31740  15.922   5.488  15.065  0.3394  0.2094 -0.2182
14894W        W31741   6.877  10.861   3.567  0.1544 -0.1871 -0.0649
14895W        W31742  11.064  13.482  15.454 -0.1522  0.1087 -0.3209
14896W        W31743  12.305  10.114   3.769 -0.3742 -0.0930  0.1004
14897W        W31744   0.979   8.545  14.341  0.0820  0.0989  0.1866
14898W        W31745  12.498   5.433   4.448  0.0286 -0.0302  0.1015
14899W        W31746  13.598   6.244  11.893 -0.0561  0.0745 -0.2316
14900W        W31747   4.521  11.791  13.104 -0.0376  0.1719  0.0550
14901W        W31748  10.945   6.782  10.026 -0.2260  0.0276 -0.0233
14902W        W31749  14.296   5.772   2.880 -0.1884 -0.1863 -0.1960
14903W        W31750   0.291   1.414   2.257 -0.3752 -0.0462  0.0739
14904W        W31751  12.661   8.516  14.122 -0.1356 -0.3165 -0.2433
14905W        W31752   6.656   7.932  11.939  0.1812  0.0982  0.3240
14906W        W31753   8.374  16.590   4.061 -0.1936  0.2287 -0.2985
14907W        W31754   0.337   8.773  14.025 -0.1408 -0.0263  0.0634
14908W        W31755   1.167  12.950   0.560  0.0675 -0.1184  0.0603
14909W        W31756   7.964  16.504   2.152  0.1730 -0.0688  0.1184
14910W        W31757  14.758  11.278  16.579 -0.0954  0.3933 -0.1733
14911W        W31758  16.754  11.526   2.827 -0.0205  0.1557 -0.0870
14912W        W31759   8.059   2.803   0.655  0.0283 -0.3345 -0.0975
14913W        W31760   0.269   3.379  14.620 -0.0550 -0.5984  0.2409
14914W        W31761  16.725   3.962   3.768  0.2694  0.0449 -0.2231
14915W        W31762   0.750  13.770   2.972  0.1709  0.0763 -0.0394
14916W        W31763   5.908   6.308  13.778 -0.0970 -0.1304  0.1798
14917W        W31764  15.427   2.948   0.457  0.2330  0.0490  0.0929
14918W        W31765   1.494  14.768   3.209  0.3217  0.0429  0.3642
14919W        W31766   2.417   2.962   2.003  0.1760 -0.2268 -0.0173
14920W        W31767   3.677   7.686  12.224 -0.1163  0.2713  0.0884
14921W        W31768  15.116   4.515  11.617  0.0921 -0.0553  0.0344
14922W        W31769   4.462   8.784   4.918  0.0249 -0.1040 -0.1774
14923W        W31770   7.148   9.557  12.841 -0.1575 -0.0196 -0.2357
14924W        W31771  12.008   5.454   2.637 -0.1519 -0.1939  0.1999
14925W        W31772   1.608  15.029   2.763  0.0476  0.0632 -0.2234
14926W        W31773   6.959   5.157   1.074 -0.1100  0.1234 -0.2586
14927W        W31774  18.140   9.978   3.062 -0.1065  0.0360 -0.0731
14928W        W31775  12.151   1.012   2.258  0.0386 -0.1949  0.2626
14929W        W31776   4.890   5.889  11.769 -0.0262 -0.2820  0.2338
14930W        W31777  13.952   4.898   5.287  0.1118  0.3199  0.2726
14931W        W31778  13.287  15.800  12.359 -0.0182  0.2009  0.1024
14932W        W31779   6.506  10.770   3.910 -0.1583  0.1626 -0.0172
14933W        W31780   9.628   0.733   4.093  0.0106  0.0158  0.0903
14934W        W31781   8.335  16.855  16.299  0.0305  0.1229  0.1596
14935W        W31782   6.525  15.399   3.993  0.1386 -0.1004  0.2594
14936W        W31783   7.243  11.066   4.496  0.4418  0.0411  0.0818
14937W        W31784  17.194  16.367  14.917  0.3238  0.0872  0.2733
14938W        W31785   9.715  10.499   3.999 -0.1334  0.2590 -0.2120
14939W        W31786  15.993  16.138   3.268  0.3482  0.0427  0.2956
14940W        W31787   8.927   8.296   0.494  0.1785  0.0211 -0.2237
14941W        W31788   2.445   0.940   2.989  0.2363 -0.1032 -0.1616
14942W        W31789   6.016   2.588  13.599 -0.1458 -0.1543 -0.2587
14943W        W31790  14.563  17.668  14.459  0.0541 -0.0438 -0.3000
14944W        W31791   6.691  11.015   4.481 -0.2188 -0.0638  0.1859
14945W        W31792  16.111  17.286   0.373 -0.2637 -0.2868 -0.1825
14946W        W31793  10.330   4.985   5.132 -0.2028 -0.0570  0.1297
14947W        W31794   9.681   7.897   3.467  0.1162 -0.0829 -0.2106
14948W        W31795   7.750   3.195  14.655 -0.0491 -0.0366  0.1641
14949W        W31796  16.406   3.418  14.004 -0.0208  0.2906  0.3010
14950W        W31797  11.806   5.664   5.519  0.0186 -0.3840 -0.2124
14951W        W31798  11.395  14.727   5.142 -0.1987 -0.0522  0.0864
14952W        W31799  15.267   1.863  16.072 -0.0264  0.4035 -0.1234
14953W        W31800   3.616  14.821  12.465 -0.1690 -0.2704 -0.1131
14954W        W31801   7.727   8.751  12.846 -0.0608 -0.2229  0.1155
14955W        W31802   8.027   9.471  12.028 -0.1953  0.2434  0.2546
14956W        W31803  14.293   4.309  15.499 -0.3490 -0.0159  0.0059
14957W        W31804   6.326   2.341   4.077  0.1556  0.0908 -0.0650
14958W        W31805   2.625   5.645   4.808 -0.2522  0.4082  0.0090
14959W        W31806   8.847   6.432   2.429 -0.2557  0.2705 -0.0042
14960W        W31807   0.085   5.704   4.277 -0.0307  0.0411 -0.0754
14961W        W31808   6.081  13.579   6.595  0.2544  0.0542  0.2414
14962W        W31809   4.561  15.688   2.039  0.0172 -0.0302  0.1980
14963W        W31810   9.676   9.396   0.398  0.0384 -0.1047  0.0415
14964W        W31811  13.563   3.391  12.036  0.4388 -0.1305  0.0483
14965W        W31812  17.448  11.049   2.870 -0.0341 -0.0357  0.2718
14966W        W31813  10.652   8.884  13.235 -0.0087  0.2510 -0.3065
14967W        W31814  17.987   9.410  12.525 -0.0479 -0.0241 -0.4151
14968W        W31815  13.845   6.462   1.352 -0.0406  0.1681  0.0577
14969W        W31816   9.454   1.467   0.734 -0.0736  0.1726 -0.1298
14970W        W31817  12.161   4.151   1.803  0.1540 -0.1739 -0.0598
14971W        W31818  15.904  13.189  16.593  0.0427 -0.2849  0.1529
14972W        W31819   1.821   8.701   0.810 -0.3195 -0.0796 -0.0023
14973W        W31820   3.746  13.163   2.108 -0.2373  0.0401 -0.0253
14974W        W31821  13.176   3.595  11.730  0.3330  0.0543  0.1491
14975W        W31822   9.962   0.359  12.452  0.2486 -0.0177  0.0256
14976W        W31823   3.833   8.055   0.435  0.0629 -0.0016 -0.1337
14977W        W31824   6.305   4.987   4.334  0.1788 -0.2271  0.0058
14978W        W31825   4.731   0.499  15.676  0.1791  0.0227 -0.3028
14979W        W31826   2.145  17.992  16.490  0.2206 -0.0463  0.0639
14980W        W31827  16.900  17.357   3.280  0.1555 -0.1913  0.0596
14981W        W31828   5.614   8.059  15.937 -0.1422 -0.0115  0.1384
14982W        W31829  18.114  10.332   3.426  0.1726 -0.2988  0.2030
14983W        W31830   6.005  17.674   1.313  0.2219  0.1822  0.3063
14984W        W31831  10.705  17.680  11.713 -0.1137 -0.1441  0.0322
14985W        W31832   3.123  10.909  14.189  0.3766 -0.0445  0.1828
14986W        W31833   0.403   5.410  11.957  0.1803 -0.1527 -0.1044
14987W        W31834  14.325   6.587   4.171  0.0113  0.3762 -0.0863
14988W        W31835   8.213   0.839  14.482  0.1452  0.0691  0.1693
14989W        W31836  17.701   9.967   2.116  0.2028  0.0530 -0.0796
14990W        W31837   5.654   4.803   3.503  0.0074  0.0128 -0.1277
14991W        W31838  16.176  11.354   3.212 -0.2260  0.0955 -0.1550
14992W        W31839  14.722   6.968   2.054 -0.2765  0.1036  0.0738
14993W        W31840  10.844   6.013  15.828 -0.0504 -0.1123  0.1839
14994W        W31841  10.750   4.427  14.219 -0.2806 -0.1933 -0.0136
14995W        W31842   2.862  16.888  12.157 -0.0827 -0.0357 -0.1002
14996W        W31843  14.478   3.242  13.614 -0.1351 -0.2171  0.0141
14997W        W31844   3.249  11.452   5.378 -0.0549  0.0775 -0.0288
14998W        W31845   9.722  17.203   4.967 -0.3430 -0.1142  0.1191
14999W        W31846   3.524   5.293   0.204  0.2834 -0.1205 -0.3335
15000W        W31847   8.303   2.281   0.814 -0.3410  0.1540  0.2814
15001W        W31848   4.325   3.375  12.489  0.1455  0.0144  0.0358
15002W        W31849   9.701   5.808  13.044 -0.1415 -0.1896 -0.0159
15003W        W31850  17.295  12.588  12.504 -0.0333 -0.0374 -0.0886
15004W        W31851  13.345   5.814  11.399 -0.0940 -0.0927  0.1506
15005W        W31852  15.850  11.749   0.720 -0.1009  0.0498 -0.3174
15006W        W31853  13.250  12.505   4.647 -0.2355  0.0197 -0.1958
15007W        W31854  13.115  12.504  16.085 -0.1373  0.0957 -0.0785
15008W        W31855   5.963   8.683   2.251 -0.1424 -0.2638  0.0478
15009W        W31856   9.094  14.569   2.299 -0.0909 -0.1785 -0.1125
15010W        W31857  12.796   4.155   0.088 -0.0076  0.0268  0.0497
15011W        W31858  12.895  17.149  15.625  0.0246 -0.1025 -0.0217
15012W        W31859   8.836   3.167  16.465  0.1677 -0.0171 -0.1555
15013W        W31860  16.741   9.844  14.323 -0.1310  0.0425 -0.3569
15014W        W31861   3.352  10.048  15.817 -0.1711  0.0886  0.2891
15015W        W31862   6.085  15.269  11.702  0.2901  0.2208  0.0869
15016W        W31863   9.626   9.630   2.189 -0.2509 -0.0614  0.1321
15017W        W31864   1.821   5.194   2.367 -0.0925  0.1938 -0.1089
15018W        W31865  14.870  12.189  13.528 -0.2063 -0.2666 -0.1171
15019W        W31866   7.983   0.615   4.930  0.2520 -0.3106  0.1533
15020W        W31867  15.912  18.138  16.486  0.2231 -0.0516 -0.0419
15021W        W31868  12.924   8.228  16.126 -0.2257  0.2158  0.0321
15022W        W31869  16.758  15.993  11.531  0.0361  0.1833  0.0993
15023W        W31870   8.890   2.139   1.334 -0.1303  0.1114 -0.3831
15024W        W31871   7.977   5.578  13.388 -0.2634  0.1080  0.0428
15025W        W31872  12.622  15.797   5.301  0.0893 -0.1678 -0.0127
15026W        W31873  12.684   0.860  12.876  0.1299  0.0121 -0.2316
15027W        W31874  10.374   7.137  16.572 -0.0349 -0.0116  0.1577
15028W        W31875  14.256   0.209  12.652 -0.2198  0.1051  0.2194
15029W        W31876  10.112  14.514   0.578  0.0127  0.0420 -0.1241
15030W        W31877   1.307  13.596  16.432 -0.1427 -0.2693  0.0940
15031W        W31878  10.696  15.349  12.661  0.2216 -0.0785  0.0908
15032W        W31879   7.141  10.372  12.375 -0.0603  0.0933  0.2400
15033W        W31880  10.001   0.477   4.316 -0.3716 -0.2652 -0.2481
15034W        W31881   3.400   2.144   4.773  0.2025  0.0762 -0.0142
15035W        W31882   1.967   5.059  12.295  0.0890  0.1076  0.1130
15036W        W31883   1.529   3.600   4.989 -0.1392 -0.1742  0.0252
15037W        W31884   3.678   0.065  13.243  0.0146 -0.2936 -0.1302
15038W        W31885   1.606   0.452   0.372  0.0369 -0.2241 -0.4485
15039W        W31886  15.798   2.062   1.160  0.1355 -0.1864  0.0646
15040W        W31887  11.954  16.429  13.322  0.1414  0.0372  0.2204
15041W        W31888   0.998  17.415  14.394 -0.0003 -0.1011 -0.0001
15042W        W31889   8.799   4.692  11.810  0.0824  0.0117  0.0365
15043W        W31890   3.918  12.129  14.994  0.1728 -0.0024 -0.1037
15044W        W31891   0.287  17.417   1.312 -0.0383 -0.3388 -0.1282
15045W        W31892  15.044  17.702   2.933 -0.2584 -0.3227  0.1117
15046W        W31893  14.845   8.584  12.446  0.3917  0.0196 -0.0932
15047W        W31894   1.069   9.075  12.181 -0.1328 -0.2009  0.1377
15048W        W31895   2.372   0.874   4.747 -0.2111 -0.1414  0.1382
15049W        W31896   2.280  10.062  12.023  0.2955  0.0606  0.0158
15050W        W31897  11.776   0.932   1.404 -0.0178  0.1968 -0.3032
15051W        W31898   6.852  15.577  12.746  0.0336  0.2161  0.1924
15052W        W31899   6.271  17.315   0.425 -0.2769 -0.2567  0.1900
15053W        W31900   7.483  15.070   3.824 -0.3674  0.1563  0.0980
15054W        W31901  17.362  10.703   0.848  0.0810  0.1073  0.1561
15055W        W31902   8.502  14.249   5.201  0.1316 -0.1164 -0.1447
15056W        W31903   1.042   6.286   1.602  0.0731  0.1211 -0.2004
15057W        W31904  14.053  14.112  12.873 -0.0123  0.2437 -0.0032
15058W        W31905  15.039  13.459   4.852  0.0482  0.0489  0.1491
15059W        W31906   1.864   2.098   2.337  0.1901  0.2255  0.1271
15060W        W31907  14.195  13.555  13.975  0.3222  0.2295 -0.2989
15061W        W31908   0.265   3.804  14.275  0.2404  0.0887  0.3209
15062W        W31909   3.784  10.258   0.524 -0.1610  0.0808  0.2092
15063W        W31910  17.429  14.421   1.062  0.0337  0.1680 -0.0410
15064W        W31911   5.525  10.381   5.423  0.1669  0.1536 -0.0621
15065W        W31912  16.488   5.506   1.353 -0.2381  0.1244  0.1496
15066W        W31913  14.572   7.961  16.275  0.0467  0.0639  0.2721
15067W        W31914  10.535   1.338   0.364  0.1624 -0.1884 -0.0378
15068W        W31915  14.565   7.135  13.834  0.2278  0.0918 -0.0246
15069W        W31916  16.200  10.977   4.424  0.0733  0.3290  0.1123
15070W        W31917   2.721  15.100  15.807  0.0190 -0.4367  0.4077
15071W        W31918   2.079   0.873  14.028  0.2030  0.0463 -0.0662
15072W        W31919   9.911  15.368  13.599  0.1796 -0.1943 -0.2045
15073W        W31920  16.182  17.133  12.862 -0.0472  0.1164  0.2212
15074W        W31921   9.410  11.919   3.604  0.1350  0.6030  0.0736
15075W        W31922  12.374  10.408   3.176 -0.0095 -0.2291  0.2545
15076W        W31923   9.979  17.589  15.084 -0.3046 -0.2926  0.1698
15077W        W31924  16.957   6.359   4.149  0.0344 -0.1335  0.3300
15078W        W31925  11.916   9.713  15.234 -0.1037 -0.1650  0.3821
15079W        W31926  17.897   4.049   5.215  0.1721 -0.1365  0.0699
15080W        W31927   3.038  17.669  13.769 -0.2458  0.0794 -0.0244
15081W        W31928   5.776   2.769   0.193 -0.1852 -0.0399 -0.0453
15082W        W31929   3.947  10.083  15.857  0.0001  0.0400  0.0211
15083W        W31930   0.940  17.589  11.750  0.0625  0.2738  0.1574
15084W        W31931   7.377   1.798  12.138 -0.1826 -0.1318 -0.3877
15085W        W31932   7.903  15.111  14.155  0.0397  0.0064  0.0217
15086W        W31933  18.007  17.659  13.846  0.4942 -0.0111 -0.0021
15087W        W31934   4.920   7.577   1.724  0.0245  0.2270 -0.0545
15088W        W31935  12.861   5.437  12.705 -0.0908  0.3048 -0.1021
15089W        W31936  17.188  15.340   4.153 -0.2952  0.0721 -0.0579
15090W        W31937   4.814   0.321  16.527  0.0445 -0.1992 -0.2171
15091W        W31938   3.980  10.571   2.485 -0.1268 -0.0980  0.2224
15092W        W31939  13.278   9.361   4.804 -0.1367 -0.2738  0.2017
15093W        W31940  10.816   4.564   5.317 -0.0550 -0.3581  0.1442
15094W        W31941   8.665  12.995   3.932  0.0851 -0.1856  0.1060
15095W        W31942   3.636  12.780  13.234 -0.2176 -0.2895 -0.0597
15096W        W31943  11.884   0.046  13.805 -0.0238 -0.0611 -0.1547
15097W        W31944   0.809   5.867  13.321  0.2360  0.4226  0.1007
15098W        W31945  14.513  15.297  15.560  0.3389 -0.5149 -0.0390
15099W        W31946   3.172   7.106   4.691  0.2143  0.1313 -0.1323
15100W        W31947   8.409  17.945   0.151  0.0720 -0.1302 -0.0614
15101W        W31948   0.002   0.047   0.783  0.2591 -0.1187  0.0449
15102W        W31949   3.245  10.805  14.661 -0.1321  0.1204  0.0624
15103W        W31950   4.557   0.029  15.576  0.0960  0.0967  0.1786
15104W        W31951   6.228   6.125   2.954 -0.4094 -0.0450  0.2756
15105W        W31952   1.735   2.086   4.146  0.1157  0.1100  0.2074
15106W        W31953   5.144   9.154  15.075 -0.2249 -0.2009 -0.0550
15107W        W31954  16.848   9.538  15.286 -0.0060 -0.1265 -0.0824
15108W        W31955   0.094   6.926   3.064 -0.1631  0.0798 -0.0664
15109W        W31956   5.290   4.244  12.260 -0.0204 -0.1569  0.1300
15110W        W31957   6.400   6.382  13.659 -0.0833  0.0841 -0.1598
15111W        W31958   0.481   6.723   5.683  0.0844  0.1187 -0.1375
15112W        W31959  14.662  15.441   1.876  0.2310  0.1178  0.0576
15113W        W31960  11.569   7.106   2.665  0.0023 -0.0385 -0.0180
15114W        W31961   1.376  13.251   5.193 -0.0970  0.5656 -0.1890
15115W        W31962   3.128  12.839   4.595  0.1810  0.1725 -0.0727
15116W        W31963  11.508   1.022   6.385  0.1805  0.2080 -0.0047
15117W        W31964   1.088  12.919  11.869  0.0207 -0.0992 -0.1061
15118W        W31965   4.804  16.508  16.512 -0.0875 -0.4257 -0.1364
15119W        W31966   3.332   4.983  14.960 -0.1074  0.0109  0.0160
15120W        W31967   5.145   5.282   4.794 -0.1031 -0.0730 -0.0047
15121W        W31968   3.788   3.606   3.391 -0.2277  0.0213 -0.1018
15122W        W31969  17.113   2.629  12.118  0.1245  0.2167  0.2294
15123W        W31970   0.710   4.534  11.601  0.0031  0.0918  0.2141
15124W        W31971  16.516  12.024  15.888 -0.0435 -0.1320 -0.0318
15125W        W31972  16.838   5.304  11.587  0.1125  0.0022  0.1485
15126W        W31973  16.456  14.980  16.510 -0.2788 -0.2919  0.1325
15127W        W31974   6.799   7.068   0.737  0.0162 -0.0078  0.1200
15128W        W31975  14.119  12.029  11.869  0.0642 -0.0659  0.2490
15129W        W31976   2.034   7.635  12.269 -0.0261  0.2241  0.2242
15130W        W31977   3.773   2.438   1.616 -0.1630  0.2835 -0.1003
15131W        W31978  11.643  15.579  11.719  0.3302 -0.0954  0.2501
15132W        W31979   6.950  12.155   4.086  0.2549  0.0010  0.0128
15133W        W31980   3.589   5.457  14.181 -0.1161  0.3004  0.1352
15134W        W31981  13.695  12.805   4.682  0.1975 -0.0587  0.1607
15135W        W31982   1.327  11.694  15.139 -0.0441 -0.0096 -0.3013
15136W        W31983   9.049   1.832   2.955  0.0806  0.1443  0.1098
15137W        W31984   6.083   3.244   1.083 -0.0306  0.0070  0.0117
15138W        W31985   0.574   8.631  12.987  0.1968  0.0073  0.1174
15139W        W31986   2.955  12.644   3.192 -0.2092  0.4825  0.0349
15140W        W31987  15.988  13.677  15.781 -0.4491  0.0899 -0.1398
15141W        W31988  12.668   8.961   1.095 -0.3387 -0.0066 -0.2088
15142W        W31989   4.637   8.848   2.647 -0.0516 -0.1736  0.2528
15143W        W31990  10.890   0.954   0.494  0.3273  0.0196 -0.0998
15144W        W31991  15.032   1.962  13.034 -0.1425  0.0009  0.3831
15145W        W31992   3.941   0.174   1.974  0.3054 -0.0171  0.0665
15146W        W31993   3.270  16.008  14.078  0.0653 -0.0127  0.0560
15147W        W31994  14.775  15.799  12.121  0.0118  0.3498  0.0075
15148W        W31995  10.313   5.661   1.290 -0.0077  0.1926  0.2430
15149W        W31996  16.539   7.882   4.998  0.0587 -0.1381  0.2101
15150W        W31997  15.644   9.013   2.546 -0.1948  0.0802  0.0304
15151W        W31998  14.007  12.807   4.220  0.0817 -0.4456  0.2582
15152W        W31999  13.145   8.247   5.377  0.1108  0.1676 -0.0575
15153W        W32000  17.600  13.354  13.319  0.1180 -0.4251 -0.1120
15154W        W32001  12.021  12.999  13.943  0.3223 -0.0119  0.1219
15155W        W32002  15.311  17.165  16.370 -0.0917  0.0934 -0.2300
15156W        W32003  17.710  12.103   5.591 -0.0756  0.2939 -0.0998
15157W        W32004  14.966   4.693   0.838  0.1678  0.0832 -0.3381
15158W        W32005  10.594   0.730  13.930  0.2378  0.0105  0.1707
15159W        W32006  13.730   9.114   3.155  0.1415  0.1286  0.1023
15160W        W32007  15.984   2.127  15.116 -0.2783  0.0215  0.1512
15161W        W32008   6.615   1.983   4.382 -0.0484  0.0536 -0.1332
15162W        W32009  15.492  17.899  12.708  0.1473  0.0421 -0.0157
15163W        W32010   2.925   3.728  13.512 -0.0319 -0.0949 -0.1534
15164W        W32011   8.804   5.621  15.981 -0.0977 -0.1143 -0.2887
15165W        W32012  17.485   7.071  13.798  0.2498 -0.0501 -0.0388
15166W        W32013   7.804   4.647   2.616  0.1585  0.1914  0.1113
15167W        W32014  11.277   7.705   0.532  0.0106  0.3958  0.0216
15168W        W32015   6.744  12.976  14.015  0.2449 -0.1730 -0.0408
15169W        W32016  17.936   8.117  13.065  0.1633  0.2856 -0.0993
15170W        W32017  12.220  15.916   0.770  0.0877  0.1894 -0.0684
15171W        W32018  13.321  10.782  14.536  0.2665 -0.0284 -0.1561
15172W        W32019  15.724   7.400   3.899  0.2309 -0.1295 -0.1066
15173W        W32020   4.310   0.763   3.511 -0.2892  0.0692 -0.0220
15174W        W32021  15.483   2.367  14.927 -0.0812 -0.1515  0.2003
15175W        W32022   9.822  15.502   2.946 -0.0902 -0.0712  0.0713
15176W        W32023   9.282  16.437   0.168  0.1139 -0.0362  0.2328
15177W        W32024   9.173  17.623   5.732  0.2155  0.1087  0.0627
15178W        W32025   3.925   6.881  12.931 -0.0565  0.2358 -0.4510
15179W        W32026   0.434   0.814  16.411  0.0669 -0.1968  0.0060
15180W        W32027  10.046  15.337   5.763  0.1576 -0.2378 -0.1411
15181W        W32028  17.802  12.629  13.823  0.0001  0.0939  0.0138
15182W        W32029  14.254   0.190  11.257  0.1396  0.1066 -0.1376
15183W        W32030   2.857  15.709  14.504  0.2666 -0.0686  0.2805
15184W        W32031  13.747   7.572   0.002  0.0808 -0.4741  0.3814
15185W        W32032   4.871   6.857   0.455  0.0050  0.2855  0.4031
15186W        W32033   7.211  18.112   5.885  0.0830  0.0170 -0.1538
15187W        W32034  15.595   7.151   2.087 -0.1475 -0.0272  0.1270
15188W        W32035  10.004  16.497   3.348 -0.1290 -0.1006  0.2562
15189W        W32036  13.950  10.631  15.320  0.0628  0.0254 -0.1276
15190W        W32037   7.540   7.392   2.681  0.1166 -0.1587  0.1161
15191W        W32038   5.601   2.560  12.249  0.1558 -0.1216 -0.0237
15192W        W32039  11.114   0.633   1.534  0.1953  0.0785 -0.1750
15193W        W32040   6.892   5.274   1.554 -0.3094  0.2611  0.0459
15194W        W32041   6.524  14.050  14.190  0.0127  0.2557  0.0671
15195W        W32042   2.478  13.822   1.356  0.0197  0.1204  0.3847
15196W        W32043  12.444  12.084  11.438 -0.1104 -0.0012  0.1351
15197W        W32044   3.843   0.488   2.814  0.0069  0.0479  0.3035
15198W        W32045  14.748  14.599   1.324 -0.2295 -0.1764 -0.1544
15199W        W32046  10.502   2.620  14.824 -0.2025  0.3008  0.0369
15200W        W32047   2.229  16.910  14.931  0.1825  0.3885  0.1405
15201W        W32048  16.702  15.781  12.789 -0.0463 -0.3372  0.0133
15202W        W32049   4.208   7.689   3.013 -0.1520 -0.2622 -0.0987
15203W        W32050   7.359   4.389   2.605 -0.1150  0.1769 -0.0685
15204W        W32051   8.129   8.502  12.375  0.0179  0.1015  0.2355
15205W        W32052  13.605  17.453  15.581  0.1578 -0.0344 -0.0389
15206W        W32053  13.032   8.148  15.119 -0.2093 -0.2380 -0.1200
15207W        W32054   6.162   3.938  16.165  0.0443 -0.1083  0.1732
15208W        W32055   1.968  13.417  13.951  0.2559 -0.0285  0.0506
15209W        W32056   2.917  17.517   2.765  0.0968  0.0150  0.0880
15210W        W32057  10.832  12.049   3.891 -0.5247  0.0429 -0.0289
15211W        W32058  15.378   8.751  15.453 -0.3545  0.0069 -0.0605
15212W        W32059   8.156   0.492  16.516 -0.0422 -0.0116 -0.0519
15213W        W32060   4.376  12.571  14.203 -0.1244 -0.1383  0.0376
15214W        W32061   7.607   6.020   0.829  0.2049  0.1503 -0.1160
15215W        W32062   2.291  14.789   2.101 -0.0972  0.0309  0.3406
15216W        W32063  15.634   9.491   2.193 -0.1841 -0.1078  0.0972
15217W        W32064   0.759   8.082  12.246 -0.1830 -0.1189  0.5819
15218W        W32065  11.138  16.086  14.910 -0.0758  0.0353 -0.2303
15219W        W32066   4.385   2.230  12.550  0.3132  0.4399  0.1282
15220W        W32067   4.282   4.535  12.050  0.3785  0.0983 -0.1275
15221W        W32068  10.833   9.037   3.475  0.2091 -0.0623 -0.1050
15222W        W32069   9.975  16.432  16.202 -0.3630  0.0127  0.0580
15223W        W32070   3.395  16.263   0.961  0.0615  0.0762  0.2170
15224W        W32071  15.984   7.717   0.424 -0.0114 -0.2223  0.0229
15225W        W32072   9.623   2.416  13.144  0.1089  0.0490  0.2013
15226W        W32073  15.826  13.814   4.374  0.1212  0.2147 -0.0669
15227W        W32074  13.425   1.417  12.186  0.0294  0.0065  0.3876
15228W        W32075   0.835   6.828   4.120 -0.0410  0.2020 -0.3019
15229W        W32076  11.029   1.899   0.656  0.0389 -0.0154  0.0565
15230W        W32077  15.088   9.540   0.288 -0.0489  0.0794  0.2323
15231W        W32078   0.791   0.557  13.258  0.1959 -0.2011  0.1967
15232W        W32079  18.068  16.192   3.179  0.0069  0.1796 -0.0541
15233W        W32080  16.634  11.911   2.479  0.1376  0.2284  0.1505
15234W        W32081   4.987   0.924  15.656 -0.0007 -0.1603 -0.1431
15235W        W32082   1.274   5.716   4.357  0.3486 -0.1252  0.2734
15236W        W32083  10.464  10.779   0.983 -0.4660 -0.1605  0.0473
15237W        W32084   2.747   7.935  14.367  0.0307 -0.1144 -0.0690
15238W        W32085  10.551   3.910  13.343  0.3313  0.2621  0.0321
15239W        W32086  11.347  14.913   0.120  0.1065 -0.2455  0.1736
15240W        W32087  12.419  11.941   4.242  0.3092  0.0204 -0.0838
15241W        W32088   0.673   0.203   4.948  0.4468  0.2050 -0.1645
15242W        W32089  13.321  17.382   3.260  0.1335  0.3015  0.0043
15243W        W32090   3.796  10.186  13.986  0.1257 -0.0471  0.0469
15244W        W32091   5.487  10.455   0.312 -0.1533 -0.0813  0.0274
15245W        W32092  17.669   0.557  16.207 -0.0904  0.1533  0.2699
15246W        W32093  10.501   7.528  14.527  0.1249 -0.0497 -0.1658
15247W        W32094   8.149  15.020  12.914 -0.3017  0.0457  0.0531
15248W        W32095   6.715  13.095  13.007 -0.3513 -0.0441  0.0195
15249W        W32096   3.666   6.327   4.412 -0.1002  0.3073  0.2923
15250W        W32097  16.259   8.601  15.007 -0.0368  0.0170  0.1224
15251W        W32098   0.539   8.146   2.176  0.1254 -0.3178 -0.0169
15252W        W32099  16.879   4.903  11.331 -0.2405  0.0360 -0.1348
15253W        W32100  13.994   9.134  14.217 -0.4826  0.1330 -0.0065
15254W        W32101  15.008   0.543  11.656 -0.0587 -0.1986 -0.1902
15255W        W32102   5.260   2.933  12.159  0.0084  0.0601 -0.1759
15256W        W32103   3.961  15.453   2.622  0.1075 -0.0582 -0.1408
15257W        W32104  12.383   1.276  12.553 -0.0714  0.0602 -0.1551
15258W        W32105   5.079   6.204  13.479  0.1142  0.1929 -0.2071
15259W        W32106  16.026  18.176   1.331  0.1529 -0.1389 -0.0931
15260W        W32107  16.116   3.406  11.401  0.2613  0.2418  0.1179
15261W        W32108  11.087  12.319   0.664  0.1009 -0.0640  0.0761
15262W        W32109  17.199   2.307  14.682 -0.1802  0.1179  0.1872
15263W        W32110   1.825  10.794   1.969  0.0885  0.0916  0.2265
15264W        W32111   8.894   7.797  14.046 -0.1474 -0.1337 -0.2321
15265W        W32112  14.955   4.805   5.411 -0.1228 -0.0311 -0.1444
15266W        W32113  10.681  12.921   0.580  0.1105 -0.0570 -0.0062
15267W        W32114   4.323  17.383  13.379  0.0840  0.0950  0.2437
15268W        W32115  16.529  12.130   1.768  0.2113 -0.0780  0.2318
15269W        W32116  17.930  10.682  15.872  0.0884 -0.0714  0.0604
15270W        W32117   2.145  17.660   4.069 -0.0138 -0.1555  0.1259
15271W        W32118   6.435   6.473   3.294 -0.2951 -0.0147 -0.1288
15272W        W32119   6.804   1.282   3.605 -0.0599 -0.5195 -0.0237
15273W        W32120  12.593   2.391  16.444  0.1035  0.0810 -0.3892
15274W        W32121  14.377   4.714  12.681 -0.0364 -0.0592 -0.2490
15275W        W32122  12.751   3.668  13.233  0.3311 -0.3880 -0.0704
15276W        W32123  14.066   3.428  14.222 -0.0792 -0.1163  0.1101
15277W        W32124   7.492   8.792   0.197  0.1427  0.2376 -0.2034
15278W        W32125  15.845   9.479   1.224  0.1035  0.0547 -0.1776
15279W        W32126   6.231  10.596  13.546 -0.2103 -0.1105  0.0265
15280W        W32127   2.402   9.375  14.755 -0.1175  0.4196  0.0084
15281W        W32128   7.574   1.672  13.724  0.0795  0.1257  0.0083
15282W        W32129  11.017   9.624   4.521 -0.1240 -0.2973 -0.0907
15283W        W32130   5.757  11.857   5.260  0.1763  0.1646  0.0313
15284W        W32131  16.533   2.645   4.195  0.0211 -0.0079  0.0975
15285W        W32132   7.024  16.932   1.245 -0.0257  0.0329 -0.1454
15286W        W32133   6.667   8.452   3.157  0.0243 -0.2549  0.0180
15287W        W32134  14.872  16.304   4.879  0.1714 -0.1414  0.1848
15288W        W32135  13.908  11.838  13.012  0.4045  0.3832  0.0233
15289W        W32136  15.028  13.017  15.655 -0.0339  0.2068  0.2250
15290W        W32137  10.781   0.464   2.976 -0.1588 -0.0393 -0.0734
15291W        W32138   7.033   5.059   2.035 -0.0143  0.0535  0.0144
15292W        W32139   4.084  12.022  14.158 -0.1732  0.0331  0.0049
15293W        W32140  10.824  17.838  15.669 -0.1649  0.0563 -0.2650
15294W        W32141  13.217   6.338  13.692 -0.2161  0.0434  0.2956
15295W        W32142   1.668   8.649   0.313 -0.0065  0.3452 -0.1086
15296W        W32143  12.404   4.705  12.079 -0.0867  0.2655  0.2008
15297W        W32144  15.851   9.669  13.439 -0.3426  0.3470 -0.0681
15298W        W32145   2.409  17.784  15.349  0.0671 -0.3730 -0.0108
15299W        W32146   2.315   9.742   0.945 -0.0099 -0.1437 -0.0854
15300W        W32147  15.493   9.679  15.275 -0.1980  0.1395  0.0315
15301W        W32148   4.645   1.053  13.095 -0.1234  0.1079 -0.0877
15302W        W32149  11.412   6.685   3.856 -0.1898 -0.1719  0.1585
15303W        W32150   5.204   3.331  15.121  0.2153 -0.1987  0.0362
15304W        W32151  12.244   5.432  14.900 -0.0493  0.2293 -0.1607
15305W        W32152  12.251   3.836  16.412  0.1791  0.2099 -0.0892
15306W        W32153  15.065   4.116  14.561 -0.0790  0.0595  0.1277
15307W        W32154   5.790   6.381  11.472 -0.0496 -0.3089  0.0771
15308W        W32155   8.750  10.508  12.364 -0.1568 -0.1827 -0.3166
15309W        W32156  15.109   8.964   4.013 -0.4800 -0.3441  0.1899
15310W        W32157   3.230  15.970  13.601 -0.0646  0.0475 -0.2459
15311W        W32158   3.090   6.628   3.200 -0.3919  0.2260  0.3416
15312W        W32159  17.760   6.373   3.655  0.2469  0.1947  0.2031
15313W        W32160   9.068   9.142   2.130 -0.0106 -0.1080 -0.2235
15314W        W32161   2.871   2.425  12.173 -0.0691 -0.0405  0.0161
15315W        W32162   1.461   8.965   3.604 -0.0292 -0.1383  0.0444
15316W        W32163  12.616  11.749  15.434 -0.0123  0.1163 -0.0209
15317W        W32164  17.275   7.246   5.123  0.0059 -0.1694  0.2162
15318W        W32165   0.168   4.152  14.989  0.3296 -0.1375 -0.1568
15319W        W32166  17.729  11.678  14.673  0.0398 -0.0900  0.3147
15320W        W32167   5.888   5.821   3.665  0.3988  0.0357 -0.1834
15321W        W32168   2.798  10.226   5.895 -0.1921  0.1694 -0.0980
15322W        W32169  16.515   9.270  14.030  0.0846 -0.1352 -0.0674
15323W        W32170  13.361   7.606   4.904 -0.0329  0.1834  0.2898
15324W        W32171   7.781  11.108  14.772 -0.1134  0.0700 -0.1109
15325W        W32172  11.977   0.506   2.190  0.0243 -0.0850  0.0249
15326W        W32173  14.588  16.228   3.788 -0.2229 -0.2027 -0.2921
15327W        W32174   8.423   3.603  16.223  0.1803  0.2232  0.0651
15328W        W32175   1.064  14.615  16.295 -0.0892 -0.0496  0.0244
15329W        W32176  15.654   3.651  14.552 -0.0258 -0.2946  0.4362
15330W        W32177   8.725  16.962   2.635 -0.0819 -0.3200 -0.1996
15331W        W32178  14.971  15.394  15.201  0.0796  0.0760  0.3069
15332W        W32179   1.747   1.226   5.232 -0.2752 -0.2660  0.1161
15333W        W32180   6.957  17.838   5.525 -0.2752 -0.1924 -0.3332
15334W        W32181   2.103  14.172   3.376  0.0538 -0.1786 -0.0093
15335W        W32182   5.762  16.011  15.121 -0.5127  0.1924  0.2757
15336W        W32183  10.399   5.005   4.629  0.0201 -0.3317 -0.0083
15337W        W32184   3.389  12.550  13.748  0.2313 -0.0154 -0.1269
15338W        W32185  11.732  15.427   5.910  0.1933 -0.0107  0.0324
15339W        W32186   2.423  13.910   5.648  0.0960  0.3226  0.1282
15340W        W32187   0.757  11.973   0.699 -0.0142 -0.1120  0.0102
15341W        W32188   6.422   4.441   4.937  0.3026  0.1059  0.0770
15342W        W32189   6.247   4.096  15.690 -0.1219  0.1874  0.1340
15343W        W32190   9.678  18.023  11.698 -0.1229 -0.0452  0.0437
15344W        W32191   5.521  10.970   5.139  0.1364  0.1389 -0.2487
15345W        W32192   7.650   2.722  15.593 -0.2249  0.2226 -0.1338
15346W        W32193   9.389  10.923   3.974 -0.0117 -0.0609 -0.1795
15347W        W32194   2.817   5.924   5.243 -0.0859 -0.2776 -0.0194
15348W        W32195  12.514   1.846   1.553 -0.1262 -0.2706 -0.1196
15349W        W32196   0.004  14.059  14.946  0.2402 -0.0424  0.2981
15350W        W32197   2.369  15.666   3.929 -0.0393  0.2557  0.0763
15351W        W32198  15.453  13.488  12.384  0.2078 -0.3023 -0.1750
15352W        W32199   2.259  11.889   0.788  0.2347 -0.1349  0.1704
15353W        W32200  14.666   4.714   0.368 -0.1588  0.2423  0.1855
15354W        W32201  14.713   2.940   4.885  0.2624  0.1397 -0.0496
15355W        W32202  11.779   1.356   2.257  0.2179 -0.0249  0.0008
15356W        W32203  11.363   8.126  11.137  0.1967  0.2679  0.3239
15357W        W32204  15.298  11.223   4.452 -0.2755  0.1694 -0.0220
15358W        W32205  17.639   0.280   0.564 -0.1060  0.0106  0.0266
15359W        W32206   0.155   4.015  13.681 -0.1711 -0.0370 -0.2312
15360W        W32207  11.060   4.569  13.474 -0.1900 -0.3811 -0.1058
15361W        W32208  17.457   9.024   2.249 -0.0209  0.1592 -0.0136
15362W        W32209   0.278  17.767   0.009  0.3545  0.3116  0.2857
15363W        W32210   0.124   9.802   3.632 -0.1849 -0.1500  0.3292
15364W        W32211  12.951   2.509  12.877 -0.0557  0.0550  0.1137
15365W        W32212  15.081   9.952  13.971 -0.1994  0.0214  0.2691
15366W        W32213   7.320   5.752  15.915 -0.2983 -0.2745 -0.0684
15367W        W32214  15.324   2.778   2.603  0.1145 -0.0518 -0.4769
15368W        W32215  16.171   4.462  11.994  0.0767  0.0455 -0.0059
15369W        W32216  10.533  12.351  14.740  0.1477 -0.3748  0.1984
15370W        W32217   0.655  10.513   3.582 -0.0588 -0.0971  0.0448
15371W        W32218   7.294   3.198  14.345  0.2905 -0.2943  0.0260
15372W        W32219   6.056   0.029  16.117  0.1898  0.2807 -0.0103
15373W        W32220   4.049  18.169   3.232 -0.2319  0.1677  0.1140
15374W        W32221  15.126  12.184   3.854 -0.3332 -0.1276  0.1477
15375W        W32222   4.403  17.304  14.214 -0.0721 -0.0246 -0.0688
15376W        W32223  12.415  15.592  13.050 -0.0607  0.0922  0.0968
15377W        W32224   9.317  10.396   2.418 -0.1519 -0.1402 -0.3362
15378W        W32225  10.743  17.734   3.331 -0.1747 -0.0197  0.4122
15379W        W32226   9.101  16.518   4.578 -0.1983  0.1279  0.1459
15380W        W32227  11.837   7.145   1.611 -0.0146 -0.0230 -0.2408
15381W        W32228  14.839   1.613  13.296 -0.1411 -0.0616  0.0131
15382W        W32229   0.987   8.603   4.642 -0.1267 -0.1651 -0.0212
15383W        W32230  17.416   4.368   3.447 -0.2404 -0.0395  0.2472
15384W        W32231  13.241   9.238   3.066  0.0669  0.1765  0.1734
15385W        W32232   2.840  10.820   2.763  0.2324  0.1924 -0.2035
15386W        W32233  12.859  17.594  14.939  0.4604 -0.1109 -0.2883
15387W        W32234   2.068  11.292  13.113  0.2731  0.1437 -0.3620
15388W        W32235  12.385  14.672   0.471 -0.0920  0.0246  0.0294
15389W        W32236  17.048   6.080  15.909 -0.1848  0.1363 -0.2896
15390W        W32237  18.019   3.173   0.134 -0.2780  0.1080 -0.0057
15391W        W32238   3.097  16.285   3.987  0.0317  0.2588 -0.2032
15392W        W32239   4.978   2.366  16.329 -0.2287  0.2442  0.0161
15393W        W32240   7.539  16.506   1.847 -0.0401  0.1695 -0.3811
15394W        W32241   5.281   0.431   4.975 -0.3022 -0.2865 -0.0931
15395W        W32242   2.675   1.156  12.984 -0.0492  0.0404  0.1580
15396W        W32243   2.387  16.504   2.049  0.0736  0.0492 -0.2313
15397W        W32244  13.203   6.390  12.813 -0.5351  0.1927  0.0707
15398W        W32245   2.178  10.639  16.040  0.0395 -0.0789 -0.2151
15399W        W32246   2.045   7.788   4.372 -0.0615  0.2686 -0.0338
15400W        W32247   0.755   5.881   1.682  0.0401 -0.1199 -0.2146
15401W        W32248  17.228   3.275   0.027 -0.2871  0.1073  0.0819
15402W        W32249  10.319  14.078   4.439 -0.1789 -0.2445  0.0765
15403W        W32250  10.016   9.361   3.611  0.2453  0.2272  0.0340
15404W        W32251  15.162   8.335  11.196 -0.0020  0.0955 -0.0571
15405W        W32252   7.274  17.864  14.972  0.0836  0.0745 -0.1083
15406W        W32253   6.022   9.688   0.068 -0.2052  0.0845 -0.0356
15407W        W32254   8.697   9.409  14.531  0.1556  0.0399 -0.1471
15408W        W32255  15.020   8.787  16.227 -0.2121 -0.3300  0.0321
15409W        W32256   1.601  16.101   0.104 -0.6523  0.0771  0.0610
15410W        W32257   4.789  12.501   2.348 -0.0579 -0.0415  0.3907
15411W        W32258   7.482   1.701  13.086 -0.2480  0.0883 -0.1914
15412W        W32259   2.232  15.459   3.120 -0.0338 -0.0145  0.0172
15413W        W32260   1.067   2.129   5.531  0.3513  0.0090 -0.2720
15414W        W32261   5.959  15.516  12.234 -0.2552 -0.2303  0.1376
15415W        W32262   9.745  12.026   2.734  0.1533  0.2983  0.3079
15416W        W32263   0.798   6.193  15.735 -0.0537  0.1937 -0.3174
15417W        W32264  11.142   0.414  12.355  0.2411 -0.1116  0.2162
15418W        W32265  13.157   0.805  12.978 -0.2536 -0.2527 -0.1122
15419W        W32266   2.304  16.808   5.752  0.1572  0.0430 -0.2541
15420W        W32267   6.554  15.545   3.507 -0.2745 -0.0204 -0.1258
15421W        W32268  16.112   9.398  11.672  0.3752  0.1204  0.3786
15422W        W32269  14.193   5.540  14.183  0.1243  0.3605 -0.1172
15423W        W32270   5.269   9.778   5.286 -0.1144  0.3293 -0.0551
15424W        W32271  12.675  13.995   4.609  0.0768 -0.0314 -0.1555
15425W        W32272  17.120   8.179   0.095  0.1875  0.1833 -0.1837
15426W        W32273  12.899   9.251   6.340 -0.0301 -0.2129  0.1242
15427W        W32274   2.526   5.128   0.760  0.0760 -0.1736 -0.1419
15428W        W32275   2.093   5.833  11.927 -0.0090  0.0694  0.3139
15429W        W32276   9.761  11.920   2.214 -0.0943 -0.0593  0.0602
15430W        W32277  12.254  10.051  15.578 -0.4379  0.1907  0.1453
15431W        W32278  15.694   3.142  14.799  0.2651  0.3759  0.2799
15432W        W32279   9.829  10.732  12.599  0.2151 -0.1104 -0.1263
15433W        W32280   3.849  10.837  16.462 -0.0646 -0.0668  0.1982
15434W        W32281   5.211   6.877   3.928  0.0654 -0.1174 -0.1553
15435W        W32282  13.496   0.260  13.319  0.0307  0.0194 -0.4248
15436W        W32283   6.287  14.430   1.584 -0.0242  0.4017 -0.2447
15437W        W32284  12.597  16.709  14.592 -0.0410  0.0751 -0.0276
15438W        W32285   4.158   7.232  15.148  0.0751 -0.1408 -0.1548
15439W        W32286   6.822   1.503  16.549 -0.2729 -0.1772  0.2840
15440W        W32287  12.795  13.630   4.322 -0.0629  0.1135 -0.1543
15441W        W32288   4.519  10.982   4.110  0.0960 -0.1130  0.0547
15442W        W32289   5.135   4.956  16.126 -0.0283  0.1465 -0.0412
15443W        W32290  10.597   7.033   0.500  0.0292 -0.0887 -0.2267
15444W        W32291  15.564   7.986  14.121 -0.4771  0.0021 -0.1946
15445W        W32292   0.347  11.717   5.910 -0.3863 -0.2351 -0.2427
15446W        W32293  14.860   4.138  11.408 -0.1350 -0.1742  0.0957
15447W        W32294   5.388   5.607   5.075 -0.5139  0.2437 -0.0558
15448W        W32295  16.956  11.265   0.333 -0.0385 -0.0938  0.2196
15449W        W32296   5.944  14.168  13.414 -0.3484 -0.2466  0.0197
15450W        W32297   6.561  16.789   2.119 -0.0511 -0.2427  0.2229
15451W        W32298   0.818   4.599   4.249 -0.2277 -0.4530  0.1403
15452W        W32299  11.685  12.031  14.006 -0.2067 -0.0063  0.1181
15453W        W32300   8.597   1.279   3.345 -0.2699 -0.3028  0.2268
15454W        W32301   9.151   8.558   3.023 -0.1279  0.0844 -0.1853
15455W        W32302   9.024  15.949   4.625 -0.0440 -0.1731  0.1666
15456W        W32303   8.984   6.066  14.013  0.0323  0.1328  0.3635
15457W        W32304  13.790  16.180  14.358  0.0245 -0.2355  0.2098
15458W        W32305   6.844   3.783   1.927  0.2088 -0.1514 -0.2657
15459W        W32306   5.014   4.293   0.263 -0.0817 -0.0191 -0.1431
15460W        W32307  16.670   4.084   0.902 -0.1404  0.3532  0.1736
15461W        W32308  10.689   3.480  14.994 -0.1350 -0.0885 -0.0250
15462W        W32309   4.906   5.372  11.666 -0.1225  0.0204  0.1249
15463W        W32310  13.793  15.609   0.766  0.4265  0.2481  0.1500
15464W        W32311   9.418   7.764  12.074 -0.0777  0.1678  0.0646
15465W        W32312   8.185  15.885   3.020 -0.2447  0.0171  0.2335
15466W        W32313  11.918  10.866  13.439 -0.2755  0.1171 -0.0231
15467W        W32314  11.888  17.259  13.562 -0.1894  0.2347  0.1972
15468W        W32315   5.431  15.266  13.997  0.2601  0.2125 -0.0602
15469W        W32316  16.311  13.098   0.206  0.0157  0.1541 -0.1205
15470W        W32317  11.741   2.767   2.257  0.1295 -0.0766 -0.2701
15471W        W32318   1.654   4.698   0.033  0.0413 -0.0869 -0.0012
15472W        W32319  11.286  14.185  15.431 -0.0430  0.0088  0.0608
15473W        W32320  17.679  13.933   5.081 -0.0587 -0.0148  0.2410
15474W        W32321   8.378   6.483  13.281 -0.0603 -0.0724 -0.1725
15475W        W32322  14.352   4.101  14.691  0.3186  0.0352 -0.0537
15476W        W32323   0.385   5.242   0.132  0.2357 -0.2745 -0.0073
15477W        W32324   7.230   7.377   0.601 -0.2431  0.0739  0.0201
15478W        W32325   8.150   7.320  14.771 -0.1078 -0.1129 -0.1851
15479W        W32326  16.182   1.345  16.154  0.0536  0.2243  0.0089
15480W        W32327  12.049   8.041  11.922 -0.2859 -0.1685  0.0582
15481W        W32328  14.446   1.209   2.281  0.1735  0.2576 -0.0636
15482W        W32329   0.196   0.910   0.331 -0.3114 -0.0965 -0.0197
15483W        W32330   8.112  16.861  15.273 -0.0816  0.0287 -0.1832
15484W        W32331   6.472  15.606  13.488  0.2375  0.0365 -0.1675
15485W        W32332   0.068  11.633   5.401 -0.0851 -0.2382 -0.0666
15486W        W32333   9.406   1.847  13.818 -0.1619 -0.2115 -0.1378
15487W        W32334  14.824   2.121  14.524 -0.1959 -0.0825 -0.1051
15488W        W32335   9.504  13.801   0.507 -0.0739 -0.1907 -0.0964
15489W        W32336  17.357   7.168  12.456 -0.0665 -0.0935 -0.2796
15490W        W32337   4.353   5.296   1.505  0.1017 -0.0424  0.1117
15491W        W32338  10.098  10.059  15.232  0.0305  0.1231  0.0791
15492W        W32339  16.110  16.648   1.821  0.2335  0.2280 -0.0670
15493W        W32340   8.694   3.115   2.684  0.5451  0.1718  0.1450
15494W        W32341   8.092   7.046   2.523 -0.2395  0.3378 -0.3058
15495W        W32342   4.726  15.878   2.964  0.1805 -0.1852 -0.1145
15496W        W32343   7.522  10.140  11.807  0.0410 -0.0224  0.2355
15497W        W32344   7.020  16.076   5.335 -0.1016 -0.0282  0.0999
15498W        W32345  15.902   2.525   3.456 -0.2091  0.0360  0.0607
15499W        W32346  16.400   8.449  11.775 -0.1840 -0.0113  0.2139
15500W        W32347   4.813   1.149  14.030  0.1080  0.1760 -0.0395
15501W        W32348   9.881  10.020   2.456 -0.1253  0.3493 -0.1656
15502W        W32349   7.165  13.340   2.533 -0.2579 -0.0947 -0.0686
15503W        W32350   4.685   6.061   4.441 -0.5437 -0.0501 -0.1756
15504W        W32351  13.441  11.623  12.976 -0.1333  0.1541 -0.2263
15505W        W32352  16.370  15.691   4.650  0.1260  0.0428  0.3839
15506W        W32353   4.398  10.616   3.201 -0.0384 -0.0107 -0.1299
15507W        W32354  11.536   8.376   3.727  0.0786 -0.0410 -0.2281
15508W        W32355   2.124  15.317  12.214  0.0531  0.0090 -0.1284
15509W        W32356  11.942   7.400   5.879  0.1600 -0.1172  0.1292
15510W        W32357  10.503  18.076   1.387 -0.1514  0.1984  0.0704
15511W        W32358   6.214   1.768  15.050 -0.0351 -0.0141 -0.0544
15512W        W32359   7.816  17.193   5.726 -0.0146  0.0494 -0.0839
15513W        W32360   7.636  11.333   0.688  0.1433  0.1552  0.1346
15514W        W32361   8.047   1.042  11.600  0.1757  0.3110 -0.0022
15515W        W32362  11.440   9.403   4.697  0.0099 -0.1131 -0.0999
15516W        W32363  14.265  17.194   3.345 -0.0027  0.1786 -0.1027
15517W        W32364  13.497   1.921  13.110 -0.1571 -0.0934  0.0494
15518W        W32365   6.907   1.981  13.019  0.3426  0.0053  0.0293
15519W        W32366  13.833   2.255   1.630  0.0399  0.1466  0.1727
15520W        W32367   2.897  15.210   1.094 -0.0089 -0.2798 -0.4115
15521W        W32368  16.548   2.365   1.773  0.2008 -0.2798  0.0970
15522W        W32369   5.317  17.724   4.462  0.1412 -0.2210 -0.1358
15523W        W32370  14.680   1.028  12.422  0.0145 -0.1652 -0.0998
15524W        W32371   4.482  14.801   2.264 -0.3690 -0.0994 -0.1567
15525W        W32372  16.383  14.279   5.787 -0.1396  0.0200  0.0016
15526W        W32373   1.568  15.646   2.704  0.0033 -0.1165 -0.0678
15527W        W32374   4.397   1.959   4.463 -0.0479  0.0523 -0.0261
15528W        W32375  11.059  16.808   5.256 -0.0668  0.1829 -0.1335
15529W        W32376  12.065   1.403  13.480 -0.1811 -0.4838 -0.4502
15530W        W32377  10.288  18.149  14.236 -0.2567  0.0143  0.3504
15531W        W32378  16.088  14.786   2.614  0.4461  0.0027  0.3895
15532W        W32379  15.478  10.276   2.943 -0.1678  0.0964 -0.0028
15533W        W32380  16.352   3.597  16.094 -0.2429  0.0696 -0.3480
15534W        W32381   6.974   6.500   5.383 -0.0232  0.0814  0.1155
15535W        W32382   6.434   5.804   4.821  0.0386 -0.2326  0.1299
15536W        W32383   5.865   4.120   4.859 -0.1781 -0.4137 -0.1888
15537W        W32384   7.339   6.288  12.470 -0.0530  0.1079 -0.1989
15538W        W32385   0.512   2.449  15.632 -0.3441  0.0604  0.2188
15539W        W32386   2.924  12.428   2.659  0.1933 -0.0071  0.2260
15540W        W32387   4.615   6.075  13.821 -0.0926  0.0223  0.4029
15541W        W32388  12.783   2.451  13.376 -0.0356  0.0865  0.2469
15542W        W32389  12.177   8.849  13.326  0.3131  0.0194 -0.0334
15543W        W32390   0.854   9.833   3.309  0.0020 -0.0457 -0.0112
15544W        W32391   5.867  14.991   0.445  0.2001 -0.0930 -0.3826
15545W        W32392   7.948   9.164  13.033  0.0278 -0.3393  0.3250
15546W        W32393   5.348  13.670   5.661 -0.0775 -0.0055 -0.3081
15547W        W32394   8.577   0.628   2.237  0.0192 -0.1064  0.0185
15548W        W32395  16.647   2.259   2.832  0.0392  0.1412 -0.3541
15549W        W32396  14.632   3.978   1.872  0.0810  0.2176  0.2542
15550W        W32397  12.996   3.817   4.018 -0.2298 -0.1507  0.1301
15551W        W32398   8.093   6.079  11.682  0.0562  0.1399  0.0713
15552W        W32399   5.500   1.366   0.417  0.1161  0.0982 -0.2520
15553W        W32400   4.469   8.776  12.163 -0.1668 -0.1554  0.0598
15554W        W32401  13.099  12.909   0.609 -0.2044 -0.2626  0.1009
15555W        W32402  16.840   6.603  15.045  0.0348  0.0694 -0.0874
15556W        W32403   6.572   3.058   5.426 -0.2167  0.2768 -0.0295
15557W        W32404   4.231   0.697   6.286 -0.0725 -0.2432 -0.1884
15558W        W32405   2.279  14.562  14.515 -0.0824 -0.2511 -0.0720
15559W        W32406  15.194  10.424  16.301  0.0786 -0.1107 -0.1142
15560W        W32407  13.285   7.571  15.765 -0.0883 -0.0192  0.0097
15561W        W32408  13.229   1.499   0.308  0.0800 -0.2194 -0.2121
15562W        W32409   2.949   3.244  13.262 -0.1208  0.0747 -0.0651
15563W        W32410  13.666   3.566   5.778  0.3283 -0.1570 -0.0520
15564W        W32411  17.795   2.975  15.968 -0.1923  0.0830  0.0510
15565W        W32412   3.088   5.594  15.698 -0.1288 -0.3370 -0.3244
15566W        W32413  17.339  12.148   5.239 -0.0672 -0.0573  0.2916
15567W        W32414   9.834   1.640  13.553 -0.1867  0.0143 -0.0238
15568W        W32415   0.805  11.937   3.432  0.0145  0.1786  0.1622
15569W        W32416   4.274   5.023   2.114 -0.0927 -0.2005  0.3657
15570W        W32417  11.143   2.456  15.975 -0.1713 -0.2395 -0.3461
15571W        W32418   6.500  15.660   0.152 -0.0370 -0.0794  0.1646
15572W        W32419  15.548   4.634   2.612  0.1125  0.3389 -0.0513
15573W        W32420   7.270   4.309  12.976  0.0564  0.2327  0.1914
15574W        W32421   7.332   5.973   1.536 -0.1578  0.2630  0.3699
15575W        W32422   8.047  15.437   1.041  0.4534 -0.0877 -0.0655
15576W        W32423   1.066   2.467   0.767  0.0443 -0.0290  0.1918
15577W        W32424   8.205   0.152   2.314 -0.0627  0.0358  0.0782
15578W        W32425  12.048   3.945  13.815  0.1528  0.2211 -0.0429
15579W        W32426  14.536   3.333  12.343  0.0671 -0.2832 -0.0338
15580W        W32427   8.697   5.314  15.612 -0.0563 -0.0192  0.1519
15581W        W32428   7.976   4.332   1.270 -0.0135  0.0727 -0.0608
15582W        W32429   7.630  10.294   1.847 -0.0786  0.2123 -0.1408
15583W        W32430   6.370   2.286  12.457 -0.1640  0.0515  0.0970
15584W        W32431  16.183  10.189  15.914  0.2329 -0.3146 -0.0141
15585W        W32432  14.286  17.831   2.201 -0.3317 -0.0403  0.0376
15586W        W32433  11.266   6.442  13.574 -0.1871  0.1263  0.2126
15587W        W32434  13.942   7.919  14.765 -0.4197 -0.0316  0.0038
15588W        W32435  12.793  12.706   0.241  0.1427 -0.2004  0.0014
15589W        W32436  12.168  14.751   4.479 -0.1490 -0.1837 -0.4986
15590W        W32437  16.355  17.825  10.978  0.0860  0.3040  0.0429
15591W        W32438   8.967   1.659  16.469  0.0693 -0.2994 -0.0558
15592W        W32439   5.933  12.473   2.059 -0.3440  0.2063  0.1059
15593W        W32440   6.635   8.618  14.284  0.4924  0.1559  0.2453
15594W        W32441  13.457   7.475   2.433 -0.0770 -0.1665 -0.0082
15595W        W32442   2.445  10.916   1.307  0.1880 -0.2643  0.1499
15596W        W32443   4.102   0.200   0.494 -0.1549 -0.0658 -0.2429
15597W        W32444   8.116   7.058   2.035 -0.0825 -0.1939 -0.0302
15598W        W32445   5.871  16.347   1.292  0.1106  0.4686 -0.0922
15599W        W32446  11.289   2.903  13.562  0.1094  0.2649  0.2133
15600W        W32447   5.245   6.221   1.477 -0.1342 -0.2059  0.4173
15601W        W32448  12.829   0.173   0.941 -0.1112  0.0044 -0.0842
15602W        W32449   6.856   3.599  15.275 -0.1587  0.2440  0.1749
15603W        W32450   4.489  10.774  15.940  0.0783 -0.1474  0.0683
15604W        W32451   1.046   8.451  12.800  0.1701 -0.0170  0.0950
15605W        W32452  10.879  12.171   2.509  0.0171  0.1176  0.1961
15606W        W32453   3.311   5.930  15.996 -0.1050 -0.2611  0.4936
15607W        W32454   0.904  10.149   0.971  0.2073  0.3258 -0.0671
15608W        W32455   6.957   4.340   3.546  0.3073  0.0496 -0.0792
15609W        W32456  15.503  17.877   1.455  0.0310 -0.2769  0.0489
15610W        W32457   8.176   3.721  15.631 -0.0495 -0.0759 -0.0402
15611W        W32458   3.010  11.227   4.972  0.0242  0.0144 -0.2946
15612W        W32459  14.640   6.028  16.302  0.0169 -0.0753 -0.0699
15613W        W32460  18.016   1.862   1.547  0.0593 -0.0671 -0.2753
15614W        W32461   2.424   9.338   3.097  0.0601 -0.3020 -0.1349
15615W        W32462   7.712  17.045   5.255 -0.0402 -0.1202  0.0947
15616W        W32463   1.204   2.183  16.083  0.2071  0.0349 -0.0627
15617W        W32464  10.029  14.439   4.238 -0.2990 -0.1568 -0.0418
15618W        W32465   1.019   1.564   4.512 -0.1461 -0.0002  0.1082
15619W        W32466  15.103   0.020   0.100  0.1571  0.0587  0.0545
15620W        W32467   2.294  17.498   0.978 -0.1614 -0.3011 -0.3361
15621W        W32468  10.297   7.246  13.590 -0.0959  0.0401  0.0765
15622W        W32469   0.067  16.481   2.037  0.0539 -0.0351  0.0860
15623W        W32470   3.745   7.540  12.723 -0.2572  0.1288 -0.0619
15624W        W32471  10.416   3.485   5.391 -0.0093 -0.1617  0.1867
15625W        W32472  14.635   8.010   1.833  0.1799 -0.2688  0.2677
15626W        W32473   1.515   9.629  15.062  0.1855 -0.1288  0.1239
15627W        W32474   7.239   6.091   3.702  0.0831  0.0621  0.1263
15628W        W32475  17.177   3.363   0.508  0.2217 -0.1049 -0.3524
15629W        W32476  10.380   6.036   0.774 -0.1468  0.0550 -0.0733
15630W        W32477  15.392  14.686  15.007 -0.1095  0.1405 -0.1032
15631W        W32478  10.805   1.062   2.657 -0.1271 -0.3390 -0.0999
15632W        W32479   9.152   3.249  13.370  0.5137  0.0341  0.0634
15633W        W32480   5.141   9.486  14.672  0.1564  0.2507  0.1954
15634W        W32481   3.054   9.175  12.912  0.1221  0.1845 -0.0153
15635W        W32482  17.510   3.328  12.610 -0.0786 -0.3103  0.3597
15636W        W32483   5.625  12.091   2.038  0.0564  0.1338 -0.2953
15637W        W32484  16.966   8.049   0.934 -0.0385 -0.3483 -0.1034
15638W        W32485   9.881  12.160   0.319 -0.1055 -0.1240 -0.1397
15639W        W32486  13.857  16.611  11.544 -0.1161 -0.0728 -0.1679
15640W        W32487  11.192   5.568   1.141 -0.0632 -0.1107 -0.0690
15641W        W32488   6.518  14.676  16.351  0.3071  0.1113  0.0205
15642W        W32489   3.276  15.356   0.436  0.2336 -0.0043  0.1856
15643W        W32490  17.360  10.916   0.093 -0.1907 -0.3387 -0.1248
15644W        W32491  10.967  16.703  14.231 -0.2246  0.1044 -0.1048
15645W        W32492  12.714   3.648  15.353 -0.2040  0.0014  0.1123
15646W        W32493   0.734  13.827  16.322 -0.3619 -0.2446 -0.2483
15647W        W32494  14.200   1.491   2.028  0.1868 -0.1282 -0.1519
15648W        W32495  17.983   7.072  13.646 -0.1371  0.0037  0.0604
15649W        W32496   2.781  12.179  14.791 -0.1617 -0.1481 -0.1911
15650W        W32497  15.356   7.068  15.919  0.1341  0.2128 -0.1442
15651W        W32498  17.182   6.919   4.165 -0.1977  0.2848  0.2658
15652W        W32499   6.870   9.863  16.157  0.0206  0.0842  0.0856
15653W        W32500   1.715   6.956  14.235 -0.0498 -0.3385 -0.0424
15654W        W32501   5.740   8.159   4.283 -0.0963 -0.1265 -0.1329
15655W        W32502   2.972  15.227   5.137 -0.1606 -0.3644 -0.3273
15656W        W32503   9.703  16.668   4.515  0.1086 -0.3044  0.2366
15657W        W32504  16.446   9.543   1.588  0.1962 -0.1693  0.0717
15658W        W32505   6.044   4.346  13.247 -0.0985  0.3756 -0.1331
15659W        W32506  15.671  16.950   1.922  0.0217 -0.0775  0.2782
15660W        W32507  12.842   6.296   2.659 -0.1568 -0.1578 -0.0485
15661W        W32508  15.821  12.504   1.305  0.1772 -0.1414 -0.1908
15662W        W32509   9.210   9.066  15.069 -0.1174  0.0515 -0.2396
15663W        W32510  14.545   6.618   3.020  0.2038  0.3219  0.3809
15664W        W32511   3.836   8.894   4.419 -0.1637 -0.2174 -0.1895
15665W        W32512  17.213   3.101  13.412  0.0450 -0.0621  0.0902
15666W        W32513  13.290   5.895   0.219 -0.3727 -0.0059  0.3062
15667W        W32514  12.705  17.046   2.386 -0.1124 -0.1506 -0.2175
15668W        W32515   5.718   9.935   3.578  0.0866  0.1585  0.2221
15669W        W32516  17.080   8.685   5.295 -0.1009 -0.1555  0.0597
15670W        W32517  12.596   3.402  15.768 -0.0980  0.2985  0.1501
15671W        W32518  17.853   2.421   3.979 -0.2220  0.2954 -0.0611
15672W        W32519  14.817   7.615   3.838 -0.3068  0.1893 -0.2268
15673W        W32520  15.547   3.498   1.038  0.1398  0.0587  0.2164
15674W        W32521  11.636  17.020  15.239  0.0095 -0.1502  0.0652
15675W        W32522   7.882   8.678   2.915 -0.0422 -0.1047 -0.1652
15676W        W32523  11.270   5.600  13.126  0.0418  0.3082  0.0819
15677W        W32524   1.009  12.773  13.043 -0.0403  0.1733 -0.1230
15678W        W32525   3.509  13.522   4.968 -0.2915 -0.0799 -0.0085
15679W        W32526  16.183   4.080   1.042 -0.1197 -0.1657  0.1801
15680W        W32527  10.574  13.009   3.405 -0.2422 -0.1446 -0.0299
15681W        W32528   7.061  13.078   1.244  0.2222  0.2013  0.2334
15682W        W32529   3.109   8.457  16.123 -0.1222  0.4102  0.2385
15683W        W32530  12.740  13.172   1.905 -0.0226  0.0081 -0.2182
15684W        W32531   7.816  10.020   4.600 -0.2564 -0.3426  0.1630
15685W        W32532  14.556   2.752  14.789  0.0877 -0.0983 -0.1190
15686W        W32533  15.007   0.441   2.231 -0.0461  0.1488  0.2632
15687W        W32534  13.950  11.398   2.424  0.0882  0.1627 -0.1465
15688W        W32535  15.795   0.293  16.125 -0.1792  0.2090 -0.0760
15689W        W32536  17.455   0.094   3.407 -0.2846 -0.1519  0.0664
15690W        W32537   0.019   2.572   0.795  0.0288  0.0923  0.1084
15691W        W32538  12.858   1.924   5.432  0.1152 -0.2716 -0.2774
15692W        W32539  12.256   5.663  11.523  0.0831  0.1046  0.1826
15693W        W32540   8.215   5.123   0.931  0.0625  0.0730 -0.0889
15694W        W32541   0.231  15.626  14.948  0.0857  0.0762  0.2754
15695W        W32542   2.758   1.232   5.432 -0.1149 -0.1802  0.3095
15696W        W32543  14.380  16.614  14.971  0.1072  0.0611 -0.0631
15697W        W32544   2.661   4.915   2.672 -0.1989  0.1025 -0.0571
15698W        W32545   3.005  15.068   3.324  0.2402 -0.1335  0.0446
15699W        W32546   1.264  10.541  14.122 -0.2996 -0.1603 -0.0561
15700W        W32547   6.707   9.654   3.610  0.3587 -0.0225 -0.1669
15701W        W32548   7.129  14.515   2.763  0.1310  0.0226  0.1266
15702W        W32549   1.201  17.043  13.485 -0.2240  0.1022 -0.2241
15703W        W32550   1.211   2.955  13.399 -0.3295  0.2549  0.2811
15704W        W32551   2.130  14.112  13.490 -0.2099 -0.1749 -0.1162
15705W        W32552   9.239   7.315   4.594  0.0342  0.2237 -0.2003
15706W        W32553   1.213   3.758   1.958  0.3052  0.0364 -0.0114
15707W        W32554   6.261   2.918   0.438  0.1396 -0.2105 -0.4158
15708W        W32555  10.907   8.038  16.025 -0.1307 -0.1222 -0.1662
15709W        W32556  13.784   1.165  11.746 -0.0944 -0.2362 -0.0975
15710W        W32557   5.148  13.583   4.710 -0.0301  0.0577  0.1297
15711W        W32558  16.636  17.029   0.514  0.1287  0.2606 -0.2947
15712W        W32559   1.093  16.032  13.884 -0.1046  0.1692  0.1047
15713W        W32560  17.754   9.447   3.914  0.2480  0.0265 -0.0276
15714W        W32561  13.783   0.193   0.725 -0.1912 -0.1002  0.1430
15715W        W32562  14.657  14.283  13.698  0.1392  0.0736  0.0021
15716W        W32563  10.795  15.382  16.354 -0.0913 -0.3332 -0.3312
15717W        W32564   6.145  11.924  13.353  0.0961  0.0814 -0.0919
15718W        W32565   5.934  14.625   5.751 -0.0631 -0.2398 -0.1094
15719W        W32566   6.367   1.830  12.080 -0.0652 -0.0521  0.2397
15720W        W32567   3.430  18.129   6.186 -0.0959  0.0591 -0.4398
15721W        W32568  13.402   4.079   4.875  0.0801 -0.2056  0.3078
15722W        W32569  10.097   0.792  11.748 -0.1057  0.1178 -0.1378
15723W        W32570  17.804   7.640  16.178  0.0640 -0.2024 -0.2940
15724W        W32571   5.857   7.675   3.997  0.0433  0.2651  0.1322
15725W        W32572  14.076   9.122  11.566 -0.2426  0.0803 -0.1781
15726W        W32573   2.809   8.819   4.716  0.1913 -0.3032 -0.3205
15727W        W32574  11.917   0.393  11.930  0.0804  0.0968 -0.0654
15728W        W32575  12.960  18.152   3.955  0.0420 -0.2629  0.0850
15729W        W32576   3.133  13.506   5.298  0.1431  0.3321 -0.1411
15730W        W32577  10.601   4.161   4.108  0.0506 -0.1171  0.0433
15731W        W32578  17.795   3.922  15.720 -0.0242 -0.0053  0.0835
15732W        W32579   9.703   8.150  11.277 -0.0742 -0.3044 -0.2607
15733W        W32580   4.387   9.644  14.793 -0.4677 -0.0692  0.1144
15734W        W32581  14.762   7.803   4.953 -0.1427 -0.0628  0.2644
15735W        W32582  12.097  17.599   5.898  0.0798  0.0359 -0.0342
15736W        W32583   2.074   3.893  12.164  0.1630 -0.1267 -0.0520
15737W        W32584   7.014  14.489  16.440 -0.0825  0.0579 -0.2990
15738W        W32585  10.486  16.103  13.288  0.0481  0.4707  0.1642
15739W        W32586   6.468   6.906   4.060  0.2438 -0.1497  0.2249
15740W        W32587  13.528  16.288  14.784 -0.1977  0.0101  0.0627
15741W        W32588  16.100   5.125  16.338 -0.1518  0.0959  0.0114
15742W        W32589  11.599   0.053  13.396  0.0678  0.0891 -0.2309
15743W        W32590   8.931   7.985  15.508  0.1806  0.2793  0.1795
15744W        W32591  12.829   5.717   2.024 -0.0117 -0.2347  0.0628
15745W        W32592  17.818  15.004  15.885 -0.1514 -0.1189  0.1931
15746W        W32593   6.271  11.397   0.816 -0.3554 -0.2928 -0.2113
15747W        W32594   9.700  14.252   0.351 -0.3014  0.2334 -0.0322
15748W        W32595  11.998   0.352   2.734  0.1559 -0.0958 -0.0019
15749W        W32596   4.017   3.183   1.717 -0.1027 -0.2221  0.0508
15750W        W32597  11.873  17.087   3.654  0.0604 -0.0182  0.0926
15751W        W32598   6.075   7.057   0.794 -0.0702 -0.2403 -0.1283
15752W        W32599  16.904  16.303  16.139 -0.1052 -0.2399 -0.0905
15753W        W32600   5.726   4.003   1.946 -0.3826  0.4462 -0.2526
15754W        W32601  11.745   2.998   4.524  0.0643  0.4001 -0.2306
15755W        W32602   2.591   0.414   0.446  0.0263 -0.0132  0.1347
15756W        W32603  14.139   9.277   1.555 -0.0717  0.3103 -0.2747
15757W        W32604  12.318  16.486   2.968 -0.0430 -0.0220 -0.0120
15758W        W32605   5.537  13.452  14.354  0.1262 -0.2655  0.1547
15759W        W32606  13.934   0.765  14.666 -0.1353 -0.0598 -0.0267
15760W        W32607  15.679   0.876   0.309 -0.4443 -0.1243 -0.2329
15761W        W32608  16.610   9.581   4.206  0.0936 -0.1061  0.1551
15762W        W32609   5.943   0.609  15.085 -0.2105 -0.1870  0.0278
15763W        W32610  18.170   3.944   1.400  0.2997 -0.1969 -0.1770
15764W        W32611   3.817   0.058   2.483 -0.3044 -0.0333 -0.2746
15765W        W32612   1.022   7.124   1.459 -0.1186 -0.0068  0.2863
15766W        W32613   9.769   8.908  12.888  0.1311 -0.1742 -0.1127
15767W        W32614  14.155  12.161   5.191  0.0230  0.2179 -0.3163
15768W        W32615   4.353   0.336   1.626 -0.4555  0.0885  0.1114
15769W        W32616   6.283   8.887  15.095  0.0303 -0.0320 -0.0166
15770W        W32617  10.135   4.321  12.505 -0.1449  0.6519  0.2453
15771W        W32618  12.134   4.101   3.891  0.1663 -0.0803  0.4061
15772W        W32619   5.574  13.547   1.241 -0.1115 -0.3346 -0.2557
15773W        W32620   7.123   8.129  13.168  0.1727 -0.3087 -0.4045
15774W        W32621   8.229  11.174   2.528 -0.1810 -0.2474 -0.2357
15775W        W32622   9.809   6.019   3.030 -0.0340  0.3848 -0.1496
15776W        W32623   3.679   9.816  12.874 -0.0293  0.0484 -0.1485
15777W        W32624   8.213  14.518  12.139 -0.0460  0.2678  0.0269
15778W        W32625   5.337  11.511  14.244  0.0581 -0.0637  0.2768
15779W        W32626   6.594   9.123  16.073  0.0583 -0.0022 -0.0113
15780W        W32627  12.633  13.131  11.023 -0.1213 -0.3825  0.0983
15781W        W32628  15.447   0.857   4.502 -0.2862  0.4544 -0.0501
15782W        W32629   6.385   8.379   4.209  0.0391  0.2287  0.0980
15783W        W32630  17.935  17.494  12.948 -0.2563 -0.0849 -0.2130
15784W        W32631  14.877   2.947  15.109 -0.0473 -0.0624  0.0470
15785W        W32632   3.642   2.374   5.308  0.2153 -0.2698  0.0089
15786W        W32633   6.519  18.092   4.540  0.1192  0.2163 -0.2394
15787W        W32634   5.091  16.429   6.099 -0.1065  0.0148  0.1636
15788W        W32635   0.054   4.344   4.492  0.1291 -0.0042  0.0635
15789W        W32636  17.069   5.159   3.160  0.2808  0.0238 -0.0239
15790W        W32637   7.875   4.998  15.727  0.1380 -0.2916 -0.0398
15791W        W32638   1.920  10.374   6.300 -0.1542 -0.0211 -0.1316
15792W        W32639   5.405   8.893   4.064  0.1132 -0.2050 -0.4147
15793W        W32640   3.466  15.659   4.554 -0.0766  0.2858  0.0715
15794W        W32641  14.567   1.369   5.826  0.0368  0.1042 -0.0476
15795W        W32642   2.697   3.841   4.501  0.2173 -0.0885  0.0338
15796W        W32643  12.300   1.619  15.926  0.1038  0.1935 -0.0439
15797W        W32644  13.738   7.583   2.850 -0.0694 -0.2578  0.0677
15798W        W32645   4.703   7.692   0.224 -0.2765  0.0435  0.1448
15799W        W32646  12.025   7.348   0.796  0.2822  0.1052  0.4157
15800W        W32647  10.304  17.574  15.567 -0.1267  0.0929  0.1303
15801W        W32648  14.619  14.654  11.838 -0.1747  0.0347  0.0770
15802W        W32649   0.364  14.366  14.855 -0.1126  0.2681  0.3813
15803W        W32650  16.426  16.791   2.612 -0.2622  0.0001  0.2235
15804W        W32651   1.584  10.061   5.054 -0.0349 -0.1017  0.0636
15805W        W32652  11.402  11.541   3.311  0.3852 -0.0234  0.2721
15806W        W32653   9.621  11.503   1.925  0.2125  0.1873  0.1400
15807W        W32654  18.103   1.294   2.778 -0.1613 -0.2799 -0.0181
15808W        W32655  12.155   9.046   4.744 -0.1478  0.0081  0.0474
15809W        W32656  10.060   4.257   4.304 -0.1060 -0.0058  0.0240
15810W        W32657  15.366   2.693   3.151 -0.1688 -0.1321  0.1872
15811W        W32658  16.417   4.387   0.554  0.0600  0.1756 -0.0640
15812W        W32659   3.804   9.163  15.819  0.0157  0.2412 -0.1707
15813W        W32660  14.936   3.247  11.812  0.1200 -0.1812  0.2009
15814W        W32661  11.345  12.127  12.220 -0.1844  0.0222 -0.1397
15815W        W32662  15.489  13.616   6.137 -0.1929  0.1152 -0.0685
15816W        W32663   3.118   3.315   5.561  0.1083  0.0378 -0.1152
15817W        W32664   7.388   7.739   1.868 -0.1453 -0.0201 -0.1740
15818W        W32665  13.009   6.610   1.447 -0.3587 -0.2572 -0.2065
15819W        W32666   3.881  15.698   2.191 -0.1557 -0.1575  0.0482
15820W        W32667  16.357   2.039   5.545  0.1837  0.1357  0.0483
15821W        W32668  12.498   8.505   0.281  0.0226 -0.3486 -0.0450
15822W        W32669   8.139   9.635  12.927 -0.0779  0.1273 -0.0958
15823W        W32670  15.530   3.671   3.130  0.2071  0.0347  0.0497
15824W        W32671  16.270  15.156   2.998 -0.0456  0.2421 -0.1235
15825W        W32672  12.705  11.689   3.438  0.0464 -0.1343 -0.0121
15826W        W32673  17.385   0.626  11.803  0.1383  0.1965 -0.0037
15827W        W32674   3.344  17.648   2.463 -0.1782  0.2717 -0.0577
15828W        W32675   9.269   9.342  10.405 -0.0000 -0.2876 -0.1250
15829W        W32676  10.111   3.352  13.303  0.3347 -0.0900 -0.1924
15830W        W32677   3.086   6.950   0.097 -0.3089  0.2217  0.1592
15831W        W32678   5.093  13.556  15.658 -0.1940  0.4113  0.2187
15832W        W32679  17.962  17.635   0.084 -0.2416 -0.1991  0.0324
15833W        W32680   5.529   3.979   5.224 -0.0108  0.2876  0.0347
15834W        W32681  12.188  17.009   0.520  0.0264 -0.1738  0.1604
15835W        W32682  17.866  14.551   5.613  0.0772 -0.2350  0.0501
15836W        W32683  16.019  17.005   4.351 -0.2782 -0.0113 -0.1320
15837W        W32684   2.643  11.505  15.268 -0.1276  0.1771  0.4054
15838W        W32685   5.201   2.150   0.095 -0.2198 -0.1398 -0.1103
15839W        W32686   1.284   7.205   1.868 -0.1116 -0.1542  0.2686
15840W        W32687   9.453   5.471  11.763 -0.2084 -0.0546  0.2051
15841W        W32688   9.711  13.076   5.160 -0.2874  0.2442 -0.0436
15842W        W32689  10.731  17.535   1.159  0.0078  0.0010  0.3516
15843W        W32690   1.878   0.341  15.581  0.3311  0.2106 -0.3132
15844W        W32691  15.367   1.259   2.068  0.1409  0.1649 -0.0665
15845W        W32692  10.224  10.105  11.667 -0.0083  0.1742 -0.0806
15846W        W32693  11.399  11.928   4.916  0.0030  0.3621  0.1448
15847W        W32694   8.516   2.649   3.095 -0.2054  0.0757  0.1466
15848W        W32695  15.902   7.375   0.102  0.1146  0.2051 -0.0374
15849W        W32696   5.508  12.922   2.185  0.2600  0.1305  0.0295
15850W        W32697   3.412   4.835   0.445 -0.1040 -0.1056  0.0588
15851W        W32698   6.857   6.783  16.615 -0.2243 -0.1209 -0.1754
15852W        W32699   1.247  15.237   3.016  0.0211 -0.0142 -0.1815
15853W        W32700  11.744  17.607   3.786  0.1268 -0.1062  0.3248
15854W        W32701   3.601   7.522   0.577 -0.0410  0.1920 -0.3189
15855W        W32702  17.614   5.906  12.405 -0.2022  0.0739  0.1125
15856W        W32703  13.828  11.358   5.020  0.1430  0.1093  0.1885
15857W        W32704   0.413   2.219   0.944 -0.1856  0.0843  0.1008
15858W        W32705   7.271   9.067   0.566  0.0056  0.0071  0.2535
15859W        W32706   1.518   9.275  14.590  0.0088 -0.0640 -0.0951
15860W        W32707  12.474  16.955  15.897  0.1586  0.2033 -0.2430
15861W        W32708   1.716   6.159  12.133  0.1697 -0.0566 -0.0151
15862W        W32709  16.028  16.876   2.302 -0.0602  0.0614 -0.0675
15863W        W32710  14.744  16.516   0.588 -0.0998 -0.0722 -0.0318
15864W        W32711  14.053   1.653  15.417  0.0205  0.2231 -0.1475
15865W        W32712   7.525  11.952  14.496  0.2565  0.0842 -0.0964
15866W        W32713  16.791   4.546  14.900  0.0121  0.0223 -0.1608
15867W        W32714  15.106   4.923   1.629 -0.1244  0.2190 -0.0872
15868W        W32715  10.803   3.567   0.711 -0.1618 -0.3383 -0.0443
15869W        W32716  16.374  14.701   3.218 -0.0835  0.0051  0.1502
15870W        W32717   1.649  17.786  12.418 -0.0506 -0.0350  0.0657
15871W        W32718  12.079   1.972   3.362  0.2031 -0.1138  0.4640
15872W        W32719   1.182   2.787  12.450 -0.2481  0.0849 -0.2761
15873W        W32720   0.093  11.167   4.995  0.1422 -0.0170  0.0601
15874W        W32721   0.883   1.273  11.521  0.0191  0.0431 -0.0487
15875W        W32722   2.057  17.001   5.361 -0.1548 -0.0723  0.1338
15876W        W32723   2.097  13.295   2.949  0.0361  0.0586 -0.2845
15877W        W32724   2.159   0.765  12.107 -0.1434 -0.0276 -0.2533
15878W        W32725   9.561   7.416   2.105 -0.1339 -0.2136  0.0442
15879W        W32726   8.185  13.077  11.819 -0.0113 -0.2236  0.1727
15880W        W32727  16.224  16.378   0.491 -0.1145  0.0601 -0.2723
15881W        W32728   7.432   7.077  16.030 -0.0308 -0.1999  0.1664
15882W        W32729  13.236  11.412  13.798  0.1548  0.0403 -0.0947
15883W        W32730  10.981  13.444  13.790  0.0889 -0.3616  0.0953
15884W        W32731  12.282   1.391   4.627 -0.0328 -0.0473  0.1691
15885W        W32732   1.441   8.801   5.155  0.0070 -0.4924  0.2013
15886W        W32733   8.990  13.830   3.327  0.2240 -0.1892  0.0625
15887W        W32734  13.377   0.261   1.555  0.0392  0.1141 -0.1052
15888W        W32735  17.225  10.250  11.851  0.0560 -0.0172  0.1831
15889W        W32736  13.061  17.045   2.867  0.2144  0.0284 -0.1377
15890W        W32737   7.922  10.745   3.457 -0.2917 -0.0843 -0.0792
15891W        W32738   3.793  13.883   2.937 -0.0001  0.0314 -0.1032
15892W        W32739   1.126   0.106  12.974  0.0450  0.1549 -0.0237
15893W        W32740  16.101  12.428   1.674 -0.0684 -0.0969  0.0911
15894W        W32741   7.400  16.172   5.626 -0.1375  0.2923 -0.0812
15895W        W32742   5.999  10.391   5.592 -0.0500 -0.1013 -0.0568
15896W        W32743  17.582   7.376   5.978 -0.1819 -0.2506  0.2929
15897W        W32744   9.194  11.231  14.427 -0.2431 -0.3647 -0.2396
15898W        W32745   1.633  10.098   5.841  0.0912 -0.2242  0.0084
15899W        W32746   7.540  11.268  13.464 -0.2246 -0.3375  0.0436
15900W        W32747   5.950   2.795   0.855 -0.1015  0.3497 -0.1078
15901W        W32748  15.352   9.911  16.223 -0.0619  0.0393  0.3043
15902W        W32749   7.329   7.785  13.790 -0.1501  0.3670  0.3038
15903W        W32750   5.709  14.757  14.055 -0.1502  0.2087 -0.1292
15904W        W32751   0.449  13.847   0.343 -0.2914 -0.0514  0.1813
15905W        W32752  10.761  10.564  12.794 -0.0485 -0.0676  0.2034
15906W        W32753   3.991   4.322   2.795  0.0903  0.3065  0.1614
15907W        W32754   2.137   5.314   3.939 -0.0640  0.1817 -0.1334
15908W        W32755  10.184   0.274   5.314  0.5677  0.2451  0.0129
15909W        W32756   8.748   1.633  15.935 -0.1329  0.0422 -0.0670
15910W        W32757  12.190   2.484  16.095 -0.1892  0.1566  0.0493
15911W        W32758  12.098   0.095  13.261 -0.1301 -0.0690 -0.5279
15912W        W32759   5.441   4.449   3.274 -0.0022 -0.2657  0.0358
15913W        W32760  11.191  12.803   0.563 -0.1973 -0.0159  0.0822
15914W        W32761   6.232   4.174   1.122 -0.0823  0.1791 -0.0419
15915W        W32762  10.921  17.339  12.082 -0.2263 -0.0568  0.1369
15916W        W32763  14.477  11.910   5.705  0.2200 -0.1828 -0.1135
15917W        W32764   8.767  14.477  15.401  0.0516 -0.1068 -0.0557
15918W        W32765  12.772   9.666  13.048 -0.1719 -0.2672 -0.1287
15919W        W32766   7.188  11.064  11.155 -0.2315  0.1000 -0.0971
15920W        W32767   0.730   6.347   3.456 -0.3466  0.0688 -0.2341
15921W        W32768  12.202   9.040   0.174 -0.0146  0.0494  0.3705
15922W        W32769   9.025  13.050   1.122  0.1457 -0.0255  0.0556
15923W        W32770   4.941   6.835  12.017  0.0867  0.1399  0.2751
15924W        W32771  14.314   0.825  15.384  0.2204 -0.0810  0.2594
15925W        W32772   2.897  17.758  11.825 -0.2976 -0.0744  0.1520
15926W        W32773   4.294  15.031  13.074 -0.0308  0.0226  0.2041
15927W        W32774  14.910  10.453  11.456  0.2327  0.2149 -0.3393
15928W        W32775  15.996   4.626   1.580 -0.0631 -0.2317  0.0850
15929W        W32776   3.912   7.379   3.706 -0.2224 -0.0939 -0.2896
15930W        W32777  10.552  15.959   4.725  0.0997  0.1796  0.0323
15931W        W32778  11.206  11.139  12.174  0.2023 -0.0709  0.0870
15932W        W32779  15.099   2.348  16.256  0.3044 -0.1544 -0.0654
15933W        W32780   1.933   4.447  15.776 -0.0683  0.0520 -0.3612
15934W        W32781  14.862  17.163  12.478  0.3277 -0.2672 -0.0447
15935W        W32782   9.621   8.032  16.488 -0.3019 -0.2537  0.2333
15936W        W32783   1.686  11.393  14.850 -0.2331  0.1469 -0.4048
15937W        W32784  14.146   5.293   2.910 -0.2610 -0.0656  0.1702
15938W        W32785   5.285   0.611  13.034  0.2277 -0.0103  0.0545
15939W        W32786  13.778   9.948   4.807 -0.0964  0.1331  0.0722
15940W        W32787  12.252   6.406   0.569  0.3086 -0.0866 -0.1552
15941W        W32788  13.306   4.865  11.672  0.0645 -0.0016 -0.0880
15942W        W32789   6.687   7.576   0.563 -0.3612  0.0351  0.0102
15943W        W32790   3.961  13.783   2.354 -0.2133  0.1125 -0.1064
15944W        W32791  12.659  12.249   0.446  0.2910  0.2340 -0.0946
15945W        W32792  12.765   2.943   2.235  0.1691  0.0650  0.1027
15946W        W32793   4.513  10.430  14.600 -0.2576  0.3170 -0.1742
15947W        W32794   9.623   7.668  11.562  0.4022 -0.0485 -0.2409
15948W        W32795  16.759   3.822  15.281 -0.2605  0.0895  0.1721
15949W        W32796   1.340  13.517   3.455 -0.1183 -0.1375 -0.0788
15950W        W32797   2.685   5.193   4.350 -0.0832  0.1408 -0.2366
15951W        W32798  18.100   5.224  16.123  0.0266 -0.0652 -0.0320
15952W        W32799   1.428   9.838  14.582 -0.1675 -0.0066  0.1916
15953W        W32800  10.393  12.066  13.238 -0.1087 -0.0649  0.0612
15954W        W32801  17.553   1.988  14.687  0.1119  0.1667 -0.2088
15955W        W32802   4.411   7.380   3.791 -0.2586  0.0801 -0.0466
15956W        W32803  12.668   8.163   4.257  0.2636 -0.0255  0.0718
15957W        W32804  17.863  11.271   0.235 -0.0245 -0.3188 -0.1723
15958W        W32805   2.152   9.806   2.408 -0.2700 -0.0381 -0.1106
15959W        W32806   3.815  12.757   2.448  0.1956  0.2853  0.0272
15960W        W32807  11.415  10.547   2.919  0.0721 -0.1402 -0.2137
15961W        W32808  16.205  14.161   3.094 -0.0567 -0.0104 -0.0760
15962W        W32809  14.695  13.371  15.316 -0.1682  0.2253 -0.1221
15963W        W32810  16.714   9.040   1.091 -0.1426 -0.0317  0.1221
15964W        W32811   9.497   1.480   2.849  0.1388  0.1582 -0.0438
15965W        W32812   5.873   1.331  13.692  0.1139  0.1392 -0.4533
15966W        W32813   3.640   8.762   0.426 -0.0076 -0.0178 -0.2502
15967W        W32814   6.299   2.236  16.316 -0.1957 -0.1877 -0.1467
15968W        W32815  14.304   7.795  15.064 -0.0628  0.2103  0.0494
15969W        W32816  16.441   2.985  13.745 -0.1438  0.3415 -0.0510
15970W        W32817   7.652   5.897  13.613 -0.0586  0.3130 -0.0258
15971W        W32818   5.580   1.484   4.499 -0.2579  0.2706 -0.1438
15972W        W32819  16.748   0.702   0.177 -0.1129  0.0103 -0.0922
15973W        W32820  11.629  14.280  11.921 -0.1078  0.1629 -0.1295
15974W        W32821   9.589  16.750   3.577  0.0022 -0.1694 -0.1232
15975W        W32822   9.222  13.318   2.729  0.3508 -0.2767  0.0036
15976W        W32823  12.223   3.609  15.465  0.0686 -0.1530 -0.1338
15977W        W32824  16.161   9.646   4.489 -0.0452 -0.0392 -0.0789
15978W        W32825   6.189  11.511   5.095 -0.0603  0.0760  0.2628
15979W        W32826  15.355  15.250   3.067  0.2234 -0.1946  0.2373
15980W        W32827   2.828   3.779  15.332 -0.2782 -0.1833  0.0891
15981W        W32828   3.330  15.467   4.088  0.0200  0.2822 -0.1297
15982W        W32829  12.109  12.085   1.540  0.3900  0.0358 -0.0220
15983W        W32830   0.204   0.810  15.683 -0.0289  0.3959  0.0058
15984W        W32831   5.431  10.289  13.421 -0.0857 -0.0602  0.0912
15985W        W32832  17.650   3.516  16.577 -0.1306  0.2277  0.1489
15986W        W32833   9.164  14.898  13.484 -0.1389 -0.1858  0.0295
15987W        W32834   5.962  10.568  15.860 -0.1625 -0.0631 -0.0773
15988W        W32835  15.308   7.136   4.059 -0.0163  0.2916 -0.1084
15989W        W32836  17.591   8.381   2.835 -0.1020 -0.2816  0.0245
15990W        W32837  14.085   3.132   0.909 -0.1397  0.2051 -0.2453
15991W        W32838  13.123  15.181   2.281  0.2692 -0.2280 -0.1010
15992W        W32839  13.007   2.222  16.193 -0.2036  0.2846 -0.0736
15993W        W32840   8.677  16.834   5.337  0.1738 -0.3931  0.0992
15994W        W32841  12.425  13.545   3.288  0.2713  0.0327 -0.1114
15995W        W32842  14.166  11.207   3.678  0.0325  0.1039  0.0839
15996W        W32843  14.392   7.462   5.102 -0.0944  0.1943 -0.1832
15997W        W32844  11.531   2.740  14.559  0.1360  0.0199 -0.1981
15998W        W32845   4.443   2.759   3.994 -0.1583 -0.0574 -0.0205
15999W        W32846  11.797   2.791  13.561  0.0019  0.0807 -0.3639
16000W        W32847  14.603   4.768   3.126  0.0889 -0.3572  0.1641
16001W        W32848  15.359   1.468  13.499  0.0050  0.1384  0.0261
16002W        W32849   3.276   7.067   5.361  0.1338 -0.1481 -0.1716
16003W        W32850  14.313   2.185  12.646  0.0376 -0.2846  0.0281
16004W        W32851   8.818   1.500  13.370  0.0437 -0.0818 -0.1930
16005W        W32852   9.212   3.046   1.225  0.0009 -0.0670  0.1002
16006W        W32853   6.523  13.601   1.804 -0.2160 -0.1354  0.1287
16007W        W32854   5.834  10.122  14.826  0.3361  0.0098 -0.1921
16008W        W32855   0.650  17.694  15.242 -0.0141  0.6413  0.0143
16009W        W32856  13.483  16.512  11.147  0.1401  0.1481  0.0120
16010W        W32857   2.641  18.087  16.486  0.3040  0.1637  0.2341
16011W        W32858   3.805   5.148   1.770  0.1021 -0.1858 -0.0464
16012W        W32859  16.679  14.826   2.878  0.2844 -0.3163  0.0895
16013W        W32860  12.077   4.686   4.655  0.0215 -0.1943  0.0675
16014W        W32861   1.592   3.683  16.313 -0.3276  0.0111 -0.0059
16015W        W32862   6.554   7.787   1.290 -0.0844 -0.2134 -0.1236
16016W        W32863   3.190  15.909  14.860  0.0011  0.1714 -0.2350
16017W        W32864   3.356  17.410  13.414 -0.0249 -0.0023  0.2573
16018W        W32865   7.423   4.923  11.479  0.0374 -0.0347  0.1212
16019W        W32866   5.352  16.551  12.743  0.0427 -0.0240  0.0222
16020W        W32867   0.331  11.900  13.826 -0.0184  0.2027  0.1650
16021W        W32868   1.396  15.971   0.780  0.0745 -0.0783  0.1990
16022W        W32869  14.302   5.877  14.555  0.0761  0.1140  0.1188
16023W        W32870   3.970   5.409   2.153  0.1199 -0.0216  0.2678
16024W        W32871  13.146   4.586   5.899  0.1664  0.2890 -0.1154
16025W        W32872   3.577  17.535   4.340  0.1213 -0.4316  0.0094
16026W        W32873  11.919   7.708   4.572 -0.0773 -0.1381  0.1763
16027W        W32874  17.898  12.980  13.440  0.2320  0.0157 -0.0005
16028W        W32875   2.989  17.068   5.467 -0.3294  0.1095  0.1437
16029W        W32876   7.265   0.556  16.423 -0.0003 -0.0295  0.2693
16030W        W32877   0.432  14.600   3.081 -0.0530  0.1110 -0.3706
16031W        W32878  13.771  12.139   0.367  0.0743  0.2276  0.0407
16032W        W32879  11.827  14.906  12.084 -0.0406 -0.0039  0.1482
16033W        W32880   9.051  12.114  13.594  0.1927  0.2828 -0.0639
16034W        W32881   7.670   1.305  15.162  0.1259 -0.0500  0.1575
16035W        W32882   1.962   5.687   2.789 -0.0991  0.0444 -0.2278
16036W        W32883   9.331  11.772  14.397 -0.0648 -0.0564  0.3054
16037W        W32884   8.422   1.262  15.914  0.0546 -0.0300  0.0639
16038W        W32885  13.890   4.657  15.245 -0.1066 -0.0367 -0.0738
16039W        W32886   5.733  11.168  13.562 -0.3964 -0.1038 -0.3743
16040W        W32887   4.985  10.671   2.465  0.0194 -0.1590 -0.3623
16041W        W32888   3.716  11.201   0.133 -0.2313  0.3728  0.0091
16042W        W32889   5.775   8.099   2.188  0.3797  0.0352 -0.1709
16043W        W32890   7.776   2.967   3.101 -0.0777  0.1103 -0.1230
16044W        W32891   2.909  10.501  16.590  0.1256  0.0150  0.1802
16045W        W32892   1.493   0.261  15.946 -0.0981  0.0832 -0.1666
16046W        W32893  13.181  12.067   2.492 -0.0629  0.0759  0.1097
16047W        W32894   3.698   1.223   4.551  0.0336  0.0059  0.0273
16048W        W32895  14.030   4.816   0.102 -0.0071  0.2774 -0.0743
16049W        W32896   3.658  10.533  16.068 -0.2064  0.1120 -0.1307
16050W        W32897  12.687   2.902   4.997 -0.1647 -0.0185  0.0098
16051W        W32898   9.071  13.667   2.266 -0.0913 -0.2445 -0.0475
16052W        W32899   8.078   5.408   2.109  0.2992 -0.2191 -0.1154
16053W        W32900   9.821  13.879   4.328 -0.2299 -0.2041 -0.0841
16054W        W32901   4.515  15.108  11.813  0.0164  0.1509 -0.2378
16055W        W32902   4.865   8.077  13.894 -0.1271 -0.2493  0.1285
16056W        W32903   5.429   2.699  11.710 -0.1594 -0.2827 -0.1664
16057W        W32904  16.382   5.971   3.436 -0.0277 -0.1072 -0.1912
16058W        W32905  14.611   3.480  16.401  0.3027 -0.0567 -0.2650
16059W        W32906   2.282   1.126   5.231 -0.2420  0.0387 -0.1201
16060W        W32907  11.090  15.616  11.528  0.1454 -0.1238  0.2264
16061W        W32908  13.897  12.906  16.463  0.0706 -0.0561 -0.0211
16062W        W32909   4.939   2.924  16.424 -0.1665  0.0932 -0.2176
16063W        W32910   8.960   9.158  13.103 -0.1742  0.4514 -0.0612
16064W        W32911  11.754  15.215   3.943 -0.0742 -0.0642 -0.1998
16065W        W32912  11.204   8.061   5.602  0.0552 -0.0287 -0.3229
16066W        W32913   6.664  15.333  16.387 -0.1105 -0.0706 -0.2371
16067W        W32914  12.529  15.573   0.290 -0.0274 -0.3066  0.0036
16068W        W32915  11.985   1.925   1.536 -0.0892 -0.2728  0.1685
16069W        W32916  17.693  13.520  12.859 -0.3468 -0.1103 -0.0907
16070W        W32917   5.579   9.044   2.181 -0.1442  0.3064 -0.0984
16071W        W32918   5.463   8.906   4.608 -0.1584  0.0141  0.0706
16072W        W32919   0.357  14.039  16.078 -0.0907 -0.1346  0.1382
16073W        W32920  13.605  11.794   4.677  0.1020  0.0744 -0.1440
16074W        W32921  11.918   5.423   1.461 -0.3647  0.2341  0.1277
16075W        W32922   2.581  13.251   4.460  0.1687 -0.1909 -0.0620
16076W        W32923  17.365   5.749   3.262 -0.0083 -0.2134 -0.2423
16077W        W32924  15.588   1.704  15.740 -0.3071  0.0822  0.1247
16078W        W32925   8.317  11.003  14.734  0.2333  0.1040  0.0847
16079W        W32926   4.258   2.113  14.062 -0.1245  0.2691  0.1830
16080W        W32927  16.053  14.854   4.359  0.1118 -0.0936  0.0745
16081W        W32928  11.482   9.753   2.455  0.0515 -0.1294 -0.1310
16082W        W32929   4.202  14.483   1.814  0.3819 -0.0193 -0.1606
16083W        W32930  14.607  12.845  15.844 -0.2384  0.1287  0.1604
16084W        W32931   3.187  13.544   4.525  0.0307 -0.0327  0.1697
16085W        W32932   2.664   8.556   0.156 -0.3363  0.4612 -0.1131
16086W        W32933  13.250   7.797  14.369 -0.2942  0.2262 -0.0812
16087W        W32934   7.203  11.701  16.130 -0.1173  0.3719  0.2148
16088W        W32935   1.959  11.738   4.081  0.3101 -0.1113 -0.3078
16089W        W32936  12.672   4.089  14.815 -0.2864  0.2562 -0.1820
16090W        W32937  15.397   8.238   0.132  0.0522 -0.0355 -0.1889
16091W        W32938  14.359  11.424   4.073  0.0366 -0.0975 -0.1989
16092W        W32939  16.606   7.714  12.407 -0.2365  0.1246  0.1775
16093W        W32940  12.207   4.589  13.403  0.0637 -0.1054 -0.3583
16094W        W32941   3.552  12.071   0.303  0.0345 -0.3536 -0.1923
16095W        W32942  11.165  17.593   5.436  0.1232 -0.0050 -0.1312
16096W        W32943   2.034  15.402  11.001 -0.0352 -0.2554 -0.2578
16097W        W32944  15.887   6.034  14.130  0.0593  0.0425 -0.0188
16098W        W32945   7.888  12.784   2.619 -0.0836  0.0191  0.0822
16099W        W32946  10.821   6.590  15.770  0.1233  0.1317  0.1636
16100W        W32947  18.026  15.698   2.450 -0.0410 -0.0080  0.1227
16101W        W32948  15.862  11.176   5.832 -0.0872 -0.0614 -0.1176
16102W        W32949   8.429   6.429  14.789 -0.0508 -0.0374 -0.2526
16103W        W32950   8.249   1.462   5.276 -0.0871  0.1068  0.1489
16104W        W32951   3.855   7.123   0.695  0.2956  0.1595 -0.3011
16105W        W32952   6.884  11.843   2.342  0.2765 -0.1376 -0.1546
16106W        W32953   7.995   9.630   1.316 -0.1142  0.1801 -0.0346
16107W        W32954  16.997  17.231   4.677 -0.4391 -0.2946  0.0547
16108W        W32955   9.454  17.037  15.655 -0.1321  0.2234 -0.2650
16109W        W32956  10.128  13.648   3.964 -0.0728 -0.3724 -0.0455
16110W        W32957  11.883   2.056   1.022  0.0923  0.0639  0.0145
16111W        W32958  13.623   5.631   3.946 -0.0451  0.1769  0.1894
16112W        W32959   3.051   3.682  12.505 -0.0146 -0.0174 -0.1212
16113W        W32960   7.785  14.737  11.648 -0.0380  0.0815 -0.0682
16114W        W32961   0.884  11.581   4.841 -0.3104 -0.0065  0.0442
16115W        W32962  15.677  12.132   1.728 -0.1431  0.4106 -0.0720
16116W        W32963   7.099  10.367   1.926  0.3038 -0.0233  0.0551
16117W        W32964   6.023   2.428   0.518 -0.0415  0.0590 -0.0965
16118W        W32965  16.377   5.430   3.349 -0.0228 -0.0271 -0.0317
16119W        W32966   5.246   2.758   4.978  0.1537 -0.1589 -0.1986
16120W        W32967   7.078   5.278   2.515 -0.0924 -0.2005 -0.0622
16121W        W32968   3.740  17.717   5.328 -0.0059 -0.1025 -0.0774
16122W        W32969   4.817   8.664  13.508  0.1600 -0.1694 -0.1921
16123W        W32970   5.291  11.984   3.636  0.0250  0.0120  0.2493
16124W        W32971  12.972   7.413  12.747  0.0769  0.0110  0.0159
16125W        W32972   9.499  16.373  12.249 -0.2089  0.2185  0.4713
16126W        W32973   1.318   0.805   3.195  0.1556 -0.1374 -0.1055
16127W        W32974  12.312  15.433   0.898 -0.3282  0.0104 -0.0342
16128W        W32975  16.838   5.543   1.017  0.0070 -0.1549  0.2703
16129W        W32976  10.338   0.610   3.264  0.1958 -0.0941  0.3089
16130W        W32977   5.673  11.867  14.369  0.0015 -0.2461  0.2819
16131W        W32978   4.670   2.181   0.703 -0.3633 -0.1748  0.2057
16132W        W32979   1.654   3.287   0.027 -0.1365 -0.0814 -0.1943
16133W        W32980  10.547   9.306   3.805 -0.3830 -0.2544  0.2678
16134W        W32981  10.281  14.869  14.932 -0.0050 -0.2291  0.1935
16135W        W32982  16.977  12.009  13.211  0.2843  0.2199  0.0663
16136W        W32983  13.879   8.941   0.397  0.0780  0.1411 -0.4151
16137W        W32984   3.837   2.416   3.944  0.1331  0.4212  0.0775
16138W        W32985  17.856  13.260   0.796  0.0144 -0.0287 -0.0011
16139W        W32986  11.747  14.965  14.514  0.1118  0.2125  0.1967
16140W        W32987   8.584   9.967   2.858  0.0096  0.0548  0.1684
16141W        W32988  14.697  12.951  11.601 -0.1489  0.2175 -0.0867
16142W        W32989  11.001  12.969   0.134  0.2786  0.0263  0.0985
16143W        W32990   0.899   1.036  13.271  0.1509  0.1311 -0.0234
16144W        W32991  12.447  17.171   1.988 -0.1506 -0.0961  0.1072
16145W        W32992  13.515  18.067   5.809 -0.0881 -0.1724 -0.0989
16146W        W32993   3.523  18.174   5.032 -0.1582 -0.0257 -0.1558
16147W        W32994  12.681   1.048   2.604 -0.0426 -0.1020 -0.0657
16148W        W32995   5.368   3.693   0.788  0.0329  0.0119  0.0993
16149W        W32996  14.068   0.460  16.346  0.0036 -0.0672  0.0139
16150W        W32997  10.412  15.531  13.380  0.1728  0.0622  0.2849
16151W        W32998   4.267  13.740  14.801 -0.2162  0.0473 -0.0476
16152W        W32999   0.791  12.348   1.313  0.2302  0.1425 -0.1015
16153W        W33000  11.853   9.369   4.951  0.0248  0.2593 -0.0000
16154W        W33001  15.787   5.019   2.767 -0.1108 -0.1250  0.6018
16155W        W33002   2.907  10.341  11.456  0.2631  0.0794  0.1259
16156W        W33003  10.707   5.521  16.270 -0.2046 -0.1306  0.1032
16157W        W33004   2.570   0.028   5.815 -0.2957 -0.0623 -0.0723
16158W        W33005   8.889  13.456   3.719  0.0626 -0.1037 -0.0353
16159W        W33006   4.636   0.447   1.202  0.0987  0.1033 -0.0326
16160W        W33007  17.477  13.756  14.276 -0.0186  0.2279  0.0829
16161W        W33008  15.600  14.455  14.583  0.4106  0.1071 -0.1769
16162W        W33009   3.688   6.553  12.491  0.1669  0.0811  0.2801
16163W        W33010   3.980   9.088  15.345  0.0388 -0.2128  0.0704
16164W        W33011   2.423  12.645  15.964  0.0378 -0.1621  0.4229
16165W        W33012   3.963  13.063   3.303 -0.0099 -0.0331  0.1902
16166W        W33013   4.122   6.583   5.281 -0.4464  0.0665 -0.1771
16167W        W33014   7.524  16.902   3.121 -0.1265 -0.1040 -0.1392
16168W        W33015  13.781  11.237  12.942 -0.1195  0.1155  0.0215
16169W        W33016   2.536   0.573  14.123 -0.1132 -0.0050 -0.2987
16170W        W33017   4.452  14.414   3.272 -0.0296  0.1844 -0.0749
16171W        W33018   1.520  17.347   2.148  0.1352  0.1885  0.2824
16172W        W33019   0.244   9.211  16.084 -0.0147 -0.0832  0.2870
16173W        W33020   4.260  16.273   4.665  0.1952  0.0105 -0.0615
16174W        W33021   5.285  16.053  12.784 -0.4272  0.3840 -0.0902
16175W        W33022   5.731   7.266   2.790 -0.1120  0.0004 -0.0228
16176W        W33023   3.675   9.048  11.647 -0.0363  0.2529 -0.1395
16177W        W33024  16.059  12.661   5.361  0.2163 -0.0979  0.2367
16178W        W33025   7.395  17.204   2.589 -0.0735 -0.1488 -0.2182
16179W        W33026   4.145  12.233   5.920 -0.0644  0.1666  0.1683
16180W        W33027  10.797   8.601  12.817  0.1376 -0.0437  0.0867
16181W        W33028  11.847   0.969   5.557  0.0260 -0.1472 -0.2548
16182W        W33029   6.571   1.195  11.742  0.0656 -0.1905  0.0673
16183W        W33030   4.836   7.535   6.109 -0.0237 -0.1058 -0.1992
16184W        W33031   4.376   3.471   2.087 -0.3739 -0.3099  0.3736
16185W        W33032   5.922   9.057  12.711  0.1488  0.0523 -0.4921
16186W        W33033  10.281  16.641  13.642  0.0878 -0.1517 -0.0454
16187W        W33034   7.661   8.889  13.312 -0.1069  0.2692  0.0005
16188W        W33035   0.403   2.462  11.876  0.1630 -0.0318  0.0664
16189W        W33036  10.945   2.974  15.030 -0.0228  0.3932 -0.0390
16190W        W33037   1.715   3.536   4.493 -0.0878  0.1896 -0.1348
16191W        W33038   6.720   6.058  13.820 -0.0234 -0.1409 -0.2159
16192W        W33039  11.665  13.454  12.417 -0.2930  0.2069 -0.1597
16193W        W33040   5.613   7.314   0.734 -0.0910 -0.0829 -0.0648
16194W        W33041  18.012  14.322   5.151  0.0151 -0.3370  0.1799
16195W        W33042   2.707   7.819  15.121  0.0999  0.1934 -0.0453
16196W        W33043   0.643  16.359  14.795 -0.0874  0.1856 -0.1072
16197W        W33044  13.398   2.198   1.375  0.2551  0.0627  0.0810
16198W        W33045  10.157   5.086   4.191 -0.2365  0.0895  0.4132
16199W        W33046   5.012   9.214   0.731  0.0627 -0.0274  0.0928
16200W        W33047  15.539  12.283  11.685  0.1809  0.2226 -0.2836
16201W        W33048  12.094   8.580  14.113  0.1212  0.0822 -0.1394
16202W        W33049   4.746  15.299  15.505  0.3312 -0.0200  0.0157
16203W        W33050   1.697   8.669  15.732 -0.0454  0.1003  0.0750
16204W        W33051   9.520  14.298  14.558 -0.2200 -0.0458  0.0050
16205W        W33052   5.585   5.538  14.572  0.1435  0.0684 -0.2345
16206W        W33053   3.128  14.733   5.377 -0.0450  0.0078 -0.0223
16207W        W33054   5.658   3.329  13.895  0.2121 -0.0744  0.0341
16208W        W33055   3.520   6.177  16.438 -0.2643  0.0493 -0.0460
16209W        W33056  16.477   6.741   0.491 -0.1540  0.0749  0.2817
16210W        W33057   4.099   0.735   3.998 -0.0596 -0.0905  0.0295
16211W        W33058  11.504  17.110   0.815 -0.0563  0.0151 -0.1845
16212W        W33059   3.431  14.253  16.447  0.1457 -0.0836  0.2985
16213W        W33060   6.220   5.071   3.186  0.0357 -0.1744 -0.2616
16214W        W33061   2.251  10.763  13.717 -0.1277 -0.2338 -0.2363
16215W        W33062  15.785  17.532  12.682  0.2000  0.2119  0.2606
16216W        W33063  10.227   9.637  11.443 -0.2679 -0.0192 -0.1769
16217W        W33064  16.799  16.313  14.621 -0.0961  0.0324  0.1009
16218W        W33065   9.475   6.114  13.930 -0.1818  0.2773  0.0353
16219W        W33066   5.679   8.377   5.163 -0.1390 -0.0557 -0.1327
16220W        W33067  13.915  12.290   4.057 -0.2009 -0.0984  0.3150
16221W        W33068   3.485   5.465   2.320  0.0679  0.2838 -0.2553
16222W        W33069   5.400  11.309   0.166  0.1461  0.4690  0.1387
16223W        W33070  12.478   0.243   2.904  0.1086 -0.0366  0.0059
16224W        W33071  14.931  10.476  12.379  0.1600  0.0932  0.0860
16225W        W33072   8.733  10.043  16.383 -0.2393  0.1251 -0.0389
16226W        W33073  14.908  10.799  16.168  0.3288  0.2411  0.0902
16227W        W33074   9.765   2.184  11.824  0.2485 -0.2045 -0.6313
16228W        W33075  11.529   3.144  16.270  0.1782 -0.0374 -0.3357
16229W        W33076  12.462  14.617   2.039  0.1115  0.1062  0.2428
16230W        W33077   8.121   8.399   1.288 -0.0130  0.0706 -0.0514
16231W        W33078   6.188   7.168  11.259  0.2159 -0.1657  0.1688
16232W        W33079  15.042  12.522   5.121  0.2809  0.0967 -0.0131
16233W        W33080   1.934   9.004   1.912 -0.0617  0.2702 -0.0856
16234W        W33081   1.703  12.577   1.520 -0.1562  0.0472 -0.1071
16235W        W33082   8.387   5.751   2.412 -0.0765 -0.0025 -0.0403
16236W        W33083  14.885  16.665  11.617 -0.0813 -0.1042  0.0200
16237W        W33084   7.792  11.792   0.846  0.2246 -0.1963 -0.2043
16238W        W33085   2.100   4.412   5.533 -0.0146  0.1898  0.0428
16239W        W33086  12.494   6.979  12.760  0.0597 -0.1845  0.0989
16240W        W33087   9.543   9.457   5.184  0.1638  0.1478  0.1735
16241W        W33088   6.051   0.912   3.124 -0.1794  0.0229 -0.1613
16242W        W33089   0.167  11.333  14.210 -0.2865  0.2824  0.2053
16243W        W33090  13.035   2.062  13.014 -0.0496  0.4057  0.1194
16244W        W33091   5.338   9.850   2.918  0.0988  0.1596  0.1621
16245W        W33092  12.079   9.724   3.599  0.3602 -0.0247 -0.0510
16246W        W33093  11.174  12.131   2.026 -0.0194 -0.1630  0.2706
16247W        W33094  13.240   8.893   4.694  0.2633  0.1361  0.4342
16248W        W33095  12.636   0.917   2.107 -0.0109  0.3951  0.2094
16249W        W33096  13.421   2.241  12.752 -0.0674 -0.2616  0.0613
16250W        W33097   7.451   4.302   3.477 -0.0178  0.2738 -0.0113
16251W        W33098   8.434   2.323  12.838  0.1266  0.1109  0.2304
16252W        W33099  15.523   9.642   3.426  0.0028 -0.1057 -0.0641
16253W        W33100   2.442   0.994   1.398 -0.0476 -0.0327 -0.1738
16254W        W33101   0.748  12.365   4.796  0.0532  0.2714  0.1503
16255W        W33102  16.053   5.186   0.511 -0.0143 -0.1833  0.0260
16256W        W33103  15.285  15.382  11.308  0.2116  0.0383 -0.4113
16257W        W33104   0.785   6.761  13.362  0.1699 -0.3199  0.0770
16258W        W33105  16.610   2.138  16.580 -0.0171  0.0568  0.0569
16259W        W33106  10.152  17.528   4.696 -0.1820  0.2726  0.1798
16260W        W33107   0.687   6.870  11.716 -0.2133  0.2598  0.2146
16261W        W33108   4.614   9.204   4.596 -0.2157  0.2459  0.1164
16262W        W33109   6.935  15.215  12.236 -0.0441 -0.2130 -0.0079
16263W        W33110  11.131   3.794   0.421 -0.1595 -0.3775  0.1366
16264W        W33111  13.140  12.428  12.425  0.0006  0.1431  0.0887
16265W        W33112  11.589   2.632   4.861 -0.0931  0.0703 -0.1661
16266W        W33113  15.953  16.902  11.559 -0.2526  0.1198 -0.0739
16267W        W33114  10.925   2.823   3.314 -0.1931 -0.2276  0.2612
16268W        W33115   2.241  16.305   0.306 -0.0152 -0.2536  0.1021
16269W        W33116  16.344   8.353   4.654  0.0272  0.2375  0.0503
16270W        W33117  15.178  15.116  11.817  0.1093 -0.1147  0.0948
16271W        W33118  12.704  12.477  14.919  0.0796  0.0293  0.0389
16272W        W33119   1.404   2.208   1.533  0.1953  0.1135  0.2159
16273W        W33120  12.340  11.994   4.919 -0.0794  0.1853  0.1643
16274W        W33121   3.886  15.387  13.085 -0.1071 -0.1258  0.0141
16275W        W33122  11.885  11.897   4.975 -0.1052  0.1321 -0.1465
16276W        W33123  12.685   9.843   5.126 -0.2656  0.1068 -0.3047
16277W        W33124  13.721   3.204  12.573 -0.0120  0.0204 -0.0148
16278W        W33125  13.500  12.826  16.097 -0.2600  0.2429 -0.2624
16279W        W33126   7.921  17.390   1.372 -0.2051  0.3012  0.2223
16280W        W33127  13.889   5.586  14.661  0.0185  0.0617 -0.2296
16281W        W33128   6.626  12.134  12.319  0.3484 -0.1859  0.2793
16282W        W33129  13.185  15.633   2.075 -0.0126  0.0857  0.1298
16283W        W33130  15.124   7.041   4.653  0.3696  0.4632 -0.0633
16284W        W33131   4.612  11.302  14.010 -0.1796  0.0276 -0.0484
16285W        W33132   8.712   7.743  14.627 -0.2330  0.1977  0.4127
16286W        W33133   6.062  16.849   0.357 -0.1034  0.0752 -0.2558
16287W        W33134   2.106   2.105   1.434 -0.0476  0.1271 -0.0394
16288W        W33135  16.847   1.706  15.328 -0.2382  0.1644  0.0498
16289W        W33136  16.779   7.423   5.056 -0.0598  0.0019 -0.1211
16290W        W33137   6.947   4.706  13.073 -0.1942 -0.1308  0.0745
16291W        W33138   1.797   3.925   4.071 -0.1689  0.1562 -0.0473
16292W        W33139  10.942  11.385  11.787  0.2497 -0.2819 -0.1868
16293W        W33140  14.653  12.725  12.567  0.1884 -0.1996 -0.2595
16294W        W33141   8.784  14.005   5.761 -0.0768 -0.0417 -0.1472
16295W        W33142   3.723   3.284   4.277 -0.0180  0.2867 -0.2684
16296W        W33143   0.640   6.669  12.524 -0.1079  0.1383 -0.1756
16297W        W33144   2.853   2.931   4.657 -0.0649 -0.1498 -0.0354
16298W        W33145   7.245  15.816  14.123  0.1245  0.2627  0.2334
16299W        W33146  11.527   0.356  14.187 -0.0245 -0.0937 -0.2301
16300W        W33147  10.201   0.772  13.522 -0.0418 -0.2636  0.1026
16301W        W33148  15.857   8.209  15.854  0.1190 -0.1031  0.0412
16302W        W33149  12.432  12.389  16.590  0.2296 -0.0708  0.1362
16303W        W33150  16.340  14.917   5.287  0.1302  0.2574 -0.2090
16304W        W33151  13.455  16.485   5.060  0.2139  0.2267  0.0083
16305W        W33152  18.130   6.460   3.289 -0.0924 -0.3423  0.1655
16306W        W33153   9.636  15.137  16.258 -0.0793 -0.1031  0.0431
16307W        W33154   2.265  14.282   1.395 -0.1197 -0.0647 -0.3627
16308W        W33155   6.632   3.099  11.423  0.0363 -0.1762 -0.1694
16309W        W33156   7.771  17.043   4.292  0.0999 -0.0469  0.1195
16310W        W33157   8.639   4.149   4.719 -0.2084  0.2136 -0.1358
16311W        W33158  15.746   3.113  15.420  0.1919  0.0470  0.5107
16312W        W33159  11.322   5.641  11.233 -0.0558 -0.1339  0.0834
16313W        W33160   8.739  14.915   2.178  0.2615  0.0780  0.0777
16314W        W33161   3.227   8.524  13.344 -0.0616  0.1393  0.0955
16315W        W33162  11.830   4.505   3.645  0.2055 -0.1586  0.1531
16316W        W33163   5.888  18.072  12.430  0.5631  0.0558  0.2799
16317W        W33164  15.182  14.799   1.114  0.1348 -0.3369  0.1691
16318W        W33165   8.233   0.170  12.195  0.1098 -0.1441  0.0931
16319W        W33166   5.452  14.135   0.436 -0.2258  0.2686 -0.3047
16320W        W33167   8.362  10.894   3.806 -0.1873 -0.0609 -0.0759
16321W        W33168  16.153   7.897   4.621  0.0256  0.1678  0.0553
16322W        W33169  13.078   0.361   4.394 -0.3798 -0.0706  0.5143
16323W        W33170  15.250  10.311   2.249 -0.0961 -0.0720  0.3641
16324W        W33171   8.957  12.419  16.405 -0.0440  0.0625  0.0597
16325W        W33172   0.043  13.050   0.544 -0.2412  0.2280 -0.1336
16326W        W33173  16.102   0.682   3.444  0.1292  0.2078 -0.1839
16327W        W33174   3.318   3.060  13.862 -0.2026  0.0036 -0.0943
16328W        W33175   6.435   6.352   1.241  0.0481  0.0241 -0.0451
16329W        W33176   5.984   7.121  14.310 -0.0961 -0.1518  0.1414
16330W        W33177  15.694   8.964   1.316 -0.0056 -0.2249  0.2441
16331W        W33178   9.007   0.155  10.598 -0.2881 -0.0859  0.2392
16332W        W33179  12.463   1.385  13.217 -0.0872  0.1157 -0.0732
16333W        W33180  13.193  10.690  12.489  0.2804  0.0082 -0.2631
16334W        W33181  11.729  13.442   1.529  0.0303  0.3274 -0.0627
16335W        W33182   6.095  12.944  16.511 -0.2807  0.3764  0.0687
16336W        W33183   3.333  16.656  16.401  0.0301 -0.0611  0.0776
16337W        W33184   9.210  12.591   4.414  0.2878  0.4016 -0.2083
16338W        W33185   6.522  17.860   4.961  0.1328  0.1755  0.1610
16339W        W33186   1.318  13.666   3.960  0.0179 -0.0423 -0.1414
16340W        W33187   1.805  17.009   0.441 -0.1546  0.3751 -0.1761
16341W        W33188   2.519   9.262  12.963  0.1789  0.1174  0.2719
16342W        W33189  17.987  15.353   5.300 -0.0264  0.0413  0.0265
16343W        W33190   3.504  15.247  12.763  0.2527 -0.1654 -0.2367
16344W        W33191  11.517   5.373  12.660 -0.0715  0.2128  0.0768
16345W        W33192   3.177  16.142   1.839 -0.1475  0.2113  0.0617
16346W        W33193   5.639  16.706  13.138  0.0617  0.2357  0.0874
16347W        W33194  10.639   6.762   3.519  0.0634 -0.0828 -0.0228
16348W        W33195   5.275   7.862   3.617  0.0427  0.1422 -0.1641
16349W        W33196  16.320  13.522   3.481 -0.2236  0.1438  0.0564
16350W        W33197   7.804   2.076   0.715 -0.0199  0.1840 -0.1046
16351W        W33198   6.056   0.999  12.871  0.0639 -0.3076 -0.2305
16352W        W33199   9.777  17.076   5.465  0.1218 -0.1020 -0.0769
16353W        W33200   6.665  11.135   0.048  0.0005 -0.1281 -0.0370
16354W        W33201   9.430  11.984   1.717  0.1525 -0.3831 -0.1664
16355W        W33202   8.963   6.923  12.153  0.3037  0.1473 -0.0690
16356W        W33203  16.263   9.739  16.488  0.4991 -0.0045  0.0123
16357W        W33204   2.346   9.933  13.452 -0.0656 -0.0981 -0.1191
16358W        W33205   6.561  15.552  15.850  0.1695  0.0617  0.0768
16359W        W33206  15.623  11.054   2.336  0.1988 -0.0446  0.0663
16360W        W33207  11.639  17.518  13.119 -0.0433  0.3459 -0.1507
16361W        W33208   6.560  11.492   1.461  0.0332 -0.2038  0.0161
16362W        W33209   8.295  17.924   5.285  0.0578  0.0483 -0.1159
16363W        W33210   6.231  13.082  14.096 -0.4122  0.2078 -0.2579
16364W        W33211   9.252   4.587  15.480  0.0077  0.3500 -0.0266
16365W        W33212   6.421   2.427   0.181 -0.0525 -0.2204  0.0450
16366W        W33213   9.601   4.820   4.579  0.1215 -0.0172  0.1623
16367W        W33214  10.033   3.961  11.716  0.3411 -0.0718 -0.1788
16368W        W33215  11.705   1.752  13.645  0.2914 -0.3616 -0.0286
16369W        W33216   8.956   2.530  11.809 -0.1510 -0.2094 -0.1436
16370W        W33217   4.627   1.361  16.390 -0.2787  0.2006 -0.0906
16371W        W33218  10.111  16.976   3.667 -0.2580 -0.1992  0.1748
16372W        W33219  15.150   2.400   3.847 -0.1984 -0.0275 -0.0428
16373W        W33220  18.110   7.878   4.400 -0.2024  0.3651 -0.3104
16374W        W33221   4.872  16.611   0.383  0.1047 -0.0131 -0.1659
16375W        W33222   0.285  10.600   5.575  0.1472  0.0208  0.2552
16376W        W33223  13.715  10.193   5.375  0.0099  0.2713 -0.1534
16377W        W33224   2.752  12.788  16.476  0.1891  0.1387  0.1389
16378W        W33225  15.387   0.342   5.602 -0.1161  0.0595 -0.1027
16379W        W33226  10.278   0.954   0.464  0.1731  0.2828  0.2994
16380W        W33227   8.085  13.447  12.965  0.0876  0.1840 -0.1870
16381W        W33228   0.079   3.829   2.754  0.1617  0.0750 -0.2172
16382W        W33229   4.072   1.538   2.243 -0.1587 -0.0807  0.0915
16383W        W33230  12.826   0.034   5.393 -0.3588 -0.0803  0.0989
16384W        W33231   3.014   5.401   0.284  0.0405 -0.0707 -0.1082
16385W        W33232   2.465   4.104   3.800  0.0398 -0.1613  0.1118
16386W        W33233  10.336   3.244  10.265 -0.0524 -0.1232  0.1012
16387W        W33234  16.545   1.161   0.158 -0.0420  0.1088  0.0614
16388W        W33235   1.563  15.227  14.653  0.0526  0.0929  0.1140
16389W        W33236   1.143   0.905  13.720  0.0500 -0.0586 -0.0608
16390W        W33237  10.870  14.390   5.335  0.0831 -0.1545  0.0956
16391W        W33238   8.831   4.955  14.784 -0.1759  0.1302 -0.3458
16392W        W33239   0.916   8.133   1.830  0.1669  0.1332  0.1637
16393W        W33240   5.150   6.086   5.218 -0.1985  0.3530 -0.1349
16394W        W33241  11.158   1.995  12.393  0.1338 -0.1343  0.0798
16395W        W33242   7.715   0.348  15.679  0.0160  0.2063  0.3156
16396W        W33243   9.003  16.608  16.348  0.0930 -0.1563  0.1406
16397W        W33244   2.542   3.518  12.979  0.0300  0.2254  0.3147
16398W        W33245   1.543   4.335  13.395 -0.1716 -0.1500 -0.0643
16399W        W33246  11.402   7.806  14.567  0.0714 -0.1134 -0.0364
16400W        W33247  12.309   7.294  15.490  0.0823 -0.2132 -0.0595
16401W        W33248   5.428  13.753   6.169 -0.3122  0.0569  0.2986
16402W        W33249   6.708   6.412  14.173  0.0514  0.1439  0.0635
16403W        W33250   5.393   7.401   3.821 -0.2450  0.2131  0.1289
16404W        W33251  16.041  17.065  15.499 -0.3542 -0.0363 -0.1086
16405W        W33252  16.486   8.792  15.463  0.1385 -0.0293  0.1863
16406W        W33253  11.699  13.147   0.726  0.1879  0.2926 -0.0146
16407W        W33254   1.567   3.433   1.208 -0.1392 -0.1306 -0.3289
16408W        W33255  17.487   9.393  11.649  0.1121  0.1754  0.2329
16409W        W33256  15.747  17.618  15.207 -0.3056 -0.1911 -0.0570
16410W        W33257  10.820   4.316   0.560  0.1727 -0.2804  0.0187
16411W        W33258   2.804  14.390  11.807 -0.3819 -0.0710 -0.0231
16412W        W33259   4.451  13.179   0.611  0.0253  0.2146  0.0251
16413W        W33260  16.004  16.811  12.063 -0.2934 -0.5703  0.0586
16414W        W33261  12.218   9.569   0.052  0.1241 -0.1563 -0.0780
16415W        W33262   7.612  10.335  16.318  0.2126 -0.3922 -0.2870
16416W        W33263   2.994   5.799  12.038 -0.1704  0.0830 -0.0518
16417W        W33264   6.686  16.491   2.559 -0.2147  0.2102 -0.0463
16418W        W33265  16.648   9.743   4.625 -0.0904 -0.2962  0.2212
16419W        W33266  14.945   0.847  14.198  0.0146 -0.0171 -0.1102
16420W        W33267  15.414  16.936  14.228  0.0826  0.1213  0.1531
16421W        W33268   4.998   9.754   2.145  0.0296  0.0470  0.1445
16422W        W33269   9.618  15.535  15.800 -0.1353 -0.0512  0.0126
16423W        W33270  17.396   5.678   4.653 -0.0057 -0.0947 -0.0328
16424W        W33271   3.655   3.979   1.358 -0.3732 -0.0057 -0.1086
16425W        W33272   5.880  12.528   1.570  0.0452  0.1105 -0.3508
16426W        W33273   4.446   6.967  14.156 -0.1633  0.1710 -0.2722
16427W        W33274   8.810  16.410  11.754  0.0347  0.0122 -0.1948
16428W        W33275   1.528  11.383   0.929 -0.0061  0.0108 -0.1027
16429W        W33276  14.205   2.591   2.141 -0.1718  0.0163  0.1099
16430W        W33277   1.617   6.136   4.860  0.1615  0.0026  0.1349
16431W        W33278   7.257  17.434  15.920  0.0383 -0.2111 -0.0459
16432W        W33279  16.285  14.062   4.385  0.1558 -0.0124 -0.1624
16433W        W33280  11.176  12.847  15.212 -0.0518  0.1448 -0.1290
16434W        W33281   1.303  12.266   5.164 -0.1931 -0.2109 -0.2240
16435W        W33282  11.251   0.520  14.532 -0.0356  0.2576 -0.3716
16436W        W33283   7.438   4.675   0.137  0.1873  0.1331  0.2516
16437W        W33284  10.684   2.609   0.413 -0.1122  0.1274  0.2935
16438W        W33285  16.141   9.992   5.368 -0.2767 -0.1784 -0.1976
16439W        W33286  10.018  14.854  13.109  0.2315 -0.0176  0.0001
16440W        W33287  15.595   2.820  11.529  0.1232 -0.1179  0.1547
16441W        W33288   0.507   9.267  14.282 -0.0734 -0.0332  0.2014
16442W        W33289   9.114   5.084  11.882  0.0944 -0.2829  0.0679
16443W        W33290  17.082  15.951  13.302  0.3750  0.1952  0.3749
16444W        W33291  14.223   4.620  11.655 -0.2237  0.1661 -0.1005
16445W        W33292   8.776  10.222  15.475 -0.0437 -0.2225  0.0171
16446W        W33293   0.428  15.210   1.117 -0.1127 -0.0221 -0.0037
16447W        W33294   8.688   1.313  14.880 -0.1384  0.0306 -0.0387
16448W        W33295  12.236  13.102   3.627 -0.1002 -0.1863 -0.0859
16449W        W33296  16.740  17.902  14.331 -0.0405  0.0315  0.0401
16450W        W33297   1.319   2.391  13.331  0.0399  0.1484 -0.0485
16451W        W33298   7.594  16.975  12.301 -0.3803  0.1969  0.2959
16452W        W33299  11.116  13.173   3.514 -0.1699 -0.1130  0.3784
16453W        W33300  13.815   6.714  14.775 -0.3686  0.1454 -0.0806
16454W        W33301   3.321   3.955   3.704  0.0767  0.1250 -0.0246
16455W        W33302   8.960   3.414   4.188 -0.0333  0.2581 -0.0395
16456W        W33303  12.477  14.473  12.815 -0.0020 -0.1743  0.1706
16457W        W33304   7.666  10.908  12.957  0.1386 -0.0122 -0.1013
16458W        W33305  11.657  15.687  12.720  0.0018 -0.1694  0.1155
16459W        W33306  16.728   7.449  13.958 -0.2431 -0.1484  0.2401
16460W        W33307  12.456  17.419   5.604 -0.0084 -0.1014 -0.1413
16461W        W33308  15.288  16.809  12.539  0.4628  0.0535 -0.1695
16462W        W33309   9.685   8.383   4.356 -0.1157  0.2477  0.1635
16463W        W33310  12.831  13.816   3.305  0.2065  0.0897  0.0761
16464W        W33311  12.050  15.787   0.194  0.2469 -0.2838 -0.1294
16465W        W33312  14.167  15.059   1.202 -0.1013  0.2274  0.3816
16466W        W33313   9.408   9.541  14.888  0.0711  0.1038  0.0051
16467W        W33314  15.775  15.720   2.383  0.1942  0.0795  0.1765
16468W        W33315  10.097   8.778   5.511 -0.0637  0.2100 -0.0200
16469W        W33316  15.394   6.373   0.151  0.1312  0.1474  0.0327
16470W        W33317  10.779   1.342   3.843 -0.2176  0.1413  0.4220
16471W        W33318  16.392   6.750   4.283 -0.1167 -0.1400 -0.2352
16472W        W33319   6.764   5.307  14.410  0.2264  0.3418  0.1795
16473W        W33320  17.132  16.141   3.479 -0.1162  0.0654  0.0166
16474W        W33321  11.089  10.245  15.091  0.0210 -0.2108 -0.1111
16475W        W33322   0.427  14.630  12.451 -0.0660 -0.1222  0.3677
16476W        W33323   4.020   4.536   4.917  0.2437 -0.1434 -0.0712
16477W        W33324   3.276   8.382  12.495 -0.2018 -0.0799 -0.1731
16478W        W33325   7.298   6.941  15.527 -0.1786  0.0136 -0.1875
16479W        W33326   1.137   3.606  11.387  0.0524  0.4164  0.1493
16480W        W33327   4.616  11.910  15.608 -0.0872  0.0262  0.1294
16481W        W33328  10.638   3.101   0.604  0.2025 -0.0852  0.0565
16482W        W33329   8.610   1.070   2.904 -0.0361 -0.1198  0.2541
16483W        W33330   1.478  14.947  15.136  0.0175  0.3856 -0.3409
16484W        W33331   5.583   1.397  14.063 -0.0854  0.0576 -0.2038
16485W        W33332   7.539   9.678  11.962  0.0109 -0.2814 -0.2062
16486W        W33333  16.738  14.926  12.960 -0.0336 -0.1034 -0.2544
16487W        W33334   4.575  13.029  14.221  0.0549 -0.3278 -0.0157
16488W        W33335  18.077   5.798   1.137  0.3728 -0.3995  0.0923
16489W        W33336   7.668  14.964   2.257  0.1496  0.2530 -0.0902
16490W        W33337   2.571   8.171  16.430  0.1741  0.3104  0.0729
16491W        W33338  14.237  17.061  13.339 -0.1046  0.0153  0.0826
16492W        W33339   4.691   5.783  16.403 -0.0376 -0.0316 -0.2189
16493W        W33340   5.238   1.108  14.305 -0.0188  0.2618  0.1566
16494W        W33341   0.337   0.446   0.689 -0.0269 -0.1448 -0.0297
16495W        W33342  11.359   3.759   1.327  0.3749 -0.2726 -0.0947
16496W        W33343   9.151   2.255   3.806  0.0903 -0.2480  0.0109
16497W        W33344   0.373   5.994  13.571  0.0155  0.0909 -0.3129
16498W        W33345  11.952   6.639  10.151  0.0668 -0.1406  0.0636
16499W        W33346  11.310   1.914   3.705  0.0861 -0.2086 -0.0681
16500W        W33347  15.952  13.519  12.224  0.1957 -0.1529  0.0333
16501W        W33348  13.977   4.803   2.904  0.1230  0.4052 -0.4466
16502W        W33349  14.558  17.038  14.770  0.0738  0.1026  0.1429
16503W        W33350  14.982  14.086   5.496 -0.0044 -0.0639 -0.1645
16504W        W33351   0.432  12.190   3.734  0.1780 -0.0334  0.0059
16505W        W33352  11.503  16.327   5.806 -0.1075 -0.0824 -0.0709
16506W        W33353  11.402   6.596   2.141  0.1584  0.1263 -0.2293
16507W        W33354  11.617   0.022   4.547  0.0819 -0.2375 -0.0244
16508W        W33355   2.889   2.585   0.467 -0.2792 -0.0114 -0.0130
16509W        W33356   0.387   2.911   3.735  0.3316  0.0838  0.3334
16510W        W33357   6.352   0.520  13.593 -0.0142 -0.0239 -0.0218
16511W        W33358  12.415   4.012  15.229  0.4609 -0.1443 -0.0227
16512W        W33359  10.464   5.177  16.549  0.0400  0.0814  0.0669
16513W        W33360  13.494   7.167   2.919 -0.1550 -0.0506 -0.0424
16514W        W33361   0.736  14.319   0.203 -0.0560 -0.2240  0.2478
16515W        W33362   2.442   1.924   0.141  0.1634  0.1370  0.1085
16516W        W33363   5.316   1.047  12.244  0.1450 -0.0461  0.2868
16517W        W33364   3.951   7.182   6.047  0.1650  0.1831  0.1294
16518W        W33365  15.337   0.063   2.280  0.0588 -0.0837 -0.0967
16519W        W33366   9.540  13.143  12.980 -0.2800 -0.1502  0.0055
16520W        W33367  12.591  15.688   1.843 -0.1579  0.0088 -0.1283
16521W        W33368   8.752  13.041   2.782  0.0006  0.6327 -0.2156
16522W        W33369  17.469   7.471   3.002 -0.3500 -0.1097 -0.5273
16523W        W33370  15.166   0.528   3.284 -0.1665  0.0302 -0.0241
16524W        W33371  11.475  17.962  14.096  0.2513 -0.0226  0.1538
16525W        W33372  10.646  13.712   4.192 -0.0436  0.2151  0.1008
16526W        W33373  10.244  11.978  12.651 -0.1786 -0.1886  0.1557
16527W        W33374  15.228   3.743  13.494  0.0383 -0.2395  0.0648
16528W        W33375   4.952  17.878  14.178 -0.3057  0.0403  0.2249
16529W        W33376   5.172  14.496   1.730  0.1141 -0.1816  0.1743
16530W        W33377   4.459   2.193   5.531  0.1319  0.0039 -0.2049
16531W        W33378  13.485  17.247   4.215 -0.0526  0.1625 -0.1807
16532W        W33379   5.109   1.659   4.336  0.0291 -0.1197  0.0720
16533W        W33380   6.418  14.117   2.076 -0.0079 -0.0400 -0.1597
16534W        W33381   6.222  15.941  12.125 -0.1930  0.1524 -0.0111
16535W        W33382   8.213   6.909   3.003 -0.3810 -0.0848 -0.0836
16536W        W33383  12.541   5.352   5.913  0.2112 -0.0063  0.0389
16537W        W33384  17.632  17.187  15.216 -0.2249  0.1029  0.0700
16538W        W33385  10.509   2.798   2.930 -0.0786 -0.2905 -0.0130
16539W        W33386  12.947  13.278  12.784 -0.0143  0.0083  0.3064
16540W        W33387  16.705  12.308   4.024  0.2431  0.0434  0.2659
16541W        W33388   8.486   9.672   5.891 -0.1883 -0.1677 -0.2861
16542W        W33389   7.312   7.456   1.081 -0.1500  0.3560 -0.2365
16543W        W33390  11.816   5.304   2.199  0.0463  0.0063  0.1484
16544W        W33391  14.693   2.170   0.998  0.0806  0.0440 -0.3273
16545W        W33392   6.200  17.354   4.125  0.2288  0.0348  0.3511
16546W        W33393  14.283   1.305  12.251 -0.0884  0.0904 -0.3994
16547W        W33394   3.003   5.720  12.999  0.1280 -0.1203 -0.2385
16548W        W33395   4.192   3.723   4.431 -0.2336  0.1541 -0.1914
16549W        W33396   7.712  17.426  14.171  0.0702  0.1906  0.0134
16550W        W33397  13.682  17.616   2.116  0.1765 -0.2609 -0.3380
16551W        W33398  13.992  17.524  13.229  0.4764  0.0643  0.0404
16552W        W33399   0.749  14.243   3.091  0.2970 -0.1995 -0.0076
16553W        W33400   5.772   3.553  15.012  0.0238 -0.0899  0.4407
16554W        W33401  16.368   0.077   5.482 -0.0001  0.0337  0.2389
16555W        W33402  13.505   2.658   1.622  0.0402 -0.0302 -0.3646
16556W        W33403  16.399  14.300  15.213 -0.1396  0.0966  0.2494
16557W        W33404  16.329   8.144   0.379 -0.1554  0.1208  0.2408
16558W        W33405   0.194   6.019  11.370 -0.0091  0.1122  0.3761
16559W        W33406  13.720  15.786   3.458 -0.0620  0.0714  0.2588
16560W        W33407   9.840   0.653   5.329  0.0776 -0.0699  0.2657
16561W        W33408   9.704  10.467  16.086  0.1391 -0.2543 -0.0489
16562W        W33409  14.479  10.728  16.416 -0.1408 -0.1334 -0.0052
16563W        W33410  16.871  13.554  15.528 -0.1039  0.1241  0.4129
16564W        W33411   1.340  17.762  14.638  0.4090  0.3639  0.2035
16565W        W33412   0.413   6.495   2.162  0.0262  0.4138  0.2951
16566W        W33413   4.951   8.778   3.320 -0.1344 -0.1205 -0.2241
16567W        W33414  10.765  10.049   2.436  0.1943  0.0082 -0.2237
16568W        W33415  16.816  11.323   1.795 -0.1865 -0.3149 -0.0414
16569W        W33416  14.483  15.737  11.683 -0.0286 -0.2527 -0.2283
16570W        W33417   9.408   4.612   1.533  0.1400 -0.0387  0.1534
16571W        W33418  17.973   8.340   3.101  0.1264  0.1052  0.2157
16572W        W33419   1.801   1.721  14.870 -0.3533 -0.2691 -0.2170
16573W        W33420  15.268  14.802   2.851  0.0790 -0.0264  0.2129
16574W        W33421  13.253  17.686   4.696  0.1906  0.3082  0.2538
16575W        W33422   6.960  10.032   4.826 -0.0635  0.0016 -0.0823
16576W        W33423   1.829   2.348   1.839  0.2232 -0.1059  0.0766
16577W        W33424   3.634   0.270   1.262 -0.2815  0.0615  0.2811
16578W        W33425   1.677  12.813   0.711  0.0548 -0.1533  0.1499
16579W        W33426   6.483   7.777   4.874  0.3457 -0.1244  0.1818
16580W        W33427   4.588  10.068   1.781 -0.0840 -0.0284 -0.1612
16581W        W33428  14.380  12.445  11.034  0.1487 -0.1579  0.3272
16582W        W33429  12.259   3.823  12.412 -0.3108 -0.3003 -0.0481
16583W        W33430   6.339  11.770   2.758 -0.0725  0.1495  0.0914
16584W        W33431  16.757   6.904  15.465  0.1784 -0.0214 -0.0367
16585W        W33432   8.501   7.795  12.991 -0.1110  0.0837  0.2003
16586W        W33433   2.206   1.334   2.226 -0.1921  0.0056  0.1644
16587W        W33434   7.291   5.670   0.272  0.0365 -0.0947 -0.0647
16588W        W33435   0.461   9.158  13.691  0.0826 -0.0663  0.0057
16589W        W33436  12.556   9.825   1.309  0.0163 -0.0172 -0.1593
16590W        W33437  15.576   6.894   4.737 -0.0796  0.3043 -0.0496
16591W        W33438   8.060  10.612  12.826 -0.0544 -0.1492  0.2700
16592W        W33439  15.446   6.981   3.592 -0.0052  0.0719 -0.4072
16593W        W33440   7.672   3.637   1.636 -0.1945 -0.2471  0.1243
16594W        W33441   0.211   4.646  13.843 -0.0372 -0.0099  0.1935
16595W        W33442   2.744  13.569  14.653  0.1799 -0.0301 -0.3269
16596W        W33443  12.229  10.023  14.918 -0.0898 -0.0926  0.1431
16597W        W33444  15.716   0.355   2.049 -0.4001 -0.0958  0.2849
16598W        W33445  13.846  17.420   3.445  0.0010 -0.1753  0.1610
16599W        W33446   5.414  16.905   3.330 -0.0495 -0.1735  0.0408
16600W        W33447   9.592  11.504   4.864  0.0181 -0.1680 -0.0145
16601W        W33448   0.522  12.958   0.495  0.0841 -0.2487  0.2396
16602W        W33449  14.617   7.789   0.331 -0.0583  0.2033 -0.2113
16603W        W33450  15.782   2.714  12.001 -0.0824  0.0863 -0.1588
16604W        W33451   9.118   1.828   5.861  0.1426  0.1537 -0.0125
16605W        W33452   9.817   6.919  14.311 -0.0945 -0.1682 -0.2999
16606W        W33453  17.571   7.595  12.187 -0.0453 -0.2532 -0.0861
16607W        W33454  13.235  10.520   1.666 -0.0011  0.1217 -0.1526
16608W        W33455   5.040   7.713   2.306 -0.0132  0.3598 -0.0623
16609W        W33456  11.261  17.624   3.470  0.1061 -0.0548  0.0682
16610W        W33457   8.119   8.991  12.175 -0.1107 -0.0990 -0.0910
16611W        W33458  14.495  15.185   0.031 -0.3112  0.2561 -0.1496
16612W        W33459   4.720   1.419   0.282  0.1512  0.0846  0.2457
16613W        W33460   8.528   4.096   0.033 -0.1075  0.2136  0.0336
16614W        W33461   4.711   3.486  15.757 -0.1471  0.1279 -0.1018
16615W        W33462  14.676  15.136  11.717 -0.1658 -0.1078  0.0717
16616W        W33463   5.308  17.722   1.553 -0.1008  0.2690  0.2002
16617W        W33464   8.374  15.632  12.035 -0.0048  0.2373  0.1630
16618W        W33465   9.573  15.903   1.718  0.4066 -0.0257  0.2606
16619W        W33466   8.500   4.506   0.346  0.2661 -0.3965 -0.2117
16620W        W33467   9.471   0.526   4.578 -0.1775 -0.0935 -0.0999
16621W        W33468  14.662   1.625   5.353 -0.0595 -0.0221  0.3263
16622W        W33469   6.324   1.039   4.779  0.1546  0.0976 -0.0493
16623W        W33470  17.893   4.079  11.830  0.1693  0.3351  0.4066
16624W        W33471   3.800  10.089   2.563  0.2867 -0.0783 -0.0425
16625W        W33472  15.604   3.926  16.538 -0.1633 -0.0600 -0.0537
16626W        W33473  14.305  12.738  13.878  0.1754  0.0248  0.0276
16627W        W33474   4.890  16.471   5.612 -0.1793 -0.2654  0.1191
16628W        W33475   3.259   4.871   5.449 -0.3166 -0.2385 -0.0502
16629W        W33476   3.003  17.255  14.927  0.3588  0.0074  0.0818
16630W        W33477   3.775   9.620   3.928 -0.0669 -0.2528 -0.0294
16631W        W33478   7.270  16.456  15.920 -0.2081 -0.1571  0.0784
16632W        W33479   1.403   1.246  12.818 -0.3234  0.1248  0.0540
16633W        W33480   0.891   4.325  15.644  0.2262  0.1258 -0.0393
16634W        W33481  15.039  10.802   3.662 -0.1468  0.0872  0.2368
16635W        W33482   4.225  17.000  12.544  0.3446  0.4913 -0.1501
16636W        W33483  11.695  14.551  16.624  0.1288  0.0758  0.1566
16637W        W33484   5.212  13.404  13.360 -0.1077 -0.0816 -0.1192
16638W        W33485  13.884   0.126  13.062  0.1075 -0.0763  0.0385
16639W        W33486   1.443  11.814  14.135 -0.2568  0.1469  0.0818
16640W        W33487   3.454  13.736   1.524  0.1356 -0.1100 -0.0241
16641W        W33488   3.955  16.123   5.351 -0.1276 -0.1168 -0.1002
16642W        W33489   3.144   2.355   1.972  0.3194 -0.0826  0.1079
16643W        W33490   9.148   8.603  13.921 -0.2083 -0.0030 -0.2424
16644W        W33491  16.483  12.901   2.530 -0.0564  0.0481 -0.1808
16645W        W33492   8.667   5.184  12.003  0.1446  0.0655 -0.0985
16646W        W33493   5.546  13.530  12.956 -0.0048 -0.0645  0.2801
16647W        W33494  17.801   0.713   3.477  0.1021 -0.2828  0.1956
16648W        W33495  16.067   1.627   4.349  0.0840 -0.2023  0.1052
16649W        W33496  16.245   3.395   0.556  0.1691  0.3415  0.0015
16650W        W33497  17.683   5.963   1.704  0.2200 -0.0896  0.1724
16651W        W33498   7.372   4.973   4.493  0.1235  0.0545 -0.2945
16652W        W33499   1.246  12.057   2.061  0.3562 -0.1738  0.0141
16653W        W33500   6.045  15.875   0.064 -0.3240 -0.1035  0.0330
16654W        W33501   0.929  15.545  13.970 -0.2596  0.0543 -0.1866
16655W        W33502   3.078  14.407   0.627  0.0886 -0.0160 -0.1846
16656W        W33503  10.923   7.657   1.459  0.1373  0.1645 -0.1114
16657W        W33504  13.067  14.588  16.335  0.0681  0.0860 -0.2574
16658W        W33505  17.728  15.475   0.146 -0.0864  0.0700 -0.2330
16659W        W33506  14.257   3.706   3.482  0.2347  0.1969  0.4435
16660W        W33507   7.346   6.871   5.131 -0.0983  0.0570  0.2020
16661W        W33508   1.961   2.186   3.682 -0.0543 -0.0184  0.0051
16662W        W33509  10.386   9.098   3.340 -0.1712 -0.0876 -0.3172
16663W        W33510  13.376   1.430  14.492  0.0428  0.1787  0.2227
16664W        W33511  17.258  10.164   2.682 -0.3097 -0.0334  0.1022
16665W        W33512  13.152  16.119   2.789  0.0855  0.0928 -0.3225
16666W        W33513  13.462   9.121  14.183 -0.1655  0.2748  0.2633
16667W        W33514  15.187  14.321   2.575 -0.0056  0.0682 -0.3354
16668W        W33515   5.536   6.904  15.025 -0.1746 -0.1812  0.1085
16669W        W33516   6.999   5.808  13.032 -0.0564  0.1436 -0.2406
16670W        W33517   9.781   2.863  14.466  0.0137  0.0226 -0.3088
16671W        W33518   3.941   8.340   5.457 -0.0513 -0.0049 -0.1597
16672W        W33519  16.499   2.507   2.380 -0.0880  0.2526 -0.0827
16673W        W33520  12.532  15.840  15.132  0.2982  0.2724  0.0237
16674W        W33521  13.982   6.490   0.009  0.0151 -0.4520  0.0266
16675W        W33522   5.906  12.931  11.471 -0.2155 -0.1225 -0.0664
16676W        W33523  16.282   1.006  15.769 -0.2526  0.0817  0.0294
16677W        W33524   4.708   3.398  13.467  0.0441 -0.3152  0.1430
16678W        W33525   6.326  12.476   6.424  0.2014  0.2847  0.0957
16679W        W33526  14.552   8.187  11.744 -0.1530  0.0871  0.0219
16680W        W33527  10.050   9.287   1.018  0.0121 -0.4075 -0.3132
16681W        W33528   2.318  14.799  14.062  0.0810 -0.3269 -0.3914
16682W        W33529   3.267   9.559  13.490 -0.1205 -0.0855 -0.1618
16683W        W33530  15.189  14.016  12.310  0.2116  0.0135 -0.1003
16684W        W33531  13.756   9.688  11.392  0.1704  0.0808 -0.0555
16685W        W33532   8.338  11.797  12.387  0.1264  0.1967  0.0449
16686W        W33533   0.812  15.248   0.759  0.1219  0.0203 -0.1063
16687W        W33534  14.695   4.765   4.948 -0.1516 -0.2367 -0.1463
16688W        W33535   0.035   3.014   2.966 -0.2456 -0.1959  0.0385
16689W        W33536   5.572   0.637  12.460 -0.1752  0.1668 -0.1166
16690W        W33537   2.393   2.649  12.033  0.2004 -0.0820 -0.2525
16691W        W33538   3.502   2.934  16.538 -0.0745  0.0562 -0.1140
16692W        W33539  11.643  12.942   4.881  0.1445 -0.1735 -0.0525
16693W        W33540   0.206   8.608  15.342  0.2043  0.3189 -0.0626
16694W        W33541  10.030   9.821   2.024  0.1526  0.1843  0.1582
16695W        W33542   7.726  16.050  15.175 -0.1551  0.0505  0.0143
16696W        W33543  15.471  10.729   3.949 -0.0685  0.0434  0.2896
16697W        W33544  12.508   7.803  13.770  0.1132  0.0510  0.1073
16698W        W33545   5.646   1.165  13.251  0.1639 -0.3115  0.0296
16699W        W33546   2.649   5.523   6.111  0.1483 -0.0708 -0.2715
16700W        W33547   9.710   7.852   4.345  0.0367 -0.2136  0.1047
16701W        W33548  11.886  16.309   5.430 -0.0067 -0.2949 -0.0939
16702W        W33549  17.199   1.695   1.141 -0.0349 -0.0604 -0.1948
16703W        W33550   4.390   6.658   2.008  0.3074  0.1585  0.6446
16704W        W33551   8.363  11.316  12.209  0.0924 -0.1607 -0.0806
16705W        W33552  10.082  17.503   2.008  0.3213  0.0968  0.0717
16706W        W33553  16.334   6.814  14.188 -0.1013 -0.0338 -0.1256
16707W        W33554  13.116  17.866   2.241 -0.3765  0.0711  0.1856
16708W        W33555   4.324   9.324   5.038 -0.1072 -0.2985  0.1323
16709W        W33556   5.058  12.467   3.637 -0.1922 -0.0047 -0.0831
16710W        W33557   5.473   7.264   3.344  0.2290  0.0349  0.2030
16711W        W33558  16.214   1.101  13.363  0.0101  0.0427  0.0834
16712W        W33559   3.534   9.554  15.963  0.0115 -0.1926 -0.0784
16713W        W33560   7.693  16.610   3.489 -0.1418  0.1155 -0.1897
16714W        W33561  18.105  13.988   3.365  0.0270  0.0401 -0.4508
16715W        W33562   1.630   1.049  15.191  0.1453  0.0752  0.0566
16716W        W33563   1.465  14.321  14.597  0.1793 -0.0905  0.3371
16717W        W33564   6.033   3.844  13.095 -0.2339  0.3814  0.3685
16718W        W33565  15.609   5.162  15.233 -0.1587  0.2035 -0.1186
16719W        W33566  17.249  15.746   3.853 -0.2532 -0.0722  0.0889
16720W        W33567  16.335  12.385  13.825 -0.2791  0.1591  0.1306
16721W        W33568   5.372   6.014  15.438  0.1815  0.3707 -0.0607
16722W        W33569   8.646   2.042  15.314  0.1071 -0.2231  0.0225
16723W        W33570   3.574   7.396   5.763 -0.0519  0.1182 -0.0950
16724W        W33571  15.330  17.716   0.464  0.1470  0.2057 -0.3488
16725W        W33572   2.686  17.319  12.855 -0.1851  0.1227 -0.0984
16726W        W33573   0.822   5.464   1.923  0.0751  0.1921 -0.1719
16727W        W33574  12.742   5.441  14.731  0.1607  0.1602  0.3405
16728W        W33575   7.195   5.235  11.826 -0.0520 -0.0971 -0.0807
16729W        W33576  12.385   5.592   1.613  0.1446  0.0313  0.0247
16730W        W33577  15.747  16.057   4.528 -0.0391 -0.1018 -0.1741
16731W        W33578  16.137  11.284  11.444 -0.1569 -0.2177 -0.2686
16732W        W33579   5.996  17.410  15.229 -0.0316  0.1165  0.2494
16733W        W33580   5.384  10.152  15.678  0.3459 -0.3153 -0.1380
16734W        W33581   4.651  15.710   5.305  0.0591  0.1436 -0.1313
16735W        W33582   2.848  12.437  16.135  0.2000  0.2928 -0.1717
16736W        W33583   3.613   1.872   3.263 -0.1803 -0.0853 -0.0908
16737W        W33584   4.489   5.420  15.670 -0.0840  0.1944 -0.0229
16738W        W33585   6.914   7.158   1.220  0.0369 -0.0187  0.1872
16739W        W33586   8.897  16.135  13.564 -0.0111  0.1743 -0.3026
16740W        W33587   7.445  13.024   0.008 -0.1969 -0.0883  0.1925
16741W        W33588  14.318   2.909   5.602 -0.0378 -0.0356  0.0062
16742W        W33589   5.392  16.618   1.999 -0.0614 -0.3159 -0.0457
16743W        W33590  10.667  11.853   2.898  0.1727  0.1621  0.0452
16744W        W33591   7.398  11.429  14.805  0.3070  0.5790  0.0016
16745W        W33592   4.536   6.024   3.211 -0.1880 -0.1467 -0.0501
16746W        W33593  15.032  11.277   0.950 -0.1769 -0.1622 -0.2647
16747W        W33594  12.207   2.271   4.340 -0.1093  0.1381  0.3007
16748W        W33595  16.893  13.538  14.352  0.0552 -0.3550 -0.0959
16749W        W33596   2.295   8.050  15.650 -0.0185  0.0387  0.0046
16750W        W33597  13.211   5.475   2.859 -0.0683  0.0299  0.1781
16751W        W33598   7.068   8.963   2.314  0.2074  0.3200  0.3987
16752W        W33599   0.204  12.030  16.142  0.1072 -0.0999 -0.1319
16753W        W33600   3.401   3.394  14.694  0.3046  0.0474  0.1743
16754W        W33601   3.030  10.407  14.407 -0.3827 -0.2553 -0.0389
16755W        W33602  16.186  15.317   3.826 -0.1697 -0.5533  0.0678
16756W        W33603  15.192  16.651   5.041  0.1476 -0.1075 -0.1530
16757W        W33604   1.654   1.599   2.242  0.1225  0.2207 -0.1562
16758W        W33605  10.476  13.133   4.323  0.1487 -0.1395 -0.3214
16759W        W33606  10.797   4.573   1.079 -0.0342 -0.1863 -0.1226
16760W        W33607   2.364   0.715   0.993  0.1246 -0.0574  0.0193
16761W        W33608  15.975  12.635  10.374  0.0979 -0.1542  0.1670
16762W        W33609   2.327   5.325   2.574 -0.2408 -0.0079  0.1162
16763W        W33610   7.047   2.384   0.086 -0.1420 -0.1480 -0.1594
16764W        W33611   8.311   5.195  13.556 -0.1236  0.0510  0.3078
16765W        W33612  10.713  16.245  14.536  0.2163  0.0062  0.1449
16766W        W33613   6.466   6.375  12.619 -0.1271  0.0125  0.0366
16767W        W33614   9.583   3.876   1.530  0.0527  0.1708  0.0268
16768W        W33615  16.453   7.947   3.873 -0.1088  0.0220  0.0600
16769W        W33616   3.269   5.468   2.790 -0.1325  0.2881  0.0851
16770W        W33617   9.209   8.184   4.437  0.1261  0.1905 -0.1309
16771W        W33618   0.796   2.135  13.876 -0.1790 -0.2224 -0.1429
16772W        W33619  13.695  13.858  16.275  0.2463  0.0113 -0.0098
16773W        W33620   7.730   0.447  13.383 -0.1512 -0.0073 -0.2317
16774W        W33621  16.054  14.983  15.695 -0.1154 -0.0559 -0.0700
16775W        W33622  10.029  16.862  15.912  0.2635 -0.2061  0.1287
16776W        W33623   8.780  15.712  13.988  0.1817  0.2078 -0.3069
16777W        W33624   3.351  17.382   3.819 -0.0480  0.1188  0.0142
16778W        W33625   6.738   4.167  14.406  0.0210 -0.0426 -0.2931
16779W        W33626   5.222   0.837   3.680  0.0649  0.2239  0.1249
16780W        W33627  16.059   0.489   1.025 -0.0515  0.2445  0.1005
16781W        W33628  15.918  13.926  15.344 -0.1517  0.0217  0.0133
16782W        W33629   4.947   1.417   1.678 -0.1707 -0.1414  0.3858
16783W        W33630  12.423   3.411  12.705 -0.1631 -0.0843  0.0255
16784W        W33631  11.638   5.287   5.876  0.2024  0.1059  0.0690
16785W        W33632  12.068   7.854  12.747  0.1711  0.0670  0.2155
16786W        W33633  15.751  14.736  13.801  0.2382  0.0269 -0.2032
16787W        W33634  11.126   9.239  15.657  0.1467  0.3054 -0.2195
16788W        W33635   4.770   9.334  14.035 -0.2444  0.1097 -0.5684
16789W        W33636   8.659   2.439   5.253  0.1861 -0.0474 -0.2690
16790W        W33637  12.407   4.381   4.501 -0.1084 -0.1044 -0.0525
16791W        W33638   5.156  10.537   0.781 -0.0047 -0.0244  0.0942
16792W        W33639   2.433   7.425   2.543 -0.0591 -0.0523 -0.1600
16793W        W33640   9.246  10.360  16.289 -0.0176  0.1334 -0.0372
16794W        W33641   5.192   7.908  11.851  0.0944  0.0537 -0.0317
16795W        W33642  17.892  12.705  12.379 -0.1160  0.0775 -0.3168
16796W        W33643  11.161  15.279   2.817  0.2797  0.1862 -0.0185
16797W        W33644   9.691   3.322   4.095 -0.1080 -0.1970 -0.2098
16798W        W33645  17.623   2.431  11.442  0.0699 -0.5251  0.0328
16799W        W33646  12.747   4.706  12.501 -0.1027  0.2001  0.7259
16800W        W33647   7.014  15.511  13.685 -0.1477 -0.2723 -0.3165
16801W        W33648   2.923  14.043  12.434 -0.1978 -0.2829  0.1407
16802W        W33649  14.294   3.494   0.551 -0.4372  0.1727 -0.1285
16803W        W33650   5.598   7.712   2.518  0.0986 -0.4623  0.2689
16804W        W33651  11.669   2.320   3.787  0.2293 -0.0440 -0.2057
16805W        W33652  10.115   1.122   4.334  0.1165 -0.1891 -0.0090
16806W        W33653   5.056   1.042  16.191 -0.0384 -0.2918 -0.0991
16807W        W33654   3.548   2.075   4.274  0.0309  0.0903 -0.2125
16808W        W33655  10.466  14.473   1.273  0.1051  0.1414 -0.2236
16809W        W33656  16.017   5.979  15.966  0.1583  0.0546  0.0821
16810W        W33657  15.658  16.682  16.433 -0.1781 -0.0754 -0.3405
16811W        W33658  10.293  10.490  11.221 -0.0756 -0.0648  0.0370
16812W        W33659  17.253  14.212  13.466 -0.0744  0.0449 -0.1862
16813W        W33660   7.006   1.753   0.379  0.0019 -0.0988  0.2577
16814W        W33661  10.566  14.497  16.550  0.3721  0.0494  0.1505
16815W        W33662  12.846   8.703   4.169 -0.0592 -0.1395 -0.3408
16816W        W33663   3.312   1.911   1.687  0.0052 -0.1052  0.1002
16817W        W33664  11.863  13.492  11.944 -0.0171  0.0482 -0.0549
16818W        W33665   5.788  17.326  13.945 -0.3330 -0.2945  0.1457
16819W        W33666   6.982   4.778  11.195 -0.5558  0.2693  0.1394
16820W        W33667   4.227   8.859   1.924  0.3120 -0.2304 -0.4043
16821W        W33668  11.625   8.672  12.388 -0.1196  0.1051 -0.0094
16822W        W33669   0.737  17.506  16.457 -0.1431  0.2004 -0.3963
16823W        W33670   7.225   9.967   0.326  0.1705 -0.2100 -0.1610
16824W        W33671  11.554  10.823  16.162 -0.4177  0.0383  0.1006
16825W        W33672  12.091   7.211  12.036 -0.1654 -0.1971 -0.0986
16826W        W33673  15.379   5.738   0.302  0.0498  0.3148  0.0608
16827W        W33674   0.173   7.414   3.055  0.1454  0.2997 -0.0713
16828W        W33675   7.620  15.555   1.367 -0.0190  0.2421 -0.1287
16829W        W33676  11.526   0.460   0.640 -0.1356 -0.0058  0.2209
16830W        W33677  13.029   0.269  13.163 -0.3463  0.3333 -0.0224
16831W        W33678  13.101  13.504  14.990  0.2398 -0.1274 -0.1266
16832W        W33679   0.652   6.349  16.300  0.1708 -0.2912 -0.1432
16833W        W33680  11.271   1.319  15.159  0.3023 -0.1029  0.1641
16834W        W33681  17.952   2.261   2.203 -0.1972  0.0160 -0.0063
16835W        W33682   8.383  13.780  13.166  0.0003 -0.1933  0.2111
16836W        W33683   2.628   1.657   5.390 -0.0555 -0.1676 -0.0009
16837W        W33684   3.087   7.151  14.749  0.0362 -0.2954 -0.0383
16838W        W33685  11.321   0.589  13.071  0.0995  0.2273 -0.1017
16839W        W33686   0.184  14.787  16.611  0.0192  0.1271 -0.1056
16840W        W33687   0.403   1.417  12.693 -0.2698 -0.0994  0.0336
16841W        W33688   2.917  12.035   0.246  0.1256  0.0562  0.0074
16842W        W33689   4.907   8.844   1.038  0.3280 -0.0460  0.0639
16843W        W33690   1.945   0.162   5.182  0.1803  0.2697 -0.2894
16844W        W33691   2.090   7.463   4.040  0.0407 -0.1194  0.3170
16845W        W33692  15.557  17.731  10.193 -0.2465 -0.0596 -0.3037
16846W        W33693  14.595   4.315   0.841 -0.0327  0.0762 -0.0427
16847W        W33694   0.581   5.587   0.943 -0.1915 -0.3555 -0.0963
16848W        W33695   7.453  13.519   4.580 -0.1599 -0.0592  0.3141
16849W        W33696   9.105  17.993   2.098 -0.0720  0.3270 -0.1362
16850W        W33697   7.441  12.100   2.231 -0.0655  0.0940  0.1032
16851W        W33698   6.507  10.814  13.864  0.0769  0.1974  0.2603
16852W        W33699   7.173  12.610  13.873 -0.1578  0.1748  0.1267
16853W        W33700   8.918   9.616  11.813 -0.2448 -0.1203 -0.0464
16854W        W33701  13.836   0.797  13.733 -0.0736 -0.1960 -0.0683
16855W        W33702   6.169   9.244   1.458  0.0972 -0.1868 -0.0759
16856W        W33703   0.053   8.709   2.788  0.1593  0.0169  0.0777
16857W        W33704   2.048   8.588   5.908  0.0898 -0.0653  0.1367
16858W        W33705  11.234  16.673   1.883 -0.4251  0.3305 -0.1290
16859W        W33706   2.341   6.840  10.448 -0.0115  0.3326  0.2539
16860W        W33707   5.409   2.557  15.025 -0.0275  0.0548  0.4471
16861W        W33708   8.289  11.236   1.210 -0.0603  0.1766 -0.2252
16862W        W33709   5.902  16.705   1.635  0.0300  0.2151  0.1830
16863W        W33710  18.115   2.048  15.697 -0.1818  0.1090 -0.1110
16864W        W33711  12.471   7.597   0.418  0.0736  0.1293 -0.0606
16865W        W33712  11.053  10.747  13.783  0.0627  0.4958  0.2096
16866W        W33713  16.049   9.177   5.213 -0.0487 -0.0911  0.0271
16867W        W33714  17.959  17.094   4.921 -0.1422 -0.3486 -0.0706
16868W        W33715   5.057  14.237   3.845  0.0971 -0.2958 -0.4075
16869W        W33716  12.427  12.447   2.395  0.1458 -0.1288  0.0329
16870W        W33717  13.432   2.863   4.198 -0.3993  0.0110 -0.1618
16871W        W33718   9.528   2.546   3.974 -0.0918 -0.0807 -0.0227
16872W        W33719   6.410   7.860  13.994 -0.1951  0.1432 -0.0259
16873W        W33720  11.251  15.873  13.712  0.0355 -0.3386  0.2050
16874W        W33721   0.680  13.360   4.570 -0.1687  0.0027 -0.0484
16875W        W33722  18.091  10.107   5.229 -0.0357 -0.0721  0.0290
16876W        W33723  16.836   0.490  11.748 -0.1205 -0.0223  0.1332
16877W        W33724   2.860   5.540  13.509  0.0192 -0.4916 -0.2888
16878W        W33725  13.641   3.586  13.333  0.3079 -0.0500  0.0242
16879W        W33726   5.388   4.891  15.678  0.0064 -0.1791 -0.0527
16880W        W33727  12.829   5.540   3.979  0.1732  0.0426  0.1555
16881W        W33728  12.885   3.534   3.009  0.2426 -0.0947  0.0424
16882W        W33729   0.844   2.533  12.218  0.1018  0.2790 -0.2010
16883W        W33730  14.130   2.395   2.592 -0.1983 -0.1525  0.1155
16884W        W33731   6.904   5.671   0.991 -0.0238  0.1252  0.0811
16885W        W33732   6.392   2.785   2.008  0.0785 -0.1367 -0.1270
16886W        W33733   7.462  10.292  15.872 -0.1749  0.0103  0.0174
16887W        W33734   8.779  17.801   1.262 -0.3042 -0.2138  0.1020
16888W        W33735   9.950   5.837  11.732 -0.4936  0.0147  0.3454
16889W        W33736   4.155  14.958   1.718 -0.0827  0.1350 -0.0038
16890W        W33737  14.437   5.190  12.869 -0.0578  0.1343  0.3191
16891W        W33738  12.430   7.244   3.952 -0.0945  0.0192 -0.1826
16892W        W33739   8.139   3.724  16.602  0.3633  0.1482 -0.2046
16893W        W33740   9.189   2.735  15.298  0.1415  0.2783  0.2941
16894W        W33741   4.850   0.119  16.076  0.0808 -0.0432  0.1451
16895W        W33742   0.173  17.962  14.045  0.1405  0.4559 -0.0870
16896W        W33743   5.102   1.935   2.993  0.0784 -0.0333 -0.0918
16897W        W33744  10.130  17.811   6.019 -0.0870  0.0815 -0.0377
16898W        W33745   3.731   4.559   4.493  0.1402 -0.1489  0.0120
16899W        W33746  11.546   9.804  13.298 -0.0878 -0.2830  0.0976
16900W        W33747  10.393  11.887  15.607 -0.2376  0.1311  0.0829
16901W        W33748   0.524   7.057   2.791  0.2855 -0.1358  0.0809
16902W        W33749  16.293   8.695   1.178  0.1546 -0.4656  0.0864
16903W        W33750   5.240  11.602   2.875  0.4462  0.1500  0.2183
16904W        W33751   6.128   2.976   5.657  0.0811  0.1239  0.0852
16905W        W33752   9.364   9.198  11.975  0.1785  0.0558 -0.1585
16906W        W33753   4.116   2.399   4.406  0.2515  0.0657 -0.4346
16907W        W33754  14.538  12.000  15.026 -0.2387  0.0087 -0.1275
16908W        W33755  12.167  16.712   1.822  0.0123  0.3805 -0.0963
16909W        W33756  11.954   8.637  12.745 -0.0184 -0.0036 -0.0581
16910W        W33757  14.132   9.532   3.047  0.0539 -0.0568 -0.1063
16911W        W33758   6.640   3.737  14.752  0.5795 -0.1957 -0.0114
16912W        W33759  10.284   5.509   4.582 -0.1754 -0.0495  0.0853
16913W        W33760   7.462   4.649   0.666  0.2324  0.2221 -0.2771
16914W        W33761   6.384  17.683   2.263 -0.1622 -0.2135  0.0017
16915W        W33762  12.733   4.088   3.111 -0.4286 -0.1647 -0.0188
16916W        W33763   7.199   4.006   6.158  0.0586 -0.0028  0.1041
16917W        W33764   6.139   9.137   2.323 -0.0830  0.0356  0.4657
16918W        W33765   9.071  16.084  16.438  0.1490 -0.0654  0.0914
16919W        W33766  11.253   1.908   0.146 -0.0124  0.2870 -0.1157
16920W        W33767  12.341  10.548   2.041  0.0187  0.0802  0.2974
16921W        W33768   9.930   8.816   4.494  0.0201  0.1215 -0.0529
16922W        W33769   6.941  11.813  12.721  0.0747 -0.0884  0.0805
16923W        W33770  17.821  11.259   5.155 -0.1016 -0.1182  0.0055
16924W        W33771  14.508   6.840  15.914 -0.3817 -0.2156  0.0132
16925W        W33772  14.515   7.964   3.415 -0.1312 -0.0098 -0.0625
16926W        W33773   1.106   9.986   5.018  0.0169  0.0891 -0.1026
16927W        W33774  17.013  17.743  13.094  0.0754  0.3150 -0.3815
16928W        W33775   6.556  11.111   1.803 -0.1223  0.0289 -0.1045
16929W        W33776   5.088  11.927  14.346 -0.0260 -0.3690  0.1281
16930W        W33777  17.025  15.040   5.909 -0.1517  0.0234 -0.0037
16931W        W33778  16.334   2.528  11.906 -0.0993 -0.1076 -0.1299
16932W        W33779   6.537   2.766   4.364 -0.1300  0.1148 -0.1430
16933W        W33780  14.384  17.040   1.832  0.0541  0.0977 -0.1388
16934W        W33781   8.351   7.615   0.828  0.2942  0.2090  0.3052
16935W        W33782   4.847  16.320  12.707 -0.1219  0.0263 -0.0684
16936W        W33783   8.313   2.726   4.142 -0.1096  0.2816  0.0167
16937W        W33784   9.501  12.090  11.741 -0.0494 -0.1060  0.0020
16938W        W33785  10.323  17.945  12.201 -0.3779  0.0070 -0.0631
16939W        W33786  13.549  12.702   1.257  0.2788 -0.0632 -0.0804
16940W        W33787  14.929  11.446  11.995  0.2761  0.1914  0.0040
16941W        W33788   6.879   2.034  12.150 -0.1309  0.0245 -0.1723
16942W        W33789  16.065   6.863   5.271  0.0897  0.1156 -0.2540
16943W        W33790   8.616   4.560  15.948 -0.2249  0.0803  0.0594
16944W        W33791   4.032  10.588   1.315  0.0779 -0.1839 -0.0082
16945W        W33792   5.753   7.888   1.658 -0.0184 -0.0166  0.1215
16946W        W33793   2.293  16.600  15.475 -0.0647 -0.2337  0.0737
16947W        W33794   1.973  14.942   1.382 -0.0295 -0.1321  0.2376
16948W        W33795  13.612  11.728  15.378  0.1643 -0.1438  0.1259
16949W        W33796  12.650   1.955  13.369  0.2892  0.4351 -0.4024
16950W        W33797   4.587   0.066   3.124  0.3344  0.1131 -0.0714
16951W        W33798   9.411   9.973  11.537 -0.1420  0.1380 -0.0791
16952W        W33799  15.024  15.901  14.454  0.0685 -0.0543 -0.4017
16953W        W33800   5.248  11.301  16.330 -0.0329 -0.1070 -0.1754
16954W        W33801  15.455   8.134   2.141  0.2369 -0.1552 -0.1066
16955W        W33802   3.794   0.314  14.614  0.2269 -0.0569  0.1720
16956W        W33803   6.909  10.612  13.304 -0.0708 -0.3563 -0.1385
16957W        W33804   2.534  13.676   0.833 -0.0408 -0.0533 -0.0443
16958W        W33805   5.232  17.805  16.393 -0.1551  0.0321 -0.1448
16959W        W33806   8.864  12.442   4.730  0.3990 -0.1102  0.0880
16960W        W33807   3.319   9.085  15.647  0.2387 -0.0212  0.0759
16961W        W33808  16.924  17.373  13.444 -0.2391 -0.1342 -0.0121
16962W        W33809  16.877   1.047  16.457  0.2035 -0.0408  0.0809
16963W        W33810  15.609  13.649   4.804 -0.1831  0.0841 -0.1727
16964W        W33811  13.074   8.653  11.507  0.0986 -0.1510  0.1719
16965W        W33812   5.833  15.058  12.108 -0.1823  0.0859 -0.0519
16966W        W33813  17.134   0.018  14.471 -0.0341  0.2464  0.0359
16967W        W33814   4.393  17.250  11.687  0.2612  0.0790 -0.0115
16968W        W33815  15.537   4.156  11.323 -0.3781  0.2162 -0.1579
16969W        W33816   2.795   7.225   2.201 -0.1140  0.1879 -0.2167
16970W        W33817  13.176   3.096   3.761  0.0855  0.2691 -0.1557
16971W        W33818   7.782  18.092   2.730  0.1339 -0.3149  0.1939
16972W        W33819  13.752  11.760   1.718 -0.0265 -0.2241  0.1650
16973W        W33820   3.177  17.134   0.832  0.1123 -0.0167 -0.0696
16974W        W33821  12.055  17.974  16.550  0.3153 -0.3225  0.0892
16975W        W33822   3.267  17.271   2.935 -0.2636 -0.1650  0.0169
16976W        W33823  16.509   4.257  15.234 -0.1413 -0.1191 -0.2595
16977W        W33824   3.188  12.902   3.835 -0.0227  0.0152  0.2823
16978W        W33825   2.441  14.378  12.519  0.0087  0.1209 -0.0294
16979W        W33826  10.041  13.714  12.430  0.1215 -0.1421 -0.0416
16980W        W33827   1.413  13.441  12.595 -0.0502  0.0039 -0.3370
16981W        W33828   5.618  13.629  16.284  0.0501 -0.1824  0.0707
16982W        W33829  17.337  16.473   3.768 -0.1253  0.3276  0.0822
16983W        W33830  14.892   0.157   1.796  0.1910  0.1933  0.3095
16984W        W33831   5.189   5.389  14.769  0.0310 -0.0436  0.1361
16985W        W33832  15.420  17.894  14.993  0.1601 -0.0088  0.0319
16986W        W33833   6.979   5.677   2.859  0.3321  0.4710 -0.3270
16987W        W33834  12.578   0.376   2.101 -0.3756  0.1306 -0.0838
16988W        W33835  14.447  16.847   4.839  0.1595 -0.2152  0.0079
16989W        W33836  14.994   2.433   2.818 -0.1296  0.2875  0.0174
16990W        W33837   7.665  13.916  15.817 -0.2999  0.1960 -0.0070
16991W        W33838   8.461   8.453  16.183  0.2578  0.0536 -0.0421
16992W        W33839   6.044   6.285  12.262  0.0319 -0.1776 -0.0760
16993W        W33840  11.295  14.458  14.069  0.1622 -0.1187  0.0813
16994W        W33841   4.339   4.737  12.989  0.1915  0.1495 -0.1133
16995W        W33842   1.442   0.819   3.689 -0.1674 -0.2425  0.0315
16996W        W33843  14.629  14.432  14.505  0.3250  0.0827  0.2105
16997W        W33844   2.543   8.028  13.682 -0.0233 -0.1760 -0.3387
16998W        W33845   2.228  17.623   4.590 -0.2331  0.2245 -0.1789
16999W        W33846  12.957  14.829   0.734 -0.1797 -0.1413  0.1686
17000W        W33847   9.995  12.184   3.585 -0.2951  0.2045 -0.1215
17001W        W33848   2.776  10.770   4.897 -0.3012  0.0137  0.1424
17002W        W33849   9.328   8.919  15.592  0.2833 -0.4643 -0.1083
17003W        W33850  13.312   1.419   4.264  0.0882 -0.1323  0.1604
17004W        W33851  15.169   7.999   1.673 -0.0482 -0.0812  0.4059
17005W        W33852  15.942   7.606   1.387  0.2180  0.2157 -0.1429
17006W        W33853   9.306  16.157   2.262 -0.0065 -0.1427 -0.0349
17007W        W33854   6.957   3.745  14.383  0.0866 -0.0197  0.0627
17008W        W33855  15.049   9.148  16.599  0.1732 -0.0748  0.1567
17009W        W33856  11.478   3.727  16.226  0.2138 -0.1076  0.0172
17010W        W33857  17.458  10.177   0.800 -0.1643  0.1578  0.0972
17011W        W33858   7.450   5.989  14.808  0.0184 -0.6632 -0.4904
17012W        W33859  11.802  14.761  13.470  0.4234 -0.0106 -0.1530
17013W        W33860  15.735  11.141   1.846 -0.3548 -0.0666 -0.1928
17014W        W33861  13.395  10.202   4.476  0.2835 -0.4838  0.1942
17015W        W33862  13.177  17.435  13.688 -0.1054 -0.0727  0.2142
17016W        W33863  10.198   8.345   3.609  0.3945 -0.1010  0.2366
17017W        W33864   3.655  10.599  12.465  0.1019  0.2532  0.0868
17018W        W33865  10.517   7.767  10.824 -0.0157 -0.5164 -0.0861
17019W        W33866   5.302   4.945  13.885 -0.0998  0.1143  0.1633
17020W        W33867   7.101  13.704   4.213  0.0815  0.2432  0.3280
17021W        W33868   0.445   7.108   3.341  0.2446 -0.1647  0.3323
17022W        W33869  11.131   9.797  14.089 -0.1184  0.3313  0.0451
17023W        W33870  15.511  17.421   1.238 -0.0481 -0.2081  0.2860
17024W        W33871  12.881  12.470   2.589  0.0325 -0.2372 -0.4332
17025W        W33872   2.692  14.766   5.007 -0.0499 -0.2295 -0.0280
17026W        W33873  13.394   9.958  16.452 -0.0120  0.0141  0.2164
17027W        W33874  14.266  13.076   2.984 -0.1600  0.1832 -0.1599
17028W        W33875   8.329   3.810   0.541  0.0165  0.0277 -0.0469
17029W        W33876  10.192   9.247   4.621  0.0833  0.0974  0.0401
17030W        W33877   3.221  13.022  15.014  0.0939 -0.1857 -0.0537
17031W        W33878   4.589  13.405   1.158  0.1457  0.1992  0.0636
17032W        W33879   5.639  14.686   2.868  0.0202 -0.1774  0.4539
17033W        W33880  11.716   4.661  13.285  0.0404 -0.0078  0.1447
17034W        W33881   3.858  13.261  15.628  0.1924 -0.0962 -0.2419
17035W        W33882  11.133  14.168  15.933 -0.1302  0.0611  0.1760
17036W        W33883   5.577   7.017   4.284 -0.3042 -0.1529 -0.0371
17037W        W33884  15.667  12.414  14.630  0.2171 -0.1344 -0.1140
17038W        W33885   2.325  17.899  11.068 -0.1453 -0.3582 -0.1319
17039W        W33886  16.846  11.908   5.425 -0.1449 -0.5354 -0.1946
17040W        W33887  13.363   0.033  14.125 -0.2438 -0.0286 -0.1281
17041W        W33888  11.888   4.959   1.280  0.1290 -0.0478 -0.3137
17042W        W33889   9.550   2.989   1.986  0.3136 -0.0479 -0.3137
17043W        W33890   1.689   9.836   2.138 -0.2725  0.2057  0.0324
17044W        W33891  16.525  11.215  15.698  0.5599 -0.1743  0.0657
17045W        W33892  11.498   2.219  15.215  0.1687 -0.1308 -0.2104
17046W        W33893  16.085   1.559   2.575  0.3244 -0.0961  0.0751
17047W        W33894   7.086  11.704   3.607 -0.0414 -0.1472 -0.0753
17048W        W33895  17.086   8.078   1.454 -0.1394 -0.2276  0.3260
17049W        W33896  17.831   3.982  13.075 -0.1735 -0.3057  0.1636
17050W        W33897   0.894  10.996   3.573 -0.1799 -0.1056 -0.0597
17051W        W33898  13.518  11.168  13.456 -0.0114 -0.4116  0.0900
17052W        W33899  16.626   8.584  13.669 -0.1361  0.0060 -0.2027
17053W        W33900   0.334   7.195   5.498 -0.1939 -0.1270 -0.0228
17054W        W33901  17.765   0.458   3.993 -0.3583 -0.0900  0.0978
17055W        W33902   5.665   6.796  14.494  0.5181 -0.2586  0.1084
17056W        W33903   1.369  11.594   3.299  0.2888 -0.1394 -0.1937
17057W        W33904   4.903   6.019  15.203 -0.0832  0.1024 -0.1010
17058W        W33905   0.789  10.235  13.997  0.0560  0.1461  0.0321
17059W        W33906  17.950  15.253  12.759 -0.1430  0.2789  0.3228
17060W        W33907  14.936  11.535   3.229 -0.1156  0.0350 -0.0590
17061W        W33908   0.704  14.810   0.002  0.0939  0.1581  0.1457
17062W        W33909   5.493   5.807  15.968  0.1048 -0.0490  0.2134
17063W        W33910   8.938  11.646   2.440  0.0693 -0.0310  0.1157
17064W        W33911   7.296  15.749   1.814  0.1646 -0.0764  0.0543
17065W        W33912  11.114   5.228  10.940 -0.3030 -0.0135  0.0125
17066W        W33913   0.370  11.696   1.815 -0.0177 -0.1596 -0.1887
17067W        W33914  16.849  14.599  12.353 -0.0757  0.1241 -0.0961
17068W        W33915  15.295   5.574  13.386 -0.1195 -0.0404  0.1965
17069W        W33916   6.114  15.355  15.330 -0.0049 -0.1734  0.0877
17070W        W33917   2.439   9.133   1.747 -0.0437  0.0279 -0.1623
17071W        W33918   7.963   3.069  11.079 -0.1705  0.2132  0.3844
17072W        W33919  18.114  17.835  13.390  0.1426 -0.1948  0.1334
17073W        W33920  11.971  12.421   3.073 -0.5489  0.1803 -0.2168
17074W        W33921   5.816   6.056  11.835 -0.2684 -0.0717 -0.1014
17075W        W33922   5.830   1.336   1.167 -0.0107 -0.2295 -0.2764
17076W        W33923  13.437  16.552   3.558 -0.3587  0.1395  0.2997
17077W        W33924  10.248   3.942   3.325  0.0484 -0.0338  0.1503
17078W        W33925   9.939   7.768  14.453 -0.2657 -0.1962 -0.2565
17079W        W33926   6.988  11.716   1.558 -0.3032  0.1618 -0.2156
17080W        W33927   0.085  14.000   3.857 -0.1898 -0.1531 -0.1043
17081W        W33928   1.829  13.941   1.316  0.0012 -0.1700  0.0852
17082W        W33929  10.307   7.843   3.757  0.2032 -0.1533 -0.0256
17083W        W33930   6.003  15.530  13.252  0.1682 -0.1542  0.1294
17084W        W33931  12.895   9.918  12.100 -0.1168  0.2491 -0.0015
17085W        W33932  15.534   3.679   3.673  0.0992 -0.3608 -0.0620
17086W        W33933   6.757   6.154   3.023 -0.0734  0.1546  0.1123
17087W        W33934   4.539   0.506  15.213 -0.2809 -0.0814  0.0107
17088W        W33935   0.638  12.073  13.151  0.0981  0.0140 -0.1568
17089W        W33936   9.878   5.499   1.839 -0.2142  0.1079  0.0138
17090W        W33937   6.614   4.456   1.329  0.2364 -0.1236 -0.1738
17091W        W33938   0.651   6.560  11.242  0.0766  0.2128  0.1461
17092W        W33939  14.111  17.400  16.123  0.1060  0.0899 -0.1009
17093W        W33940  18.099  13.678   0.181 -0.0960  0.2409  0.2360
17094W        W33941   3.253  10.710  13.201  0.1450  0.2506  0.1241
17095W        W33942   8.986  15.815   2.434 -0.1395  0.0164 -0.0200
17096W        W33943  17.751   9.022  16.131 -0.2150  0.2207 -0.0148
17097W        W33944   0.638  15.636   1.335  0.1081 -0.2715 -0.3181
17098W        W33945   9.568  17.984  12.905  0.3397 -0.2277 -0.4037
17099W        W33946   4.643  16.834  12.812  0.0528  0.1105 -0.1154
17100W        W33947  17.050   1.988  12.366 -0.1080  0.1740 -0.2838
17101W        W33948  13.533   0.448   4.768  0.0218 -0.2179  0.0907
17102W        W33949   4.491   8.006   3.262 -0.0748  0.3625  0.1048
17103W        W33950  17.485   9.423   5.520  0.0823  0.2401 -0.1697
17104W        W33951   9.708  16.995   0.843 -0.1737  0.1864 -0.0566
17105W        W33952   9.101  16.099   5.084  0.0401  0.0598 -0.0906
17106W        W33953   3.428  14.340  12.488  0.0213  0.1162  0.0879
17107W        W33954   3.589   9.956  16.262  0.1628 -0.1991  0.0118
17108W        W33955   5.538  17.102  12.086 -0.3010 -0.0026  0.4961
17109W        W33956  16.778   9.865  13.300  0.1459 -0.0421  0.1604
17110W        W33957  16.063   6.521   5.711  0.0495 -0.1045 -0.2987
17111W        W33958  13.629   2.805  12.279 -0.1814 -0.1807  0.1552
17112W        W33959   9.839  12.109  13.032 -0.4261  0.0065 -0.0188
17113W        W33960  15.557   3.817  16.052  0.0567  0.3878 -0.0669
17114W        W33961   2.533  15.652   1.861  0.1661 -0.1096 -0.0310
17115W        W33962   6.163  12.395  13.088 -0.0299  0.1886 -0.4143
17116W        W33963   3.962  17.048  14.088  0.1862 -0.0869  0.3163
17117W        W33964   5.476   4.857  14.766  0.1171  0.0887 -0.3731
17118W        W33965   1.174   5.459   3.609 -0.2868  0.0500 -0.0058
17119W        W33966  18.045  15.838  16.426 -0.0083 -0.2089  0.0083
17120W        W33967  16.656  16.761   5.128 -0.0751 -0.1216  0.0694
17121W        W33968   1.732  11.018   0.521 -0.1553  0.2051  0.1349
17122W        W33969  10.723   8.145  12.104  0.1822 -0.1322  0.0216
17123W        W33970   6.673   3.657  16.206 -0.1657 -0.0973 -0.2318
17124W        W33971  11.140  17.834   4.886 -0.0842 -0.0655 -0.1587
17125W        W33972  16.225  16.946   3.100 -0.2350 -0.0960  0.1586
17126W        W33973  12.476  17.976  14.395 -0.2624  0.3582 -0.1705
17127W        W33974   4.357   5.101  14.223  0.3425 -0.1715  0.1204
17128W        W33975   2.439  17.615  11.998  0.0592 -0.0423  0.1269
17129W        W33976  10.227  18.055  15.003 -0.1166  0.0582 -0.1665
17130W        W33977  10.268   6.211  14.681  0.0355  0.1135 -0.1535
17131W        W33978  12.280  12.690  14.376 -0.1207  0.0483  0.3011
17132W        W33979   6.682   9.138   1.374  0.2797 -0.0581 -0.1563
17133W        W33980   3.792   6.220   3.862 -0.1168 -0.0200 -0.1394
17134W        W33981   1.694  10.044  15.343  0.2016  0.1116 -0.4073
17135W        W33982  17.035   9.495  11.500 -0.1263  0.2615  0.2080
17136W        W33983  13.661  13.089  14.355  0.1995  0.2599  0.2531
17137W        W33984  11.695  10.962  12.950 -0.0308 -0.0644  0.1011
17138W        W33985  14.002   0.446  13.443 -0.1385  0.1657  0.1002
17139W        W33986  10.356  12.407  11.342 -0.4078  0.0916  0.1036
17140W        W33987   2.776   4.137  12.238  0.0089  0.0091 -0.2602
17141W        W33988   1.912  11.682   2.321  0.1463  0.1945 -0.0276
17142W        W33989   0.541  11.919  14.276  0.3060 -0.1127 -0.0127
17143W        W33990   4.572   9.691   4.447  0.3250  0.0777 -0.0223
17144W        W33991  13.789   5.984   1.604  0.0446 -0.1302 -0.1359
17145W        W33992   5.662  12.123   3.953 -0.1098 -0.3812  0.0142
17146W        W33993   0.740   7.076  14.310  0.0844 -0.2533 -0.0357
17147W        W33994  17.413   7.332  14.197  0.1759  0.2331  0.0755
17148W        W33995  12.215   5.148   1.812 -0.0125  0.0852  0.0472
17149W        W33996   2.206   1.814   4.536  0.0654  0.0075  0.0142
17150W        W33997   1.894   6.496  14.286 -0.0281 -0.2498  0.0203
17151W        W33998   1.143  12.687   4.000 -0.2003 -0.0364 -0.1926
17152W        W33999   8.629   6.850  13.576 -0.2632  0.2857 -0.0340
17153W        W34000   1.625   2.658  14.966  0.2600  0.1131 -0.0974
17154W        W34001  16.580  13.242   2.129 -0.1060  0.1400 -0.0204
17155W        W34002   8.892   3.866   2.463  0.1485 -0.0483 -0.4714
17156W        W34003  11.976  14.676  14.956  0.1430 -0.1716 -0.1585
17157W        W34004   7.250  12.919  11.526 -0.0189  0.1281 -0.2794
17158W        W34005  11.898   0.220   0.139  0.0599  0.0598 -0.1366
17159W        W34006  17.575   9.506  16.517  0.1523  0.0549 -0.1350
17160W        W34007  15.389  13.518   5.347 -0.2182 -0.2605  0.0167
17161W        W34008  13.612   1.853  15.115  0.4118 -0.1655 -0.0066
17162W        W34009  12.686  16.971   0.603  0.3636 -0.1055 -0.0520
17163W        W34010   0.370   7.733   1.777 -0.1179  0.1301  0.1397
17164W        W34011  17.452  10.968  15.893  0.4062  0.0750  0.6114
17165W        W34012   7.547  12.130  16.293 -0.0734  0.0085  0.2424
17166W        W34013   0.586   6.468  15.338  0.1197 -0.1084 -0.1867
17167W        W34014  13.090  11.072   2.572 -0.1496 -0.0643  0.2185
17168W        W34015  16.845   2.521   0.241  0.3131 -0.2047 -0.1383
17169W        W34016   9.608   2.485   4.460  0.1053  0.2603 -0.4513
17170W        W34017   6.237   8.713   3.907  0.4453  0.0088 -0.2783
17171W        W34018  17.547   6.050   0.460 -0.1131  0.0938 -0.0573
17172W        W34019   4.570  11.281   4.961  0.2165  0.1420 -0.3955
17173W        W34020   7.993  12.700  12.103 -0.1380  0.2366 -0.0493
17174W        W34021   7.129   1.597  13.417 -0.0936  0.0376 -0.4831
17175W        W34022   9.105  16.074  14.046  0.0340  0.0645  0.1100
17176W        W34023   9.271  10.666  13.785  0.2017  0.0764 -0.1231
17177W        W34024  14.599   7.339  13.061  0.0395  0.1135 -0.0344
17178W        W34025  14.750   2.358   2.010  0.0968 -0.2290  0.1142
17179W        W34026  10.525   6.143  11.124 -0.2324  0.0795  0.3343
17180W        W34027   7.568   3.082   0.552  0.1795  0.1252  0.3154
17181W        W34028  11.038   2.460  11.330 -0.0049  0.2686  0.0382
17182W        W34029  11.487  14.456  14.720 -0.2786 -0.5319 -0.2636
17183W        W34030   3.662   8.352  16.053  0.0517  0.1202  0.1583
17184W        W34031   2.142   6.761   6.148  0.1147  0.2613  0.1522
17185W        W34032   2.031   1.363  12.382 -0.1921 -0.0098 -0.0635
17186W        W34033   7.559   1.549   4.004 -0.1181 -0.2795  0.1763
17187W        W34034  13.165  16.926  13.909  0.1150  0.1695  0.2527
17188W        W34035   3.622   6.922   4.478 -0.0930  0.0198 -0.0364
17189W        W34036   4.936   8.456  16.205  0.2287  0.1838 -0.1195
17190W        W34037   5.720   8.324  13.096 -0.2972  0.1041 -0.0490
17191W        W34038   4.114  12.351   0.088 -0.1439 -0.0055 -0.0768
17192W        W34039  16.576   0.730  13.278  0.0315 -0.1620  0.1240
17193W        W34040  12.751  13.006   5.175 -0.1215  0.1878  0.2699
17194W        W34041   2.948   6.509  16.542 -0.0731 -0.1047 -0.0788
17195W        W34042  10.763  10.508  11.323  0.0603  0.1686 -0.2080
17196W        W34043  14.036   9.874   2.544  0.2628  0.0303  0.4822
17197W        W34044  10.956   1.753   1.751 -0.2703 -0.2940  0.0113
17198W        W34045   8.254   2.174  15.054 -0.0725  0.1155 -0.0478
17199W        W34046  14.601  10.447   3.796  0.0171  0.0530 -0.0404
17200W        W34047   4.859  12.883  14.663  0.0107  0.1539 -0.1680
17201W        W34048  14.214   1.966  13.341  0.1619  0.2246 -0.1954
17202W        W34049  16.229  16.253   1.001 -0.0366  0.1005 -0.2536
17203W        W34050  15.041  13.983   6.090 -0.0775  0.0743  0.0805
17204W        W34051   5.557  17.786   4.998  0.1877  0.0482  0.0301
17205W        W34052  12.374  16.562   0.759 -0.1281 -0.1069  0.1730
17206W        W34053   9.968   7.257   4.729 -0.0376  0.2334  0.0510
17207W        W34054  17.801  14.388   0.657  0.0235 -0.1617 -0.0383
17208W        W34055   5.903   6.488   5.052 -0.0082  0.4264  0.2987
17209W        W34056   1.299   0.863   4.976 -0.0365  0.0629  0.0492
17210W        W34057  14.229  10.602   0.196 -0.1943 -0.0353 -0.0530
17211W        W34058   2.835   7.889   1.495  0.5096 -0.1064  0.2263
17212W        W34059  14.623   3.854  15.490 -0.0462 -0.0051 -0.1968
17213W        W34060   4.865   8.175   2.575 -0.0283 -0.1797 -0.3562
17214W        W34061   9.680   0.971   5.954  0.1894  0.1242  0.2100
17215W        W34062   2.305   1.975   0.933 -0.0675 -0.0017  0.0032
17216W        W34063   3.218   1.595   3.426  0.1490 -0.2894  0.0097
17217W        W34064  12.912  15.396   5.831 -0.0831  0.1437 -0.0929
17218W        W34065   7.893  14.860   1.812  0.1412  0.2220 -0.3293
17219W        W34066   6.127   8.115  14.735  0.2714 -0.1081 -0.1793
17220W        W34067  18.053  12.528  16.483  0.1072  0.1480 -0.1997
17221W        W34068  15.597  10.600  12.155  0.0397 -0.0419  0.2363
17222W        W34069   9.368   4.848   2.746 -0.3818 -0.0810 -0.0536
17223W        W34070   0.524   9.538   3.593  0.1868 -0.2796  0.0532
17224W        W34071   3.155  11.262   2.109 -0.0677  0.0829 -0.0765
17225W        W34072   2.086   6.737  13.080 -0.0462 -0.0447 -0.0589
17226W        W34073  11.681  15.310   2.969 -0.0535 -0.2974  0.0848
17227W        W34074   5.224  12.768   0.332  0.2231 -0.1225  0.0125
17228W        W34075   9.031  14.909  12.932 -0.2604 -0.2023  0.3731
17229W        W34076  11.904   1.194   0.536  0.0589  0.0406 -0.1910
17230W        W34077  12.658   3.355  13.663 -0.0502  0.3517 -0.0268
17231W        W34078  16.847  14.542  15.202  0.2613  0.0092  0.1317
17232W        W34079   3.427  17.200   4.708 -0.0436 -0.0037  0.2896
17233W        W34080   0.324   5.058  16.319 -0.1050  0.0281  0.0280
17234W        W34081   9.730   0.064  16.186  0.1658 -0.0607 -0.4699
17235W        W34082   0.365   2.794   1.063 -0.0366 -0.2168 -0.2432
17236W        W34083  11.050   2.091   2.311 -0.1740  0.0193  0.1792
17237W        W34084   7.231  15.297   4.829  0.0209 -0.0484  0.0147
17238W        W34085  17.784  11.449   0.731 -0.0897  0.1543  0.0609
17239W        W34086  13.310   7.955  16.581 -0.0486  0.0791 -0.1893
17240W        W34087   8.305   6.344  15.881  0.0065  0.1105 -0.3335
17241W        W34088   0.639  12.810  16.611 -0.0295 -0.0770 -0.0922
17242W        W34089   9.871   4.612  12.116 -0.0854 -0.0254 -0.2137
17243W        W34090  10.307  14.185   5.288 -0.0073 -0.0616 -0.0113
17244W        W34091  13.113  17.643  12.928 -0.3167 -0.0549  0.1290
17245W        W34092   2.847   4.789   2.147  0.1477 -0.1458  0.1025
17246W        W34093   4.040   8.687  15.993 -0.0528 -0.1619  0.4451
17247W        W34094   4.884  11.444  14.424 -0.3364 -0.1299 -0.0491
17248W        W34095   9.536  17.014  13.244  0.0698 -0.0928  0.2965
17249W        W34096  16.729  15.304   2.635  0.2031 -0.1060  0.1039
17250W        W34097   6.520  13.073  12.072 -0.2035  0.0513 -0.1431
17251W        W34098   0.909  17.920  14.867  0.2963  0.1007  0.1342
17252W        W34099   8.930   9.499  14.050  0.1803 -0.2519 -0.0195
17253W        W34100   5.655  17.569  16.535  0.0836  0.0085 -0.2553
17254W        W34101  14.597  10.436  16.043  0.2235  0.2473  0.2340
17255W        W34102   4.574   0.917   0.497  0.2177 -0.2009  0.0819
17256W        W34103   7.842  16.070   4.428  0.1566  0.1400 -0.3040
17257W        W34104   2.591   3.198   5.083  0.1407  0.1186 -0.0236
17258W        W34105  15.276   1.930   4.003  0.0877  0.2320 -0.1015
17259W        W34106  12.414   0.291   0.653  0.1144  0.0488 -0.1201
17260W        W34107   5.112   4.444  16.386  0.1057 -0.0327 -0.1416
17261W        W34108   4.405   3.714  14.114  0.0100 -0.1968 -0.1319
17262W        W34109  17.395   9.399  12.704 -0.2604  0.0792 -0.0173
17263W        W34110  15.108   9.072   3.003  0.0594 -0.1142  0.2855
17264W        W34111   1.659  16.273  16.268  0.0485  0.0748  0.1117
17265W        W34112  17.748   5.337  10.581  0.0875  0.0820  0.1875
17266W        W34113  17.660  12.921   3.591 -0.0718 -0.1965  0.0288
17267W        W34114  13.501   2.725  14.700 -0.3042  0.2561 -0.1157
17268W        W34115   1.808  16.195  14.901  0.2906  0.1287  0.3632
17269W        W34116  12.732   5.174   2.951 -0.0448 -0.2241  0.1589
17270W        W34117  11.159  10.478   5.830  0.4605  0.1396 -0.3709
17271W        W34118   2.736  10.911  12.253  0.3636  0.1346 -0.1825
17272W        W34119  15.505  11.002   1.204 -0.2881 -0.0246 -0.0330
17273W        W34120  13.843   5.174  14.314  0.0561  0.0350 -0.3548
17274W        W34121   6.274   3.138  15.794  0.0487 -0.0820 -0.0527
17275W        W34122   9.550   0.094  12.510  0.0566 -0.0385  0.0181
17276W        W34123  12.861   4.593  13.392 -0.2757 -0.2183  0.1987
17277W        W34124  14.999  11.027   3.185 -0.1225 -0.2877 -0.2921
17278W        W34125   3.010  15.908  12.622  0.0756 -0.1954 -0.0875
17279W        W34126   2.298   7.992   1.294 -0.0440  0.1491  0.0622
17280W        W34127  17.345   9.531  15.578  0.2672  0.3924  0.0962
17281W        W34128  11.018   7.593   4.684  0.1450 -0.1643 -0.2411
17282W        W34129   3.157   2.057   3.216  0.1143 -0.0019  0.1013
17283W        W34130  16.970   6.927   1.539  0.2939 -0.1492 -0.1616
17284W        W34131  14.708   4.140   0.326  0.1896  0.2604 -0.1006
17285W        W34132   3.001   3.894  14.012 -0.2622  0.0359  0.2946
17286W        W34133   4.157   4.464   3.259 -0.1450 -0.1685  0.3670
17287W        W34134  14.534   9.742  11.037 -0.0267  0.3560 -0.1783
17288W        W34135  14.873  12.282  16.361  0.2363 -0.0379  0.0812
17289W        W34136  10.342   9.780   3.636 -0.1756 -0.0629  0.0978
17290W        W34137   8.351  11.862   5.531 -0.1465  0.0567 -0.0981
17291W        W34138   2.865   3.336  13.810  0.0807 -0.0243  0.1350
17292W        W34139  13.818  14.576   4.080  0.0050 -0.2664 -0.1127
17293W        W34140   4.089   5.503  14.238  0.0605  0.0305  0.0964
17294W        W34141  11.777   0.138  12.876 -0.0616  0.2370  0.1044
17295W        W34142   7.777  11.745   2.930  0.1001  0.2267 -0.0887
17296W        W34143  15.207   5.144  16.208  0.0158 -0.0859 -0.0868
17297W        W34144  15.448  14.054   1.182  0.1731  0.1705  0.1701
17298W        W34145  16.059   6.495  14.533  0.3384 -0.1256  0.1164
17299W        W34146  18.013  18.020   3.958 -0.0424 -0.1121 -0.1968
17300W        W34147   2.556   0.371   4.574 -0.1076  0.2272 -0.0595
17301W        W34148   6.285  10.697  12.559  0.2479  0.1076 -0.0081
17302W        W34149   3.527  17.600   0.836  0.0104 -0.0352  0.2097
17303W        W34150  16.911   8.170  14.921 -0.1023  0.1321 -0.1625
17304W        W34151  10.604   2.349  13.255  0.0553  0.0630 -0.1739
17305W        W34152   7.228   1.404   1.338  0.1432 -0.4658 -0.1749
17306W        W34153   5.305   5.832  12.596  0.0234  0.2170  0.1942
17307W        W34154   1.739   2.045   0.204 -0.2655 -0.1067 -0.2707
17308W        W34155   1.159  15.445  13.107  0.0938  0.3806  0.1710
17309W        W34156   5.077   1.976  13.269 -0.0178 -0.1417  0.2342
17310W        W34157   2.289  14.299  12.002  0.0187  0.0793  0.1384
17311W        W34158   3.437   8.264   5.583  0.2061  0.2978  0.1275
17312W        W34159   3.023  15.483   4.689 -0.0946 -0.1533 -0.0697
17313W        W34160  15.183   3.917   3.437  0.1027  0.0927  0.0600
17314W        W34161   1.516   2.009  15.178  0.2157  0.2619  0.2107
17315W        W34162   8.282   2.647  15.854  0.0939  0.0940 -0.0933
17316W        W34163   4.546   6.271  11.032 -0.0971  0.1552 -0.1054
17317W        W34164  15.453   0.700   2.273  0.2175 -0.3861 -0.1944
17318W        W34165   3.181  11.741   3.462 -0.0392  0.0628 -0.1471
17319W        W34166  16.133   3.230  15.107  0.0340 -0.2682  0.0106
17320W        W34167   6.910  11.661   2.812  0.0726  0.2111  0.1733
17321W        W34168   3.162   1.378   2.479  0.0375 -0.0368  0.1415
17322W        W34169   1.491  11.101  12.395  0.1262  0.0177 -0.0276
17323W        W34170   4.280  10.785   3.719 -0.0744  0.0973  0.0200
17324W        W34171   1.875   7.202  11.996  0.1103 -0.2339 -0.0820
17325W        W34172   1.175   9.188   2.922  0.2735  0.2002 -0.1423
17326W        W34173   9.782   3.871  16.029 -0.0412  0.1742 -0.1644
17327W        W34174  14.193   3.955   2.516  0.0438 -0.2164  0.0388
17328W        W34175   0.397   6.888  12.947 -0.3014  0.1114 -0.0160
17329W        W34176  12.411   1.825  12.313 -0.1007  0.1568  0.0067
17330W        W34177   4.766   5.460   4.524  0.1525 -0.0004 -0.3907
17331W        W34178   2.022  16.131  11.610 -0.3806 -0.0769  0.0014
17332W        W34179   1.196   0.729  15.203 -0.1660 -0.0720 -0.0270
17333W        W34180  13.746  10.970  14.298 -0.2350 -0.1250 -0.0454
17334W        W34181   5.600   9.067  13.903  0.0453  0.1019 -0.2473
17335W        W34182   8.141  11.686  11.961  0.2353  0.1538 -0.0567
17336W        W34183  10.524   5.705   0.431  0.2253 -0.0264  0.0361
17337W        W34184   2.191  16.020  15.640  0.0983  0.3790  0.2844
17338W        W34185  12.600  16.047   0.482 -0.2190  0.1813 -0.0918
17339W        W34186  13.359   8.573   4.244  0.1389 -0.1961 -0.7223
17340W        W34187  10.548   6.345  11.631  0.1713 -0.3254 -0.2022
17341W        W34188   1.681   9.416   5.654 -0.3070 -0.0165 -0.1014
17342W        W34189   4.488  17.745   6.472 -0.1036  0.2994 -0.1958
17343W        W34190   8.336  10.646  11.633  0.2476  0.1457 -0.1963
17344W        W34191  15.264  11.696  15.108  0.1158 -0.4304  0.1472
17345W        W34192  16.517  16.286  12.547 -0.0558  0.2928  0.0045
17346W        W34193  11.516   3.523  12.176 -0.0176 -0.2938 -0.3193
17347W        W34194  15.496  12.410   0.257  0.2644  0.2461  0.1590
17348W        W34195  10.494  10.962  12.614 -0.1982 -0.0846 -0.0550
17349W        W34196   5.846  11.881   0.338 -0.0613  0.3179 -0.0243
17350W        W34197   9.193  13.696  15.198 -0.0391  0.1246 -0.1706
17351W        W34198   6.098   4.369  15.231  0.1208 -0.1322 -0.4771
17352W        W34199  13.034   4.861   0.223 -0.1327 -0.3147  0.0275
17353W        W34200   0.719  11.420   3.388 -0.2276  0.0745 -0.0215
17354W        W34201   2.131   4.683  11.928  0.0623  0.2034  0.0135
17355W        W34202  10.106   8.435   2.664  0.1431  0.2785  0.0623
17356W        W34203   6.331   5.660  11.150  0.1631  0.0333 -0.0673
17357W        W34204   6.152   1.161   5.572 -0.0748 -0.2921  0.0374
17358W        W34205   5.715  14.787   3.421 -0.1519  0.0530  0.0103
17359W        W34206   3.791   3.411   2.130 -0.1564  0.0523  0.0829
17360W        W34207  10.629   1.763   1.099  0.2989  0.2658  0.0923
17361W        W34208  11.333  13.331   1.061  0.3009 -0.1906 -0.1591
17362W        W34209  11.802   6.404  12.827  0.2057 -0.2214 -0.1737
17363W        W34210   9.037   9.682  11.233 -0.0052 -0.0042 -0.0874
17364W        W34211  15.997  13.676  14.462 -0.4242 -0.0314 -0.0276
17365W        W34212   5.934  13.372   4.027  0.2370  0.3467 -0.1093
17366W        W34213  14.326  12.895  11.247 -0.4006  0.0379 -0.0117
17367W        W34214  14.731   0.527  15.801  0.0983  0.0384  0.0341
17368W        W34215  11.397  16.205   3.708 -0.1683 -0.1115  0.0091
17369W        W34216   8.309   0.611   1.366  0.2348  0.0400 -0.1705
17370W        W34217  11.413   6.359   4.467 -0.0994 -0.0604  0.0885
17371W        W34218   3.216   5.383  11.694 -0.1238 -0.0617  0.2072
17372W        W34219   1.369   3.594   4.165  0.0195 -0.0618 -0.1705
17373W        W34220   1.096   8.176  16.459 -0.0817  0.1479  0.0282
17374W        W34221   3.456  12.510  14.461 -0.0114 -0.1456 -0.1688
17375W        W34222  10.440   5.925   3.728  0.0509  0.3700 -0.1801
17376W        W34223   7.029  15.262   1.721  0.1515 -0.0166  0.2892
17377W        W34224  15.639   4.000   1.066 -0.1536  0.5190 -0.0207
17378W        W34225  16.590   5.393  16.331 -0.1845  0.0248  0.2284
17379W        W34226   9.545  12.425   3.701 -0.3189 -0.1845  0.2592
17380W        W34227   7.819   5.532  15.919  0.1475 -0.1205 -0.0035
17381W        W34228  16.952   1.116  12.506 -0.0014 -0.0743 -0.3907
17382W        W34229   0.427  17.630  12.143  0.1386  0.0804  0.2813
17383W        W34230  14.891  10.443   5.064 -0.2775  0.1148 -0.1142
17384W        W34231  16.562   5.759   4.294 -0.0622 -0.0878  0.2205
17385W        W34232  13.751   1.070  15.089 -0.2537  0.0675  0.2719
17386W        W34233   3.181   8.066   3.021  0.1186  0.1026  0.3493
17387W        W34234   6.990   8.856   3.147  0.0579  0.0218 -0.2025
17388W        W34235   3.731   4.332   2.337  0.0724 -0.3634 -0.2229
17389W        W34236   5.501   3.603  14.276  0.1159  0.0138  0.1046
17390W        W34237   1.145  13.386   0.300 -0.3111  0.2830  0.0905
17391W        W34238   3.218  15.873   0.606 -0.0524 -0.1805  0.0491
17392W        W34239   2.564   4.980   3.925  0.0978 -0.1552 -0.0368
17393W        W34240   6.019  17.501  14.350  0.2202 -0.0199 -0.3356
17394W        W34241  14.745   4.341   4.731  0.2547 -0.2519  0.2062
17395W        W34242  10.630  13.440  13.231  0.0486 -0.1921  0.1561
17396W        W34243   9.864   0.749   6.351  0.1505 -0.0207  0.1467
17397W        W34244  16.314   4.185   1.696 -0.0316  0.1571  0.3177
17398W        W34245  15.248   6.990   1.276  0.3067 -0.4572  0.0782
17399W        W34246   7.695   0.453  14.023 -0.1514  0.0833  0.0593
17400W        W34247   2.956   1.301  15.253  0.0224  0.2010  0.1778
17401W        W34248  14.625  16.946   3.178 -0.0890 -0.1457  0.3973
17402W        W34249   7.192  14.404   0.554 -0.2355  0.0403 -0.1922
17403W        W34250   5.141  16.988  12.973  0.1023 -0.0726 -0.1186
17404W        W34251   2.117   5.988  14.410  0.2488 -0.2568  0.1167
17405W        W34252   0.671   0.216   1.530 -0.1030  0.2585  0.2281
17406W        W34253  13.303   7.180  16.042  0.4416 -0.0294  0.2787
17407W        W34254  17.023   0.197   3.985  0.0139  0.0145 -0.1579
17408W        W34255   0.458  14.303   0.615 -0.1394 -0.0202 -0.0383
17409W        W34256  14.618  16.317  14.432 -0.0046 -0.4453 -0.1899
17410W        W34257  13.768   2.375   2.900 -0.1066  0.1963 -0.2390
17411W        W34258  14.048   5.506   1.587  0.0334  0.2235  0.0722
17412W        W34259  10.635  16.381  12.371 -0.1290  0.0660  0.0935
17413W        W34260   0.772  10.551  15.418  0.1535  0.0598  0.1726
17414W        W34261   8.345   3.725   1.941  0.4096  0.1579  0.0056
17415W        W34262  11.602   0.751  12.162  0.2893  0.0540 -0.1253
17416W        W34263  16.988  11.273  13.558 -0.0276  0.0086 -0.1106
17417W        W34264  11.145  12.320   5.189  0.0191 -0.2215  0.1041
17418W        W34265   1.958  16.091   5.378  0.2979  0.1403 -0.3235
17419W        W34266   1.646   7.221  13.243  0.1688  0.1645  0.0702
17420W        W34267   0.438   5.223   1.273 -0.1077 -0.2181 -0.0629
17421W        W34268  17.264   8.461   4.740 -0.0044 -0.1045 -0.3611
17422W        W34269  13.449   8.997  12.860 -0.0121 -0.0624 -0.1859
17423W        W34270   0.551   0.791   4.122  0.1904 -0.0209  0.1099
17424W        W34271  12.274  16.249  12.865  0.1581 -0.4267  0.1547
17425W        W34272  11.348  12.800   3.847 -0.0212 -0.0858 -0.1160
17426W        W34273   2.456   0.819   0.060  0.0204  0.0577  0.0086
17427W        W34274   6.629  18.142   5.353 -0.1089 -0.0726  0.1244
17428W        W34275   8.193  13.041   6.227  0.1303  0.1551  0.1483
17429W        W34276   4.951  17.911   5.635 -0.1020  0.0455 -0.0768
17430W        W34277  12.173  11.237   2.781  0.1283 -0.0719  0.1306
17431W        W34278   4.401   8.323  14.261  0.0245  0.2434  0.0339
17432W        W34279  16.582  14.147  12.470 -0.0183 -0.0048  0.0615
17433W        W34280   2.508  17.682   5.790  0.1520 -0.0740  0.2908
17434W        W34281   3.858   8.081  11.920 -0.1944 -0.2687  0.1259
17435W        W34282  14.296  18.076  11.891  0.0703  0.0032 -0.3233
17436W        W34283   6.867  12.894  12.560  0.2329 -0.3232 -0.1453
17437W        W34284  11.959  16.329   5.960  0.0163 -0.1575  0.0790
17438W        W34285  10.981   8.423   3.854 -0.0440 -0.0372 -0.0344
17439W        W34286  14.992  16.296  15.221 -0.2310  0.1958  0.2291
17440W        W34287   9.083   9.172  11.445  0.1848 -0.1795  0.4075
17441W        W34288   5.614   2.356   2.010  0.0274 -0.3517  0.1126
17442W        W34289  17.376  12.203  16.125 -0.2819 -0.0236 -0.0138
17443W        W34290  12.542  13.010   3.212  0.0714 -0.1445 -0.1911
17444W        W34291   4.842  11.072   6.251  0.3990  0.2718  0.0347
17445W        W34292  10.299   5.296  13.362  0.0278 -0.1129  0.1793
17446W        W34293  12.591   4.218  15.642  0.1196 -0.3754  0.2927
17447W        W34294   8.646  18.061  14.428  0.0198 -0.0574 -0.1866
17448W        W34295  18.085  10.416  14.153  0.0935  0.3167  0.0966
17449W        W34296   4.988   0.510   4.534 -0.1196 -0.0124 -0.1297
17450W        W34297   6.138  17.672   1.797 -0.1845 -0.1892 -0.2163
17451W        W34298  14.262  14.783  15.715 -0.1087  0.1391  0.2000
17452W        W34299  17.397   0.858  12.494  0.1982  0.0783  0.0013
17453W        W34300  11.231   1.400  12.396 -0.1127  0.0617  0.0732
17454W        W34301   8.538  12.292   3.221  0.1072  0.0482  0.1689
17455W        W34302   0.360  11.277  11.876  0.2649 -0.0230 -0.1423
17456W        W34303  12.911  11.317   1.270 -0.3854 -0.0905  0.2386
17457W        W34304   3.276   4.245   5.353  0.0816 -0.3037 -0.2303
17458W        W34305   3.004  15.716  16.250  0.0461  0.1994  0.0394
17459W        W34306   4.765   2.812   4.860  0.1216  0.0584 -0.3313
17460W        W34307  10.532  17.215   2.670 -0.0054 -0.1947 -0.0082
17461W        W34308  10.289   9.327  15.937  0.1144 -0.0889  0.0704
17462W        W34309  17.173  10.990   3.573 -0.0925  0.3213  0.0149
17463W        W34310   1.716  10.358   5.441 -0.0510  0.0599 -0.1275
17464W        W34311   1.509   9.436  16.521 -0.1651  0.1743  0.1122
17465W        W34312  17.961   8.104  12.053 -0.2733  0.4318 -0.2091
17466W        W34313   1.275  13.097  13.350 -0.1190  0.0207  0.0126
17467W        W34314   6.966   5.721   2.340 -0.3626 -0.1397  0.0282
17468W        W34315  16.205  11.615  14.471 -0.2262 -0.2877  0.2535
17469W        W34316  12.631   2.623   2.577  0.3700  0.2010 -0.0839
17470W        W34317  12.681  12.174  16.046 -0.0401 -0.0728 -0.2166
17471W        W34318   8.256  10.154  12.851  0.0791  0.0031  0.0587
17472W        W34319  15.210  13.994   3.486 -0.2395 -0.0071 -0.2255
17473W        W34320  11.270   6.733  15.927  0.0864 -0.1738 -0.1343
17474W        W34321  14.747   4.849  11.620  0.1269  0.3107  0.1354
17475W        W34322  16.585   1.699  13.157  0.2327 -0.1736  0.2018
17476W        W34323   1.724  15.616   5.226  0.0745 -0.0036  0.0461
17477W        W34324  11.268   3.462   5.583  0.3704  0.0352 -0.1719
17478W        W34325   2.087  18.080  12.261  0.0504 -0.0345  0.2383
17479W        W34326  11.513  15.406   1.033  0.0553  0.1365 -0.2642
17480W        W34327   7.455  14.279  14.828  0.2233  0.2553  0.1668
17481W        W34328   3.301   9.934   0.474  0.1114  0.0462  0.0661
17482W        W34329   7.982  17.283  15.054  0.1983  0.0236 -0.0583
17483W        W34330  17.900   0.991  11.344 -0.1856 -0.2103  0.0735
17484W        W34331  16.301  10.826  15.302 -0.1328 -0.1487  0.3899
17485W        W34332   6.761  13.081   1.702 -0.0682  0.3296  0.3601
17486W        W34333   1.690   0.161  12.686 -0.1773 -0.2141 -0.1018
17487W        W34334  11.311  12.742   4.535  0.4586  0.0808 -0.1217
17488W        W34335  14.661  16.061   2.606  0.1632 -0.0342 -0.3217
17489W        W34336  10.328  10.124   0.526 -0.1825 -0.3072 -0.1330
17490W        W34337  11.630  15.834  15.450  0.1242  0.2114  0.0206
17491W        W34338   4.046   1.024  12.830 -0.1039  0.2469  0.0541
17492W        W34339  17.850  10.853   2.591  0.1631  0.1155 -0.2492
17493W        W34340  16.524   2.334   3.768 -0.0526 -0.1811  0.2146
17494W        W34341  13.935   3.266   1.649 -0.1598  0.0369 -0.1701
17495W        W34342  10.351  11.060   5.843 -0.0005 -0.3281  0.0548
17496W        W34343   6.882  15.833  16.375 -0.1225 -0.1404 -0.3433
17497W        W34344   8.876   5.699  14.325  0.3354 -0.2248 -0.1972
17498W        W34345  17.788   1.077   4.585  0.0270 -0.0073  0.0643
17499W        W34346   6.734  16.777  12.820  0.4627  0.1135 -0.1612
17500W        W34347  15.868   5.034  14.510 -0.2275  0.0672  0.0366
17501W        W34348  16.483  14.929  12.017 -0.0335  0.0984  0.0218
17502W        W34349   8.436  11.072   0.109  0.1449 -0.2980 -0.0945
17503W        W34350  11.813  16.749  11.256  0.1421 -0.0609 -0.4278
17504W        W34351   2.798  12.749   4.163 -0.0462  0.3190 -0.1421
17505W        W34352   6.632   9.694  14.360  0.0550 -0.1106  0.1795
17506W        W34353  13.752   0.824   3.330 -0.0588 -0.0707 -0.1125
17507W        W34354   4.831   0.489   0.529 -0.0048  0.0156  0.2713
17508W        W34355   5.675  15.109  16.490 -0.5350 -0.2522 -0.1106
17509W        W34356  10.623   4.081   0.917 -0.2139 -0.1717 -0.0703
17510W        W34357  15.515  13.553   0.641 -0.0596  0.3274  0.0062
17511W        W34358   4.275   7.003   2.406  0.2951  0.0962 -0.1265
17512W        W34359   4.614  10.454   4.175  0.2541  0.2262 -0.0284
17513W        W34360   2.805  14.113  15.366 -0.1262  0.2350  0.3656
17514W        W34361   4.585  15.194  12.400 -0.0453  0.0714  0.2553
17515W        W34362   6.941   8.678  13.591  0.2582 -0.1389 -0.0927
17516W        W34363  17.599   2.044   4.471  0.2840 -0.0092 -0.2887
17517W        W34364  17.919  15.213   3.195  0.0643 -0.4586  0.1689
17518W        W34365  17.333   9.767  11.892  0.0031 -0.0503  0.0799
17519W        W34366  11.147  14.376   2.601 -0.0303  0.0669 -0.0570
17520W        W34367   8.154   8.609   4.279  0.0498 -0.3218 -0.3726
17521W        W34368  16.954  13.772   0.581  0.0086  0.1686 -0.1885
17522W        W34369   1.036  14.984  13.324  0.0521  0.1004 -0.0534
17523W        W34370   7.331   0.822  14.042  0.2226  0.3104  0.0504
17524W        W34371   4.905   4.904   4.594 -0.0907  0.0459 -0.1959
17525W        W34372  10.386  10.596   3.196 -0.1149 -0.0589  0.1768
17526W        W34373   0.058   5.593   5.324  0.2877 -0.2500 -0.1194
17527W        W34374  15.741   2.804   5.260  0.1246  0.0475  0.1411
17528W        W34375   0.345   6.800   1.781  0.0435 -0.3161 -0.0754
17529W        W34376   0.729  17.213  14.734  0.1097  0.5922  0.0756
17530W        W34377  15.043   7.181   3.247 -0.3667  0.1217 -0.1085
17531W        W34378   0.829   2.225   2.265  0.2366  0.0265  0.1129
17532W        W34379  12.738   7.637   3.931  0.3728  0.0874 -0.1969
17533W        W34380   0.400  16.305   1.445  0.1044 -0.0395  0.0637
17534W        W34381  17.425   5.331  15.342  0.1627 -0.0783 -0.0651
17535W        W34382  12.836  11.673  14.977 -0.1570  0.2975 -0.1143
17536W        W34383  11.362  15.416   2.392 -0.0185 -0.3249 -0.1646
17537W        W34384   7.985   5.766   4.542  0.0790  0.4654  0.1994
17538W        W34385  16.199   2.932   4.525  0.1585 -0.0774  0.0187
17539W        W34386  16.903  18.065   0.778 -0.0572 -0.0863  0.1215
17540W        W34387   7.856  15.013  14.656 -0.0178 -0.2034 -0.1370
17541W        W34388   0.148   2.929   0.542 -0.0696  0.3508  0.1633
17542W        W34389  12.657  15.967   3.692 -0.1852  0.0032  0.1081
17543W        W34390   8.730  11.698   5.834 -0.1950 -0.3129 -0.1044
17544W        W34391  13.114  12.390  14.614  0.1528  0.1141  0.2522
17545W        W34392  14.654   9.387   0.115  0.0396 -0.1386  0.1226
17546W        W34393   7.688  13.357  12.691  0.2294 -0.4213 -0.0568
17547W        W34394   0.931   2.655   2.014  0.0369 -0.2131  0.0759
17548W        W34395   1.939  13.342  15.612  0.0817  0.1055 -0.1201
17549W        W34396   5.791  10.162   1.334  0.0355 -0.2693  0.1055
17550W        W34397  17.043   9.467   4.586 -0.0316  0.0593  0.1070
17551W        W34398  14.735  11.275   3.730 -0.0994 -0.0534 -0.0551
17552W        W34399   4.751   4.561   1.014 -0.0750 -0.2013 -0.1916
17553W        W34400  14.857   8.229  12.105 -0.0961  0.0799 -0.2507
17554W        W34401   3.201   1.186   3.072 -0.0092 -0.3878 -0.0701
17555W        W34402  11.539   7.968  12.035  0.1088  0.3153  0.0689
17556W        W34403   7.706   7.291  15.560  0.0123  0.1888  0.1400
17557W        W34404   3.546   3.339   5.286  0.2507 -0.0569  0.2583
17558W        W34405   3.735  16.893  14.938  0.1098  0.2086 -0.0580
17559W        W34406  13.938   1.246   1.638 -0.0056  0.0199  0.2879
17560W        W34407  16.910   8.014   4.748 -0.4373  0.2794  0.0320
17561W        W34408  12.193  11.860  11.790  0.3069 -0.0224 -0.0491
17562W        W34409   2.996   5.166  15.480 -0.2845  0.0420  0.3643
17563W        W34410  13.840  15.028  16.163  0.0383 -0.0395  0.1007
17564W        W34411  17.881   6.757   5.168 -0.1819 -0.2068 -0.0734
17565W        W34412  16.009   4.518  14.391  0.0530  0.1551 -0.0731
17566W        W34413  11.982   8.652  14.601 -0.1395 -0.0748 -0.0320
17567W        W34414  16.951  12.555   5.161 -0.3775  0.1074 -0.2048
17568W        W34415  15.894   7.868   2.115  0.1379  0.0957  0.3008
17569W        W34416   0.207   4.365   4.926 -0.1066  0.2285 -0.2416
17570W        W34417   7.664   0.810   5.336  0.1456  0.5486  0.0068
17571W        W34418   8.921   0.298   4.550 -0.4015  0.0122 -0.2708
17572W        W34419   1.190   5.844   2.026  0.5329  0.0341 -0.0684
17573W        W34420  11.830   4.483   0.382 -0.0405  0.1581 -0.1310
17574W        W34421   0.175   9.123   1.214  0.2975  0.1944 -0.2924
17575W        W34422  10.119  17.381   3.297  0.1557  0.3578  0.1047
17576W        W34423  15.126  16.370   3.538  0.1624 -0.0835  0.2333
17577W        W34424   5.593  17.245   5.170 -0.1548  0.0863  0.0740
17578W        W34425   2.852  13.568  16.055 -0.1292  0.1348 -0.0013
17579W        W34426   7.295  13.483  15.095  0.0715  0.1884 -0.1891
17580W        W34427  12.928  12.282   5.621 -0.1808 -0.1331  0.4281
17581W        W34428   1.605   8.058  11.906  0.2063  0.3906 -0.1937
17582W        W34429   9.946  13.974   4.866 -0.2794  0.0260 -0.0513
17583W        W34430   2.415  14.311  14.945  0.4032 -0.0362  0.0547
17584W        W34431   9.301   7.668   5.662 -0.0725 -0.1156 -0.0190
17585W        W34432   2.732   7.497  11.446 -0.0701  0.2173 -0.0422
17586W        W34433   9.449   0.418  14.255 -0.0005  0.0768  0.0354
17587W        W34434  12.899   4.666   0.689 -0.1430 -0.1163  0.1894
17588W        W34435   6.606   3.484  13.689 -0.1275  0.0361  0.0099
17589W        W34436  16.470  12.947   5.528 -0.0376  0.2963  0.1678
17590W        W34437   4.883   3.043  15.955  0.2712  0.1577 -0.0022
17591W        W34438   6.120   3.996  14.950  0.2535  0.0051  0.0587
17592W        W34439   5.205   6.493   5.584 -0.0097 -0.0599  0.1287
17593W        W34440  16.229  16.269  12.971  0.0019  0.1110  0.1776
17594W        W34441   1.431   8.793   3.073 -0.0078 -0.1226  0.0628
17595W        W34442   7.925   6.749  14.809 -0.2125 -0.2488  0.1229
17596W        W34443   7.531  15.695   4.466  0.1831  0.1155  0.0709
17597W        W34444   4.331  14.104   4.305 -0.2903  0.2275 -0.0521
17598W        W34445  10.063   5.239  12.749 -0.0506 -0.0574 -0.2174
17599W        W34446   7.856   2.875  16.063 -0.0762 -0.0916  0.0347
17600W        W34447  13.315  14.795   1.137  0.0266  0.2171  0.2816
17601W        W34448  17.414   1.041  15.351 -0.1860  0.2105 -0.0991
17602W        W34449  16.084   1.612  13.960  0.0794  0.0421 -0.4949
17603W        W34450   2.981   8.973  15.985 -0.2344 -0.0783 -0.1020
17604W        W34451   1.765  15.141   4.384  0.0016  0.0647  0.1431
17605W        W34452  10.116  13.501   2.678  0.2796  0.1685  0.0016
17606W        W34453  13.531   1.299  11.283 -0.0069  0.0665 -0.3936
17607W        W34454   5.417  15.810  13.284  0.2949 -0.0744  0.1637
17608W        W34455  13.992   0.232  11.710  0.0384 -0.1295  0.4019
17609W        W34456  10.927   8.536  14.034 -0.1563  0.3484 -0.1527
17610W        W34457   7.361   1.208   5.546  0.2244 -0.0355 -0.1961
17611W        W34458  16.171   5.981  13.640 -0.2368 -0.0024  0.0387
17612W        W34459   2.885  14.666  12.287 -0.7853  0.3717 -0.2618
17613W        W34460  17.424   7.266   2.409 -0.0893  0.0971 -0.1537
17614W        W34461  16.947   6.726   3.315  0.1613  0.2467 -0.0179
17615W        W34462   1.647  11.284   1.422 -0.2916 -0.0737  0.1588
17616W        W34463  13.620   4.934  12.962 -0.0755  0.0404 -0.0877
17617W        W34464  17.863  12.763   2.674  0.2421 -0.0915 -0.0415
17618W        W34465   4.016  14.201   3.553 -0.0227  0.0244 -0.0455
17619W        W34466   7.864  16.837  11.858 -0.1949  0.4377  0.2139
17620W        W34467   2.471   4.316   4.237 -0.0262  0.1101  0.1368
17621W        W34468   1.204   1.672  15.803  0.4345  0.2022  0.2121
17622W        W34469   6.118   2.181   1.995  0.0467  0.1191  0.1536
17623W        W34470   4.139   4.764  15.438  0.1119 -0.2608 -0.0268
17624W        W34471   4.624   7.520  16.427 -0.1241 -0.2967 -0.0874
17625W        W34472  17.805  14.231   4.140  0.1345 -0.4362 -0.0542
17626W        W34473  12.413  16.262  12.315 -0.3976 -0.1366 -0.0076
17627W        W34474   2.700   5.115  14.333  0.3116 -0.1206 -0.0194
17628W        W34475  15.708  15.218   2.414  0.0080 -0.0053  0.2353
17629W        W34476   4.592  14.798   5.378 -0.2530 -0.1175 -0.2053
17630W        W34477  17.665   5.424  14.842  0.0956 -0.0237 -0.1452
17631W        W34478  10.249   6.110   1.803  0.1667  0.2277  0.0001
17632W        W34479  16.670  14.952   4.275 -0.1160 -0.0468 -0.0172
17633W        W34480  17.434  15.016  12.972  0.1300  0.1649  0.2631
17634W        W34481   6.100  10.984   1.736  0.3196 -0.1905  0.1417
17635W        W34482  16.640  16.927   4.551  0.2335  0.4831 -0.2078
17636W        W34483   5.074  11.189  13.929 -0.0505 -0.0982 -0.3655
17637W        W34484  15.948  14.717  11.924  0.0759 -0.0889 -0.0359
17638W        W34485  14.602   6.507  14.713  0.0101 -0.1416 -0.2299
17639W        W34486  17.955  10.937  15.279  0.0353 -0.0754  0.0385
17640W        W34487   1.687   5.508   3.656 -0.0916  0.0756  0.2534
17641W        W34488  11.422   6.062  12.686  0.1142 -0.2162  0.2396
17642W        W34489   7.372   2.736   5.486 -0.2226  0.2161  0.0966
17643W        W34490   0.241  13.578   3.584 -0.0332 -0.1806 -0.1570
17644W        W34491  17.909  18.106   5.132 -0.2540 -0.2916  0.0877
17645W        W34492  10.505   0.708   4.471 -0.3884  0.0521  0.0313
17646W        W34493   5.610   8.103  13.569 -0.1494 -0.3021 -0.2505
17647W        W34494  15.446   2.255   3.499 -0.1407 -0.2979 -0.2265
17648W        W34495   0.452  14.946   4.603  0.0025 -0.0937 -0.0518
17649W        W34496  17.563   5.593  14.361 -0.1502 -0.1852 -0.2607
17650W        W34497   5.093  15.496   1.411 -0.1679 -0.1433 -0.0713
17651W        W34498  10.489   9.165  13.638 -0.0242  0.2653 -0.0643
17652W        W34499  15.507  13.639  13.805  0.2500  0.1154  0.2491
17653W        W34500  10.077  15.404  14.145 -0.2181  0.1071  0.0799
17654W        W34501   6.693   4.852   2.381  0.2746 -0.1672  0.0339
17655W        W34502   6.585   4.036   0.330 -0.0583 -0.0074 -0.1345
17656W        W34503   0.016  17.409   2.713  0.0150  0.0814  0.2073
17657W        W34504  18.046  13.869  12.488  0.0894 -0.1142  0.3881
17658W        W34505  16.651   8.404  12.239  0.1128  0.0358 -0.2056
17659W        W34506  14.745   5.308   5.484  0.0571 -0.1157  0.2473
17660W        W34507  13.487  16.768   1.113  0.0947  0.0051 -0.1346
17661W        W34508   6.088   9.110  13.660 -0.3603 -0.1796 -0.0488
17662W        W34509   6.714   9.823   5.522  0.2434  0.0567 -0.0959
17663W        W34510   1.586   3.119   6.008  0.2457  0.0814  0.0741
17664W        W34511  16.359   5.782   2.454  0.1929  0.3074 -0.1316
17665W        W34512   4.563  16.823  14.471  0.0401 -0.2358 -0.1966
17666W        W34513  13.022  15.627  16.291  0.0250  0.1476 -0.0771
17667W        W34514   9.034  15.303  12.579 -0.0281 -0.2990 -0.0647
17668W        W34515  12.483  10.306   4.982  0.1292 -0.1999  0.2937
17669W        W34516   2.401   6.384  12.780  0.2667  0.2134  0.0741
17670W        W34517   8.901   1.433  13.902  0.0541 -0.1675 -0.0444
17671W        W34518   3.313   1.119  14.520  0.0435  0.0719  0.1253
17672W        W34519  17.778   4.556   2.986 -0.0699  0.2847 -0.1680
17673W        W34520   1.464   5.641   4.923  0.1640  0.2534 -0.1386
17674W        W34521   6.511  14.946  12.979  0.1018  0.2953  0.2361
17675W        W34522   3.147   6.725  15.746  0.0871  0.2949  0.0308
17676W        W34523   8.512   5.264   2.351  0.1661 -0.1606 -0.1299
17677W        W34524   2.567   9.190  15.820 -0.3749 -0.1924  0.2863
17678W        W34525  15.495  13.815  15.851  0.2173 -0.0079 -0.0573
17679W        W34526  13.402   4.999  16.342 -0.0565  0.0791 -0.1009
17680W        W34527   6.189   7.493   0.578  0.0439  0.0069 -0.1840
17681W        W34528  17.385  15.965   1.253 -0.0045 -0.0846  0.1451
17682W        W34529   5.252   5.567   3.818  0.0320  0.0035 -0.0311
17683W        W34530   9.761   0.274   2.112  0.0605  0.2172 -0.1275
17684W        W34531   5.568   5.319  16.102 -0.2099  0.0205 -0.0525
17685W        W34532   3.044  15.409  12.957  0.2060 -0.1781  0.1463
17686W        W34533   1.638   8.653   2.286 -0.0022 -0.0165  0.1439
17687W        W34534  15.579   6.346  12.682  0.3206 -0.1897 -0.3307
17688W        W34535   9.240   0.950   0.945  0.3500 -0.0700  0.1335
17689W        W34536  11.403  17.129   5.435 -0.2472 -0.2215 -0.3761
17690W        W34537   3.770  12.205  13.665  0.2191 -0.3576 -0.2612
17691W        W34538   8.695   0.171   2.546 -0.0441 -0.2282 -0.0078
17692W        W34539  13.908  10.646   5.567 -0.2268  0.0927 -0.1929
17693W        W34540   3.822   1.508  13.709  0.1616  0.0280 -0.1051
17694W        W34541   6.322   1.644  13.795 -0.0701 -0.4424  0.0982
17695W        W34542  12.905  12.112  15.146 -0.1530 -0.2494  0.0751
17696W        W34543   2.982   2.265  15.430  0.1165 -0.2227  0.2476
17697W        W34544   2.445   8.711  12.167  0.0049  0.1707 -0.1241
17698W        W34545  14.462   0.918   0.538  0.0070  0.0079  0.2149
17699W        W34546   0.080  11.634   0.439 -0.0087 -0.0867 -0.0745
17700W        W34547  15.125   1.641   1.743 -0.0805 -0.0563  0.0535
17701W        W34548  11.909   3.002   5.084 -0.1270  0.0635  0.0606
17702W        W34549  15.747  17.827  11.672  0.1598  0.0310  0.0998
17703W        W34550   6.075  14.796  15.336 -0.1021  0.1724  0.2349
17704W        W34551   2.351  13.577  15.965  0.1920 -0.0211 -0.0913
17705W        W34552  18.065  10.909   1.957  0.0473 -0.0878 -0.1987
17706W        W34553   1.688   1.266   0.537  0.0694  0.2761  0.1431
17707W        W34554  13.957   5.097   2.470 -0.0275 -0.2239  0.0208
17708W        W34555   3.679   2.698   4.438 -0.2499  0.1043 -0.3677
17709W        W34556  17.243   2.535   0.652  0.2622 -0.0371 -0.1474
17710W        W34557   0.620   1.833   4.188  0.0283 -0.0255 -0.0636
17711W        W34558   4.548   0.739   2.247  0.2911  0.0906 -0.0169
17712W        W34559   1.618  10.042  13.360 -0.1203 -0.0760 -0.2027
17713W        W34560  12.296  12.783   1.244  0.2876 -0.3185  0.0850
17714W        W34561   0.591   8.166  11.465  0.1647  0.2671  0.0923
17715W        W34562   3.313   3.794  14.392 -0.0232 -0.2007 -0.1641
17716W        W34563  16.777  13.898  12.855 -0.2930  0.1619 -0.3670
17717W        W34564  15.418  17.354   5.595 -0.2553 -0.1480 -0.0289
17718W        W34565   9.344   3.843   0.251  0.1356  0.0845 -0.3179
17719W        W34566   7.070  12.321  12.797  0.1557  0.2744 -0.3597
17720W        W34567  13.671   5.022  15.918  0.1091  0.1531  0.3695
17721W        W34568   3.181  17.064  12.533 -0.0244  0.0827  0.0814
17722W        W34569  14.509  11.270   3.329  0.3214 -0.1995  0.0487
17723W        W34570  12.309   8.250  15.317 -0.0788 -0.1162 -0.2923
17724W        W34571  16.805  15.732  13.792 -0.1213  0.0351  0.1139
17725W        W34572   1.690  11.965  13.259 -0.1769  0.1953  0.2660
17726W        W34573   2.609   2.105   3.043  0.1835  0.0908  0.0641
17727W        W34574   2.363  12.518  13.871  0.0502  0.2223 -0.0915
17728W        W34575   3.663  14.821   2.988 -0.0033 -0.0222 -0.0595
17729W        W34576  14.837   3.061  12.789 -0.2267  0.0046 -0.1345
17730W        W34577   4.886   5.904   1.654 -0.0270  0.1390 -0.1684
17731W        W34578  14.445  12.070   1.699 -0.2182  0.3689 -0.1253
17732W        W34579   1.097   1.116   1.145  0.0551  0.0796  0.1578
17733W        W34580   8.530   0.883  15.098 -0.0571 -0.0793  0.2205
17734W        W34581  16.265  10.785  13.913 -0.0726 -0.2987 -0.1692
17735W        W34582   4.221  15.724   1.250 -0.0095  0.3506 -0.4319
17736W        W34583   4.914  13.860  11.789 -0.1659  0.1057 -0.0823
17737W        W34584  13.614   0.363  13.785 -0.1809 -0.1227 -0.1100
17738W        W34585  16.877   9.565  15.791  0.0467  0.2654 -0.1951
17739W        W34586  17.395  14.162   3.798 -0.0357 -0.0807  0.1923
17740W        W34587   1.128   0.263  11.369  0.0705  0.0660 -0.1071
17741W        W34588   7.801   6.763  15.755 -0.0778  0.0416 -0.0638
17742W        W34589  13.527   9.987  12.009  0.1761 -0.1654  0.1170
17743W        W34590   0.387   1.847  13.937 -0.2506  0.1350  0.0346
17744W        W34591  16.874  17.405  13.993 -0.1252 -0.0992  0.1234
17745W        W34592   4.100   3.809   1.156 -0.1465  0.0647 -0.0379
17746W        W34593  16.108  14.247  13.380 -0.0782  0.1537 -0.0517
17747W        W34594   7.230   0.898   1.354 -0.1544 -0.3582 -0.0732
17748W        W34595   3.922  16.829  16.176 -0.3197  0.1720 -0.1510
17749W        W34596   0.343   5.014   2.104  0.0924  0.0970 -0.1253
17750W        W34597   4.490  10.912  15.044  0.1050  0.1835  0.2875
17751W        W34598  15.411   1.855   2.443  0.1100 -0.2127 -0.3656
17752W        W34599  12.220   2.002   2.793  0.1471 -0.0365 -0.0060
17753W        W34600   1.590  13.054   0.193 -0.0620  0.2510 -0.2017
17754W        W34601  14.671  12.290   5.345  0.1543 -0.1077  0.2594
17755W        W34602   1.066  15.768  14.386 -0.2148  0.0678 -0.0114
17756W        W34603  11.951  12.470  13.778 -0.1616  0.0909  0.1283
17757W        W34604   7.367   3.828   2.042 -0.0384  0.0191 -0.2026
17758W        W34605  11.749   9.510   0.953 -0.1692 -0.0646 -0.1178
17759W        W34606  13.956  12.483  12.156  0.0682  0.3798  0.0707
17760W        W34607  14.390  11.485  15.000  0.3227 -0.1415  0.0901
17761W        W34608   3.279  10.130   5.883  0.0497  0.3110 -0.2421
17762W        W34609  13.108   6.699  15.964  0.1161  0.2543  0.2663
17763W        W34610  12.276  14.760  12.013 -0.2744  0.1379 -0.0494
17764W        W34611   2.452   3.281   3.285 -0.1285 -0.1071 -0.2510
17765W        W34612   8.718   6.507   1.848 -0.0173  0.2717  0.2630
17766W        W34613   4.325  16.259  16.467 -0.3944  0.0829 -0.3367
17767W        W34614   0.818  10.773   1.664 -0.2226 -0.0375 -0.1686
17768W        W34615   9.772  17.220  11.992 -0.1307 -0.1280  0.1362
17769W        W34616   4.930   8.212  12.799 -0.0238 -0.2191  0.0656
17770W        W34617   7.143  13.839   3.729 -0.1517  0.0692 -0.0653
17771W        W34618  12.069  12.505   0.382 -0.0063 -0.0552 -0.0545
17772W        W34619  10.382   3.569   3.556 -0.0559  0.2687  0.2539
17773W        W34620   1.553   7.168   1.394 -0.3498 -0.0360  0.2515
17774W        W34621  16.268  14.607  15.989 -0.0890  0.0973 -0.4218
17775W        W34622  13.591  17.063  11.663 -0.2921 -0.0304 -0.1460
17776W        W34623  14.764   9.982   3.701 -0.2247 -0.0964  0.1160
17777W        W34624   5.295   1.135  14.770  0.3426  0.0932 -0.1782
17778W        W34625   4.620  15.428   1.418 -0.0090  0.2237 -0.1930
17779W        W34626   5.774   8.586   3.985 -0.0901  0.3235  0.0368
17780W        W34627   8.879  14.546   1.825  0.0607  0.0931 -0.1673
17781W        W34628  11.930   9.480   1.944 -0.1119 -0.1977  0.0435
17782W        W34629  14.791  12.601  13.792 -0.0548 -0.0455 -0.0193
17783W        W34630   5.472   2.758  14.579  0.2416  0.2457  0.3237
17784W        W34631   7.333  13.995  14.237  0.0652  0.1992  0.1423
17785W        W34632  12.675  11.318   6.045 -0.1395 -0.1302  0.0642
17786W        W34633   8.647  14.794  11.929  0.1442 -0.1513 -0.0627
17787W        W34634   9.585   3.150   0.931 -0.1462  0.2661  0.2539
17788W        W34635  13.738   5.986   5.286  0.0911 -0.1639 -0.0400
17789W        W34636   0.066  16.355   2.572 -0.0471 -0.0673 -0.0685
17790W        W34637   4.813  10.215   2.209  0.1260 -0.0837  0.1488
17791W        W34638   0.027   2.517  14.837  0.4060  0.1247 -0.0714
17792W        W34639  16.589   3.169  13.314  0.0923 -0.0023 -0.0921
17793W        W34640  18.150  16.842   3.908  0.3994  0.2927 -0.0893
17794W        W34641   0.995   9.624   4.737  0.2852 -0.0124 -0.1705
17795W        W34642   8.904  10.027   3.254  0.1595 -0.2767  0.0092
17796W        W34643  15.994  13.160  14.340 -0.0292  0.4147 -0.1089
17797W        W34644   2.844   2.394  13.714 -0.3968  0.2136 -0.1346
17798W        W34645  16.167   3.272   4.906  0.2804 -0.0204 -0.0078
17799W        W34646   6.418   3.643   2.269 -0.3384  0.2706  0.3689
17800W        W34647   0.790   0.099  15.804  0.0154 -0.0605 -0.2690
17801W        W34648   6.133   7.571  15.249  0.0227 -0.0202 -0.1631
17802W        W34649  15.003   6.470   0.494  0.3443 -0.0344 -0.3881
17803W        W34650  15.067   5.486   1.902 -0.1989  0.0745 -0.1292
17804W        W34651   4.545  15.945   3.488 -0.1000  0.1280  0.2010
17805W        W34652   0.284  17.213   1.763  0.0088  0.0065  0.1319
17806W        W34653  16.689   1.263   5.227 -0.0114  0.1892  0.0377
17807W        W34654   1.339  13.468   6.267  0.0821  0.0214 -0.0733
17808W        W34655   6.064   4.495  13.718 -0.2051 -0.0541  0.1454
17809W        W34656   7.111  16.472   4.015 -0.0915  0.1250  0.0165
17810W        W34657  10.514  10.566  12.260 -0.0088 -0.2867 -0.0660
17811W        W34658   6.302   4.418  16.042 -0.2995 -0.2125 -0.0187
17812W        W34659   7.773  15.198  16.152  0.3458  0.2848  0.1272
17813W        W34660  16.082   3.406  14.543  0.1528 -0.2483 -0.0780
17814W        W34661  14.200  11.675   1.641  0.1665  0.2045 -0.0622
17815W        W34662   8.944   3.508   1.017  0.1714 -0.0845  0.0460
17816W        W34663   6.566   8.278   1.644 -0.2143 -0.2149  0.2798
17817W        W34664  14.086  15.471  16.402  0.1893 -0.0475 -0.0556
17818W        W34665   9.288   8.818  11.184  0.1781 -0.0821 -0.0622
17819W        W34666  13.646   6.832  14.235  0.0479 -0.0136 -0.3364
17820W        W34667  10.900  16.239   4.497 -0.1342  0.0093  0.0799
17821W        W34668  14.960  13.636  12.473  0.0348 -0.2669 -0.3148
17822W        W34669   6.781  16.587   0.112 -0.0832  0.0614 -0.0292
17823W        W34670   3.703   7.805  13.168 -0.1033 -0.2258 -0.3350
17824W        W34671  10.545   8.256   0.887 -0.0995  0.1394  0.0468
17825W        W34672  11.950   7.252  12.523  0.0024 -0.0391 -0.0946
17826W        W34673  14.551  12.436   2.194 -0.0502 -0.1680  0.1276
17827W        W34674   8.207   4.399   4.815 -0.0863  0.0016 -0.1813
17828W        W34675   6.389  17.419   1.406 -0.0738 -0.0404  0.0040
17829W        W34676  18.032  16.092  14.320 -0.0125 -0.3700  0.4043
17830W        W34677   9.097  14.714   3.949  0.4518 -0.2364  0.5433
17831W        W34678  12.245  15.103   3.869 -0.0404  0.4029  0.2210
17832W        W34679   3.391   5.646   0.520  0.0718  0.0535 -0.1912
17833W        W34680  14.119   3.176  11.308 -0.0672 -0.0389 -0.1064
17834W        W34681   4.116  11.436   5.527  0.0229  0.1935  0.2910
17835W        W34682  18.083   5.015   0.511  0.0520 -0.0040 -0.2318
17836W        W34683  14.597   1.677   1.128 -0.2996 -0.1772  0.2699
17837W        W34684   1.948  13.605  13.510  0.0161 -0.0855  0.1320
17838W        W34685  14.628  15.868  15.363  0.2697 -0.0759 -0.0654
17839W        W34686   1.854   4.457  12.361  0.1083  0.0550 -0.2960
17840W        W34687  16.281   0.541   5.250  0.0392  0.1934  0.1833
17841W        W34688  13.075   8.750   2.298  0.1231 -0.1828  0.1093
17842W        W34689   1.593  17.763   6.420 -0.0218 -0.1501  0.1204
17843W        W34690  15.031   5.627  14.314 -0.1683  0.3180  0.0711
17844W        W34691   8.279  13.785  14.651  0.1309 -0.2634 -0.1217
17845W        W34692   5.847  15.612  14.087 -0.1617 -0.0392  0.1414
17846W        W34693   9.874  11.776  12.400  0.1024 -0.1968  0.1292
17847W        W34694   5.781   8.807  15.136 -0.1928  0.0984  0.2622
17848W        W34695  14.643  16.560   2.810 -0.2784  0.3352  0.1351
17849W        W34696  10.432   7.617   5.152  0.0053 -0.0229 -0.1634
17850W        W34697  12.149  10.213  11.667  0.1631 -0.1729 -0.1369
17851W        W34698   1.118  16.492   1.769 -0.1026  0.2758  0.2802
17852W        W34699   1.111   1.294   0.530 -0.2043 -0.1897  0.1093
17853W        W34700   3.046   0.447  16.180  0.0439  0.0474  0.1859
17854W        W34701   1.774   7.215  16.140  0.1099 -0.0889  0.1681
17855W        W34702  15.801  11.878  16.241  0.0287 -0.0088 -0.0122
17856W        W34703   0.696   9.005   4.509 -0.0121  0.0683 -0.0790
17857W        W34704   9.943  16.242  14.590 -0.0541 -0.1359  0.2214
17858W        W34705  13.263  17.545  14.619 -0.1389 -0.1615 -0.0902
17859W        W34706   6.225  15.338  14.413 -0.1419  0.2352  0.1043
17860W        W34707  12.832   2.065   5.941  0.0528 -0.3543 -0.0045
17861W        W34708   3.976   2.873   0.737  0.0564  0.0229  0.1902
17862W        W34709   5.340   6.798  16.039 -0.1434 -0.2938 -0.0910
17863W        W34710   2.625   7.302  10.952 -0.1556 -0.0604  0.2376
17864W        W34711  15.212   9.772   1.323  0.0659 -0.1522 -0.1588
17865W        W34712  15.279   8.707   2.217 -0.0507 -0.1371 -0.0513
17866W        W34713  13.257   2.614   3.213 -0.1131 -0.0562  0.3403
17867W        W34714  11.318  12.375  15.270 -0.0398 -0.0385 -0.0727
17868W        W34715   4.913  11.928   3.169  0.0876 -0.0373  0.2093
17869W        W34716   9.582   6.744   3.453  0.0819  0.2175 -0.2308
17870W        W34717   4.727  17.645   3.062 -0.0106  0.2086  0.1962
17871W        W34718   0.950  18.036   5.181  0.1656  0.0222  0.4470
17872W        W34719  10.596  12.020  16.487 -0.1408  0.2861 -0.0315
17873W        W34720   9.558  12.355  15.624  0.3319 -0.1838 -0.3076
17874W        W34721   9.473  17.906   3.826  0.1421  0.0595 -0.1856
17875W        W34722  13.127   5.142   0.756 -0.1062  0.1137  0.0059
17876W        W34723  12.706   8.051   5.571  0.0394 -0.1241 -0.1705
17877W        W34724  13.996  13.199   1.023 -0.3839  0.0586 -0.0890
17878W        W34725  15.841  16.905  13.899  0.3254  0.0100 -0.3624
17879W        W34726  13.297   5.977  14.166  0.1171  0.1826 -0.2138
17880W        W34727   7.905   3.246  12.662 -0.0819 -0.0014  0.2623
17881W        W34728   1.549   0.735   4.155 -0.1433  0.2083  0.0233
17882W        W34729   3.378   5.380   1.299 -0.1850  0.1682  0.2733
17883W        W34730   5.457   5.319   1.320  0.3275 -0.1004  0.1557
17884W        W34731  14.178   9.818  12.101  0.1834  0.1494 -0.1255
17885W        W34732   9.183  17.515   2.849  0.0615 -0.1971  0.1125
17886W        W34733   4.983   5.054   2.598  0.0588 -0.0192  0.2031
17887W        W34734  11.129   4.077  15.380  0.1332  0.0311  0.2182
17888W        W34735  10.836  16.620  13.249 -0.2490 -0.0643 -0.1864
17889W        W34736  17.853   2.211  12.573 -0.0483 -0.2887  0.0955
17890W        W34737  13.507   4.489  12.855 -0.0914  0.0290 -0.0323
17891W        W34738   8.103  11.708   4.600  0.2542  0.2740  0.0576
17892W        W34739   1.868   8.114   5.728  0.2030 -0.0553 -0.1323
17893W        W34740   0.502  15.014  11.975 -0.0924  0.3080  0.0026
17894W        W34741  12.020  12.124   4.495  0.1340 -0.1267 -0.1545
17895W        W34742  14.693  12.773   5.482  0.3407  0.1728  0.1672
17896W        W34743   5.597  16.417  15.964  0.1252 -0.0977 -0.2178
17897W        W34744   2.994  15.352  14.009 -0.0196  0.0055  0.3350
17898W        W34745  17.916   5.465   4.892  0.3451 -0.0177 -0.0592
17899W        W34746   1.830   5.544  14.322  0.2172 -0.1166  0.0014
17900W        W34747   2.366   8.612   2.029 -0.1256  0.1211 -0.1691
17901W        W34748  13.016   5.391  11.415 -0.1142  0.1032 -0.1120
17902W        W34749   7.372   9.236   1.928 -0.0893  0.3116  0.2122
17903W        W34750   5.014  11.667  13.125 -0.2098  0.1107 -0.1531
17904W        W34751   5.332   6.994   0.380  0.3807  0.0373 -0.0432
17905W        W34752   7.095   8.318   4.857  0.2561  0.0502  0.3361
17906W        W34753   0.695  10.847   2.970  0.0480  0.0302  0.4312
17907W        W34754  11.707   5.013   1.821 -0.2471 -0.0017  0.0375
17908W        W34755   6.788   0.782  13.727  0.0857  0.0116  0.3032
17909W        W34756   4.026   0.071  14.200  0.3231  0.2421 -0.4435
17910W        W34757  15.911  15.572   2.855  0.0146 -0.3177  0.1729
17911W        W34758   8.666  11.756  12.007 -0.3824  0.1897 -0.2856
17912W        W34759   8.960   3.783  13.521 -0.2128 -0.2556  0.0456
17913W        W34760  16.956  12.330  12.798 -0.0384 -0.2627  0.1282
17914W        W34761  17.072   1.730   4.831  0.3280  0.4753 -0.2173
17915W        W34762   1.231  17.004  15.877  0.1340  0.1061 -0.1362
17916W        W34763   0.271  15.545  13.384 -0.0640  0.0781 -0.0672
17917W        W34764   8.933   5.976   2.132  0.2631  0.0159  0.2105
17918W        W34765   0.781   4.696   0.742  0.1232  0.3725 -0.1899
17919W        W34766  14.358  12.460  16.494  0.1950 -0.0812 -0.2664
17920W        W34767  16.101   7.954   5.902 -0.0211  0.1328 -0.0395
17921W        W34768  16.318  10.610   4.904  0.0231  0.5235  0.3184
17922W        W34769   3.215  15.628   2.634  0.3709 -0.3599  0.1493
17923W        W34770  13.649  10.552   4.145 -0.3446 -0.0161  0.1033
17924W        W34771   4.856  10.634  14.047  0.1243 -0.1503  0.1252
17925W        W34772  11.088   8.820   1.705  0.1199  0.1274  0.0240
17926W        W34773   2.200   3.982   2.165  0.3489  0.1973  0.1929
17927W        W34774  17.350  11.941  11.892 -0.2887  0.2947  0.1953
17928W        W34775   3.556  16.472  11.688  0.0004 -0.0202 -0.0922
17929W        W34776  13.580  10.157   1.523  0.1494 -0.1222  0.2979
17930W        W34777   3.332   3.566  13.751  0.1915 -0.2932  0.1659
17931W        W34778  15.684  13.632   0.121  0.2496 -0.4212  0.0423
17932W        W34779   8.442   6.458  11.804  0.0618 -0.0680  0.2694
17933W        W34780   1.800  17.023  14.318  0.2017  0.1895  0.1599
17934W        W34781   1.373  16.495  15.126  0.0811 -0.0812  0.3691
17935W        W34782  12.550   8.591   4.595  0.0595 -0.0258  0.1145
17936W        W34783  15.291  15.836   5.498  0.4588 -0.2992 -0.0176
17937W        W34784  16.837   4.297   2.270  0.0314 -0.2779  0.0055
17938W        W34785  14.754   5.574  16.312 -0.1064  0.0025  0.0873
17939W        W34786   2.793  18.088   3.921  0.0904 -0.1014  0.1243
17940W        W34787   1.141  16.262  11.956  0.4084 -0.0975 -0.2511
17941W        W34788   2.551   7.555   4.260 -0.1276  0.1656 -0.1670
17942W        W34789  10.700  10.402   2.025  0.1529 -0.2747 -0.1282
17943W        W34790   4.066   8.814  14.327  0.0013  0.2403 -0.0005
17944W        W34791  13.486   7.675   0.446 -0.3685 -0.0835  0.1227
17945W        W34792  14.549   5.424  15.437  0.1638 -0.1290 -0.0992
17946W        W34793   2.716  11.734   0.589  0.2828 -0.0032  0.0194
17947W        W34794   0.677   6.742   0.432  0.1644 -0.0328  0.0171
17948W        W34795   1.068   1.875  16.613 -0.1196  0.1785 -0.3971
17949W        W34796   5.088  12.858  13.084  0.2500 -0.1960 -0.0981
17950W        W34797  17.871   6.949   3.347 -0.1495 -0.3325  0.0216
17951W        W34798  10.459   9.434   1.250  0.0609 -0.3844 -0.1815
17952W        W34799   4.409   3.293   4.763  0.0474 -0.0189 -0.0101
17953W        W34800  13.116  16.799   1.461  0.3420 -0.2970  0.0187
17954W        W34801  16.266  10.107   4.722  0.4149 -0.3090  0.0284
17955W        W34802  14.894  16.679  13.385 -0.2975  0.3075  0.0599
17956W        W34803  14.172   5.230  15.886 -0.1017 -0.2739 -0.0074
17957W        W34804  11.680   4.632  14.258 -0.0727 -0.3987  0.0150
17958W        W34805   9.113   2.297  13.217  0.0910  0.0456 -0.1774
17959W        W34806  14.234   3.408   0.097  0.0176  0.4064 -0.3551
17960W        W34807   6.040  13.523  13.953  0.0519 -0.1267 -0.2570
17961W        W34808  10.767   6.278   3.337  0.1768  0.2872 -0.0613
17962W        W34809   3.970   9.729   1.104 -0.0407  0.0224  0.0181
17963W        W34810   7.472   0.966   3.295 -0.1411  0.1308  0.0863
17964W        W34811   6.066   1.172  14.154 -0.0207  0.1056  0.0155
17965W        W34812   0.654  11.918   4.492 -0.2974 -0.3840  0.3640
17966W        W34813   1.008   6.630  12.061 -0.2981 -0.0094  0.0732
17967W        W34814  17.802   3.980   5.828  0.0483  0.1363 -0.0710
17968W        W34815  14.376   2.993   1.807 -0.0393 -0.1002 -0.0457
17969W        W34816  14.152  16.218  15.720 -0.0560 -0.2801  0.0783
17970W        W34817  13.068   7.232   2.595  0.1156 -0.1260  0.0181
17971W        W34818   3.818   3.410  11.808  0.4727  0.0083 -0.0932
17972W        W34819   6.837  16.144  12.724  0.1606  0.2516  0.1103
17973W        W34820  12.225   7.317  14.757  0.1286  0.0398  0.0389
17974W        W34821  12.816   2.173   4.367  0.2480 -0.0552  0.3363
17975W        W34822  15.340   2.876   1.480 -0.1793 -0.1533  0.4037
17976W        W34823   9.328   7.485  12.857  0.1016  0.0176  0.4259
17977W        W34824  14.446   5.177  16.487 -0.3211  0.0042  0.1089
17978W        W34825  11.551   6.369  10.184 -0.1710  0.2204 -0.0594
17979W        W34826  18.168  13.106  13.980 -0.1252  0.3135  0.0446
17980W        W34827   5.015   0.593  16.078 -0.0873 -0.1988  0.0671
17981W        W34828  18.013  14.453   0.026 -0.2755  0.0261 -0.0356
17982W        W34829  12.505  17.450  15.879  0.2626  0.0190  0.3458
17983W        W34830   3.462  17.278   5.463 -0.0146  0.1413 -0.1362
17984W        W34831  15.579  15.405  12.070 -0.0643  0.1665  0.1063
17985W        W34832  11.483  18.038   5.483  0.3267  0.1108 -0.2647
17986W        W34833   5.285  15.124  15.280 -0.0807  0.1478  0.2919
17987W        W34834  16.616  17.247   5.008 -0.3924  0.1170  0.0502
17988W        W34835  15.395  10.578  11.197 -0.1920 -0.1222 -0.2748
17989W        W34836   0.453  18.080  15.473  0.3808  0.1799  0.0468
17990W        W34837  14.249   9.607  11.585 -0.2346  0.1757  0.3469
17991W        W34838  17.186  14.615   3.122 -0.0509  0.0221  0.2783
17992W        W34839   0.141   4.309  11.956  0.3831 -0.0237 -0.0133
17993W        W34840   8.198  16.137   4.117 -0.1960 -0.3646  0.0311
17994W        W34841   7.809   1.251  15.940  0.2241 -0.2799 -0.2360
17995W        W34842   5.781   0.626   2.766  0.0629  0.0468 -0.4545
17996W        W34843  13.251  12.608  16.547 -0.2521  0.1226  0.0544
17997W        W34844  13.036   3.201  15.261  0.3926  0.3513 -0.1614
17998W        W34845   4.617   4.373   3.486  0.0906 -0.2796  0.3613
17999W        W34846   9.919   0.509  16.132 -0.0381  0.2431 -0.0511
18000W        W34847   7.793   5.330   5.639 -0.0456 -0.1638 -0.1258
18001W        W34848   8.859  12.774  15.882  0.3172 -0.0975  0.0931
18002W        W34849   9.654  15.027  13.396 -0.1053  0.2315 -0.3646
18003W        W34850   1.124   5.617  10.562  0.3019 -0.3276 -0.1502
18004W        W34851   8.716   3.253   3.666  0.0295  0.1109 -0.2008
18005W        W34852  14.450   7.896  12.376 -0.1615 -0.2293 -0.3208
18006W        W34853   8.839  10.520  15.069 -0.1401  0.1216  0.2723
18007W        W34854   6.489   4.783   5.296  0.0413 -0.4243 -0.2470
18008W        W34855  15.743  13.188   5.031 -0.2626 -0.0630  0.0872
18009W        W34856  13.434   1.449   3.721  0.2247  0.0960 -0.0519
18010W        W34857   8.106  17.704  14.335  0.2098 -0.1540 -0.0425
18011W        W34858   1.873   3.246  13.571  0.0718  0.0326  0.0633
18012W        W34859   1.845  17.721  14.904 -0.2058  0.1789  0.2777
18013W        W34860  10.749  15.317   3.106  0.1225 -0.1395 -0.3723
18014W        W34861  13.256   8.543  13.758  0.0605 -0.0457  0.3454
18015W        W34862  10.624  15.882   5.190  0.3605  0.2874 -0.1016
18016W        W34863   5.761   7.870   3.533  0.2144 -0.1076  0.2180
18017W        W34864  13.720  17.531  11.518  0.0103 -0.1886  0.0211
18018W        W34865  15.135  14.146  15.985 -0.0010 -0.0807  0.2206
18019W        W34866  10.665  11.642   4.143  0.1157  0.0962  0.0357
18020W        W34867  13.330  12.047   1.917 -0.1238  0.0141  0.0476
18021W        W34868  13.544   4.506   3.008 -0.1686 -0.3891  0.0350
18022W        W34869   6.018   6.054  12.747 -0.0230  0.1007 -0.3205
18023W        W34870   9.894  14.251  15.430 -0.1532 -0.1550  0.1734
18024W        W34871  13.930  13.060   3.439  0.0857  0.0526 -0.0868
18025W        W34872   1.000  10.741   4.007 -0.1293 -0.0270 -0.4311
18026W        W34873   7.728  11.373  15.243  0.4843 -0.2653  0.2306
18027W        W34874   0.869  12.503   0.797 -0.1547  0.0355 -0.1011
18028W        W34875  11.289   0.983  16.557  0.0162  0.2329 -0.0327
18029W        W34876   6.631  17.416  11.856 -0.0624  0.2777  0.0795
18030W        W34877  11.472  10.376  12.539  0.0830  0.4056  0.2121
18031W        W34878   5.994  15.546  15.833  0.2640 -0.1008  0.0745
18032W        W34879  13.846  12.640   3.675  0.0709 -0.2643 -0.0068
18033W        W34880  15.806   2.718  13.032  0.0428  0.2027  0.0069
18034W        W34881   4.085  15.403   4.136  0.0654  0.0552 -0.1752
18035W        W34882  14.886   1.504  15.079 -0.0739 -0.0517  0.1763
18036W        W34883   0.769   1.429   1.527 -0.0806 -0.0682  0.0356
18037W        W34884  18.103   9.220   3.026  0.0071 -0.0302 -0.0880
18038W        W34885  16.084  18.111  15.267  0.1512 -0.0575  0.0482
18039W        W34886  16.868   5.118   0.075 -0.1037 -0.0338  0.0513
18040W        W34887   9.942   7.211  16.191 -0.0634  0.1331  0.0078
18041W        W34888   5.752  13.495  15.769  0.0851  0.1531  0.1915
18042W        W34889   0.466  10.762  15.780  0.1093 -0.2684  0.0174
18043W        W34890   2.450   9.547   0.469 -0.2074 -0.0665  0.0297
18044W        W34891  12.725   6.031  15.557 -0.1701 -0.2613  0.4031
18045W        W34892  18.124   0.348   2.828 -0.2802 -0.0371  0.0839
18046W        W34893  16.107   7.653   3.018  0.1555 -0.1230  0.2570
18047W        W34894   8.627   4.035   3.329  0.0435  0.1227  0.0254
18048W        W34895  11.712   2.637   0.475  0.1706 -0.3350 -0.0865
18049W        W34896  12.064  15.609  16.151 -0.0856 -0.1220 -0.0268
18050W        W34897  11.534  16.813  14.485  0.3754 -0.0090 -0.0765
18051W        W34898   1.398   0.270  15.450  0.0937  0.1314 -0.1312
18052W        W34899   0.937   4.180  11.306 -0.5220 -0.0985 -0.0697
18053W        W34900   3.850  17.834   0.464 -0.2220  0.0835 -0.1152
18054W        W34901  11.698   7.074   5.575  0.1130 -0.4334  0.0802
18055W        W34902  13.817   1.942   1.208  0.0748  0.0511 -0.0049
18056W        W34903  14.891  18.151  13.812  0.0627  0.0958 -0.4284
18057W        W34904   9.068   7.350  16.286 -0.2209  0.0742  0.0375
18058W        W34905   6.296   2.032  14.151 -0.2632 -0.2485 -0.1785
18059W        W34906  15.077  10.845   0.692  0.1798 -0.1327  0.3017
18060W        W34907  12.246   6.111   4.551 -0.1123  0.0965  0.0359
18061W        W34908  10.276   4.606  14.419 -0.0026 -0.1421 -0.0436
18062W        W34909   3.034  14.445   4.592  0.0658 -0.1874  0.3046
18063W        W34910  15.512   4.154   3.970  0.1059  0.0124  0.0480
18064W        W34911  11.059   5.244  12.713 -0.0045  0.0085  0.0738
18065W        W34912  13.123  10.518   2.305 -0.0845 -0.0318 -0.1008
18066W        W34913   4.072   6.130  14.608  0.0339 -0.1062  0.1773
18067W        W34914  11.944  17.373   0.096  0.1048 -0.2080 -0.1569
18068W        W34915  14.136  13.642  12.630  0.1078  0.0444 -0.1999
18069W        W34916   5.154   0.585   1.100  0.3086  0.0085 -0.1578
18070W        W34917  17.633   8.849  13.370 -0.0176  0.1691 -0.2122
18071W        W34918  15.109   8.484  12.888 -0.0229 -0.0948  0.0680
18072W        W34919  15.704   2.381   2.995  0.2944  0.2256  0.0822
18073W        W34920   1.953   5.314  15.077  0.1316 -0.0447  0.1488
18074W        W34921  16.960   3.609  11.921  0.0756  0.2876 -0.2484
18075W        W34922  15.038   5.385   0.049 -0.1987 -0.0318 -0.2517
18076W        W34923  10.126   8.873  15.756  0.0617  0.2431 -0.0754
18077W        W34924  15.770  16.510  14.533  0.3387 -0.2398 -0.0934
18078W        W34925   3.548   9.224   5.232  0.4359  0.1632  0.2175
18079W        W34926  11.383   9.112   1.340 -0.2037 -0.1149 -0.1437
18080W        W34927   1.037  12.807  14.236 -0.0406 -0.1324 -0.2190
18081W        W34928   0.897   2.994   5.267  0.0812 -0.0054  0.3511
18082W        W34929   8.161   8.911  12.680 -0.1352  0.0833 -0.0661
18083W        W34930  12.450  15.764   3.197  0.2179 -0.1448  0.2100
18084W        W34931  15.390   0.588  16.082 -0.1235  0.3198  0.0618
18085W        W34932   9.171  13.801  14.212  0.0184  0.0328 -0.0473
18086W        W34933   7.735   1.775  15.749  0.0840  0.0702  0.1205
18087W        W34934   0.526   3.933  11.949  0.0311 -0.0236 -0.0086
18088W        W34935  12.938   5.862  13.752  0.0841 -0.0302 -0.2527
18089W        W34936  11.574   7.090  12.235 -0.1784  0.1176 -0.2693
18090W        W34937  13.837   8.189   2.828 -0.1334 -0.1783  0.1032
18091W        W34938   6.800  16.432  14.982  0.1877 -0.0278 -0.1359
18092W        W34939  16.951   4.485   6.034 -0.1726  0.1833  0.3025
18093W        W34940   0.649   0.469   1.095  0.1503  0.0799  0.1720
18094W        W34941   4.420   6.811  16.171 -0.0038 -0.0578  0.0219
18095W        W34942   7.757  14.575   0.629  0.0862  0.0257  0.0535
18096W        W34943  10.677   8.185   3.404  0.0291  0.0140 -0.2487
18097W        W34944  14.246  14.517  16.173 -0.0728 -0.0138  0.1788
18098W        W34945  15.108   4.651  14.656 -0.1928 -0.0597  0.0564
18099W        W34946  13.383   6.678   3.165 -0.2232 -0.2914 -0.2310
18100W        W34947   5.379   5.947  12.091 -0.0841 -0.0371  0.1447
18101W        W34948  11.280   7.021  15.014  0.0326 -0.2624  0.1042
18102W        W34949  10.663  17.491   5.116  0.0955  0.0824 -0.2226
18103W        W34950   6.346   3.769   0.001  0.0570 -0.0327 -0.0898
18104W        W34951   4.774  10.898   2.946 -0.0054  0.2827 -0.1461
18105W        W34952   8.435  14.245  13.158 -0.0186  0.1547  0.1973
18106W        W34953   0.196  17.339  14.582 -0.1385 -0.0370  0.1610
18107W        W34954   6.343   4.935  13.835  0.2125  0.0268  0.1143
18108W        W34955  11.040   6.829  13.459  0.0834 -0.0126  0.0940
18109W        W34956  14.888  10.528   1.050 -0.0057  0.0628  0.2216
18110W        W34957  10.959   2.443  15.014 -0.0392  0.4424  0.0918
18111W        W34958   4.176  12.738  12.095 -0.1869 -0.0012 -0.1144
18112W        W34959   6.252  13.505  12.242  0.1971 -0.1385 -0.0866
18113W        W34960  17.393  17.386   1.943  0.2202 -0.0601  0.0744
18114W        W34961  13.382  11.346  14.286  0.4470  0.0548 -0.1004
18115W        W34962   5.051   3.233  13.796 -0.2810  0.4509 -0.1131
18116W        W34963   0.400   2.462   1.996  0.0098 -0.0747 -0.0631
18117W        W34964   9.424   1.718  12.119 -0.4448 -0.1388 -0.3120
18118W        W34965   5.625  11.153  15.078  0.1130 -0.0758 -0.3019
18119W        W34966   1.463   3.773  14.839  0.2217 -0.0236 -0.1181
18120W        W34967   4.635   4.665  14.643 -0.2420 -0.2754 -0.0171
18121W        W34968   4.769   2.394   5.828 -0.2092  0.1636 -0.0254
18122W        W34969   0.208   4.740  13.241  0.1339 -0.0792 -0.1218
18123W        W34970  15.071  14.659  12.065 -0.1201  0.0734 -0.0248
18124W        W34971   4.197  12.474   4.644 -0.1253 -0.0236 -0.0725
18125W        W34972   2.529  11.782  14.865 -0.1003  0.0009 -0.2341
18126W        W34973  16.803  18.088   2.187  0.0592 -0.2416 -0.1434
18127W        W34974  15.550  14.133   1.739  0.1051  0.0428  0.1764
18128W        W34975  14.268   5.384   5.413  0.1563 -0.1904  0.1822
18129W        W34976   0.470  10.799   0.885 -0.1108 -0.3376  0.3617
18130W        W34977  13.563   4.742  11.264  0.0821 -0.0709 -0.2476
18131W        W34978   1.393  15.275  13.742  0.2039 -0.3936  0.0650
18132W        W34979  14.813   6.089   0.273 -0.3707  0.3613 -0.0240
18133W        W34980   2.419   4.145   1.152  0.0825  0.1911  0.1724
18134W        W34981   6.589   5.019  13.316 -0.1424  0.1402 -0.1198
18135W        W34982  12.520  10.010   0.070 -0.2622  0.0122 -0.0163
18136W        W34983  10.931  15.203  13.082 -0.1792 -0.0046  0.1010
18137W        W34984   7.832   5.986   1.292 -0.1151  0.0393 -0.1630
18138W        W34985   1.436   0.220  13.614  0.2423  0.2412  0.2528
18139W        W34986  13.561  14.761  15.415 -0.1218 -0.0760  0.0364
18140W        W34987  12.677   5.515  11.050  0.0019  0.1441  0.4423
18141W        W34988  17.421   2.775   3.306  0.1122 -0.0762  0.0351
18142W        W34989   7.942   8.851  11.703 -0.5385  0.2554 -0.3535
18143W        W34990   2.161  10.415  12.548 -0.1627 -0.1004  0.0099
18144W        W34991  15.925   3.428   2.743 -0.2164 -0.0055  0.0468
18145W        W34992   9.568   7.242  13.490  0.0394  0.0482  0.1077
18146W        W34993   5.318   9.666   3.363 -0.0034  0.3149 -0.1463
18147W        W34994  14.600   1.929   4.449  0.0770 -0.1192  0.3288
18148W        W34995  15.130  14.231  11.799  0.2381 -0.1823 -0.2637
18149W        W34996   5.339   1.800  12.817 -0.3090  0.0221 -0.1086
18150W        W34997  12.249   7.832  13.264  0.0215  0.3044  0.0610
18151W        W34998   2.978   0.795  14.840  0.1503  0.1943  0.0319
18152W        W34999   7.853  17.885   4.960  0.1782  0.1066  0.0701
18153W        W35000   3.206   4.909   0.001  0.0595 -0.0469 -0.1527
18154W        W35001  11.332  11.211   2.043  0.1577 -0.5706  0.1038
18155W        W35002   7.842  11.599  14.715 -0.1447 -0.2043  0.2978
18156W        W35003  12.290  16.048   4.050  0.0706 -0.1547  0.0111
18157W        W35004   2.042   5.060  13.596  0.0858  0.0303 -0.2120
18158W        W35005  10.243  14.059  14.922 -0.0203 -0.0641 -0.0959
18159W        W35006  14.250  12.863   0.653  0.0860 -0.2101  0.2576
18160W        W35007   6.974   0.825   3.489 -0.0827  0.0296  0.1182
18161W        W35008  13.689  12.336  11.685 -0.2266 -0.0017  0.2307
18162W        W35009  15.729   2.169  10.596 -0.0919  0.0595  0.2682
18163W        W35010  10.584  15.148   3.749 -0.0921 -0.1003  0.0534
18164W        W35011   1.088  17.431  13.801  0.3064  0.0372  0.1511
18165W        W35012   0.301  15.552   2.110 -0.0156  0.0826 -0.3314
18166W        W35013   8.786   7.572  11.120  0.0703 -0.1264  0.0213
18167W        W35014   6.809   6.241   0.830  0.4469 -0.3388 -0.1956
18168W        W35015   5.053  14.642   4.600  0.1996  0.3884  0.1633
18169W        W35016   5.357  10.474  13.932 -0.2670 -0.0386  0.2196
18170W        W35017   5.728   0.370   1.066  0.3987  0.2429  0.1165
18171W        W35018  10.911   0.931   5.690  0.0549  0.1696  0.0522
18172W        W35019   4.317   8.214   4.367 -0.2158 -0.0189  0.0818
18173W        W35020   9.989   4.866  13.409 -0.1891 -0.0952 -0.1431
18174W        W35021   3.373   7.896  14.425 -0.0411  0.1131 -0.3021
18175W        W35022   2.624   8.946   3.717  0.1279 -0.0366 -0.1907
18176W        W35023  15.501  14.443   0.846  0.0222 -0.0207  0.1612
18177W        W35024   9.026  13.957  12.522  0.0147 -0.1106  0.2908
18178W        W35025   4.908   6.179  16.608 -0.2929  0.1375  0.1780
18179W        W35026   9.532   3.364  16.198 -0.1037 -0.1341 -0.1971
18180W        W35027   3.386  13.655   1.043 -0.0748 -0.0497 -0.1720
18181W        W35028   5.123   7.002  11.320 -0.0992  0.1851  0.1370
18182W        W35029  14.951   1.580   4.185 -0.1226 -0.0551  0.0581
18183W        W35030   1.849   5.809  14.805 -0.0301  0.2675 -0.1467
18184W        W35031  13.219  13.428  14.123 -0.0527  0.0810 -0.1843
18185W        W35032   0.177  10.914  14.458 -0.0531 -0.1423 -0.0383
18186W        W35033  12.884   0.546   0.591 -0.2117  0.0726 -0.0496
18187W        W35034  16.678  10.025   0.986 -0.0277  0.2470 -0.2610
18188W        W35035   4.155  14.495  15.918 -0.0406 -0.2767 -0.2231
18189W        W35036   8.411   9.112   3.347 -0.1172  0.2240 -0.3762
18190W        W35037   3.442  17.908   1.334 -0.1498  0.0985  0.0067
18191W        W35038  11.468   2.408   0.106  0.1017  0.0002  0.1393
18192W        W35039   9.021  16.484  12.230 -0.1243 -0.0809  0.1570
18193W        W35040  13.535   5.021   1.086 -0.2897 -0.1866  0.1421
18194W        W35041   4.067   1.367  16.332 -0.1353 -0.2553 -0.2036
18195W        W35042   9.051  14.956   4.364 -0.1132 -0.0913  0.1640
18196W        W35043  16.241   8.362   4.152 -0.0395 -0.0564  0.2563
18197W        W35044  10.091  12.002  11.592  0.3404  0.0388  0.0425
18198W        W35045  16.799  13.653  12.381  0.0397  0.2103 -0.2625
18199W        W35046  11.974   3.259   4.187  0.0313 -0.3317  0.1308
18200W        W35047  17.796   6.306   1.265  0.2395 -0.0987  0.0259
18201W        W35048   3.165  17.981   0.711  0.0929  0.3274 -0.0435
18202W        W35049   3.610   7.367   0.092  0.1745  0.1341 -0.1722
18203W        W35050  12.688   1.933   3.034 -0.2138 -0.0065  0.0095
18204W        W35051  12.451   5.643  16.419 -0.0421 -0.1427  0.0439
18205W        W35052  15.402   8.247   0.726  0.2531  0.1075 -0.0113
18206W        W35053   3.547   1.955   3.798  0.5767 -0.2453 -0.0378
18207W        W35054  10.722   0.116   0.864 -0.2881 -0.0127 -0.2102
18208W        W35055  16.702  16.207  13.056 -0.0429 -0.1002 -0.1568
18209W        W35056  13.041   8.627  10.230  0.2365 -0.0616  0.2658
18210W        W35057   3.817  17.419  14.345  0.1559 -0.2081 -0.3400
18211W        W35058  10.494   7.897   1.660  0.1110 -0.0491 -0.4203
18212W        W35059  12.744  14.742  15.333 -0.3136 -0.1033 -0.3482
18213W        W35060   3.988   1.320   4.904  0.0228 -0.0321  0.0968
18214W        W35061   2.188   6.247  13.985 -0.1054  0.3549  0.3195
18215W        W35062   1.109  17.596  16.168 -0.1341  0.5167  0.0460
18216W        W35063   3.576   5.943  15.500 -0.1503 -0.1990  0.0861
18217W        W35064   6.113  11.328  15.731 -0.1429 -0.2769  0.0675
18218W        W35065   9.594   6.795   2.960 -0.0340 -0.0362  0.0952
18219W        W35066   2.517  10.278  14.406  0.2648 -0.2223  0.1131
18220W        W35067  17.582  12.286   0.464  0.0065 -0.1673 -0.0706
18221W        W35068  12.751   9.063  16.137  0.2008  0.1005 -0.0456
18222W        W35069  15.536   1.822  14.873  0.1010  0.0976 -0.1697
18223W        W35070  12.289   7.430  15.955  0.2171 -0.3719 -0.0956
18224W        W35071  11.802   4.483  11.247  0.1529  0.0826 -0.1178
18225W        W35072  16.390   2.441  14.857  0.0404 -0.0429 -0.0298
18226W        W35073   9.394  13.220  14.529 -0.0561 -0.0522  0.3579
18227W        W35074   9.792  17.679   0.128  0.0162  0.0518 -0.2755
18228W        W35075   2.099   7.505   0.425 -0.2887  0.1042 -0.0070
18229W        W35076   3.562   8.830  16.137 -0.2251 -0.2493 -0.0170
18230W        W35077   0.349   3.024  11.653  0.0377 -0.1485  0.1697
18231W        W35078   6.589  10.340   5.563  0.0055  0.1628 -0.0765
18232W        W35079   5.213   7.441   1.087  0.0718  0.2516 -0.0251
18233W        W35080   2.025  15.284   0.103 -0.0765  0.1487  0.1159
18234W        W35081  18.081   0.626  16.572 -0.2083 -0.3322 -0.0293
18235W        W35082   2.794   8.289  13.302  0.0374 -0.1734 -0.0724
18236W        W35083   6.217   1.854   4.044  0.0023  0.1359  0.0611
18237W        W35084   8.650  14.485   5.690 -0.0380 -0.0995  0.0180
18238W        W35085   2.282  13.800  13.895 -0.0373 -0.0282 -0.1168
18239W        W35086   7.409  14.093  16.478 -0.2260  0.0253  0.1695
18240W        W35087   7.360  14.092  13.704  0.1181  0.0112 -0.0472
18241W        W35088  16.071   8.319  14.003  0.0871 -0.3189 -0.0046
18242W        W35089   5.242   5.609  15.181 -0.1693  0.0581  0.2298
18243W        W35090   0.320  11.369  13.739  0.0882  0.3084  0.0311
18244W        W35091   8.971   0.584   0.127 -0.2745  0.3088  0.0246
18245W        W35092  11.273  15.926  15.857 -0.2670 -0.1151  0.0148
18246W        W35093   8.307  11.024  13.814  0.0178 -0.0534  0.1521
18247W        W35094   6.647  12.278   5.022  0.1074  0.0163  0.1200
18248W        W35095  13.558  11.255   4.383 -0.2772  0.2596 -0.2681
18249W        W35096   1.926  14.453  14.804  0.3000  0.0296 -0.0459
18250W        W35097  11.619  16.276  14.531 -0.0276 -0.3127  0.0649
18251W        W35098  18.070  16.696   0.222  0.0656  0.3786 -0.0634
18252W        W35099   2.991  16.954   4.666 -0.1194 -0.0616  0.2305
18253W        W35100   2.376   6.086   3.491 -0.2656  0.0650  0.5936
18254W        W35101   7.867   7.677   4.964 -0.0526 -0.1564  0.2654
18255W        W35102  14.559   1.680   2.594  0.0842  0.2470  0.1156
18256W        W35103   2.139   8.846   2.391  0.0492  0.3558 -0.1323
18257W        W35104  10.127   1.585   1.749  0.3009 -0.2385  0.1200
18258W        W35105   0.945  17.449  12.215  0.1222  0.2525 -0.1616
18259W        W35106   8.304  10.522  16.370 -0.1490 -0.2310 -0.1729
18260W        W35107   2.120   0.027   2.738  0.3887  0.1022 -0.0851
18261W        W35108   4.605  10.625   0.122  0.0827  0.1229  0.0189
18262W        W35109   1.021  16.987   3.010 -0.0561  0.0567  0.2378
18263W        W35110   6.611   4.514  12.527  0.2209  0.0241 -0.1591
18264W        W35111  12.940   9.520   1.428  0.2565 -0.0533  0.2395
18265W        W35112   1.096  12.242  15.869  0.1758  0.2546 -0.0472
18266W        W35113  17.114   0.796   4.562  0.1332 -0.2185 -0.0541
18267W        W35114   1.025   6.816  15.181 -0.0904 -0.1676 -0.1369
18268W        W35115  16.723   6.471   1.048 -0.1237  0.0219 -0.1463
18269W        W35116   2.496   2.399   0.200 -0.0298 -0.3348 -0.1292
18270W        W35117   1.467   9.454   4.913  0.0743 -0.1661 -0.2959
18271W        W35118   0.626  11.467   4.354 -0.0906 -0.0971 -0.1213
18272W        W35119   4.394  11.855   5.728  0.0151  0.1238  0.2960
18273W        W35120  16.856   9.678   1.994 -0.0192 -0.2616  0.2306
18274W        W35121   5.449   5.817   0.860 -0.0440 -0.0940  0.2805
18275W        W35122   5.478  13.771  14.003 -0.0672 -0.1633 -0.1324
18276W        W35123   1.184   4.747  11.641 -0.0250  0.0546 -0.0193
18277W        W35124  16.019  17.742   2.548  0.0648  0.1843 -0.1787
18278W        W35125  13.967  12.880  11.647 -0.2815 -0.0428  0.0814
18279W        W35126  13.523   4.681  15.579  0.1009  0.0324  0.1022
18280W        W35127  14.673  13.292   3.142 -0.0530 -0.0344  0.0176
18281W        W35128   8.509   7.647   1.316 -0.6004 -0.1746 -0.2546
18282W        W35129   3.240   4.197  15.552  0.1869  0.0832  0.0557
18283W        W35130   0.180  12.556   3.425 -0.0613 -0.2335  0.1338
18284W        W35131  12.553   7.840  12.867 -0.2467 -0.0182 -0.2587
18285W        W35132  13.605  14.696   2.841 -0.1152  0.2616  0.2906
18286W        W35133  13.784   2.876  14.228 -0.0452 -0.0274  0.1687
18287W        W35134   1.007  18.037  15.339 -0.0312  0.0623 -0.1418
18288W        W35135   8.125   6.410  14.399  0.2490  0.0096  0.2135
18289W        W35136  13.426   2.017  11.410 -0.3861 -0.0473  0.2130
18290W        W35137   7.535   8.556   0.614  0.2070  0.2007  0.0166
18291W        W35138   6.079  13.886   4.881 -0.1710  0.2141 -0.0480
18292W        W35139   7.664   7.522   3.650 -0.0633 -0.2979  0.1662
18293W        W35140   9.855   2.843   4.765 -0.0246 -0.2436  0.1994
18294W        W35141  13.615  16.072   0.538 -0.3351  0.0983  0.1229
18295W        W35142   0.161  17.859   3.428  0.4041 -0.0364 -0.0099
18296W        W35143  15.420  17.805   0.952  0.1241  0.0395 -0.3151
18297W        W35144   4.581  18.098  12.183 -0.0666 -0.0010 -0.0357
18298W        W35145   8.605  12.953  13.357  0.0370 -0.1462 -0.0218
18299W        W35146  11.187   8.543  11.440 -0.0159 -0.1044  0.1492
18300W        W35147  16.558  17.071   3.537  0.4008 -0.1386 -0.0873
18301W        W35148   1.073   0.275  14.956  0.0250 -0.0638  0.0634
18302W        W35149  12.723   2.261  15.537  0.2573  0.3241  0.0419
18303W        W35150  11.947  10.646  12.544  0.0691  0.2958 -0.0805
18304W        W35151   1.060  12.567   0.128  0.0749  0.1229  0.1467
18305W        W35152  11.928  10.217  13.415 -0.1055 -0.1732  0.1049
18306W        W35153   5.209   8.411  13.215  0.1772 -0.1534  0.1837
18307W        W35154  12.467   8.188   3.775  0.2150  0.2391  0.3560
18308W        W35155  11.963  17.838   5.443  0.3537  0.3278  0.2114
18309W        W35156   5.608   5.957  13.615 -0.0777  0.1157  0.0697
18310W        W35157  17.657  14.464  11.948  0.1297 -0.2889 -0.3050
18311W        W35158   7.174   0.099   0.138 -0.0277 -0.0139  0.1247
18312W        W35159   3.974   1.734  15.314  0.0709 -0.0027  0.2010
18313W        W35160  16.414   0.730  12.247 -0.1100 -0.0095  0.0191
18314W        W35161  16.309   5.047   4.705 -0.0290  0.0096  0.1154
18315W        W35162   7.716  16.828   2.654 -0.0127 -0.1418  0.1795
18316W        W35163   1.112  11.814  11.790 -0.0055 -0.1606 -0.1460
18317W        W35164   1.628  12.941  12.895  0.1471 -0.0692 -0.0092
18318W        W35165  15.762  13.570   1.488 -0.1514  0.1564  0.1664
18319W        W35166  16.098   0.138   5.004 -0.3042  0.2647 -0.2862
18320W        W35167   3.628   4.529  15.050 -0.0071 -0.0893 -0.1314
18321W        W35168   1.220   2.567  11.466 -0.2757 -0.2806  0.1025
18322W        W35169   9.280   5.389   1.037 -0.0591  0.0495  0.1663
18323W        W35170   1.944   9.140  13.533 -0.0210 -0.0287 -0.1272
18324W        W35171  11.474   3.832   2.554 -0.1607 -0.0965 -0.3642
18325W        W35172   5.915  17.738  12.031  0.2718 -0.0948  0.1432
18326W        W35173   2.679  17.761   4.818 -0.0445  0.1204  0.0400
18327W        W35174   7.470   2.693   4.344 -0.2970 -0.0107  0.3939
18328W        W35175  14.804   0.402   1.370 -0.0584  0.2993 -0.1518
18329W        W35176  11.288   4.732   2.761  0.0190  0.2556  0.0416
18330W        W35177  16.258   5.337  15.893 -0.2038 -0.0159 -0.2220
18331W        W35178   1.028  12.443   1.755  0.3176 -0.0196  0.0460
18332W        W35179  12.574   1.219   4.250 -0.1826 -0.1570  0.2161
18333W        W35180  12.092  13.742  16.055  0.3693  0.0099 -0.0719
18334W        W35181  13.635   3.437  11.477 -0.1756 -0.0786 -0.1816
18335W        W35182   5.024  13.923  12.268  0.0957  0.2946 -0.0117
18336W        W35183   4.827   4.210   2.572  0.2269  0.0702  0.0186
18337W        W35184   4.920  12.009   6.546 -0.1379 -0.1844 -0.1413
18338W        W35185   3.159  14.927   2.890 -0.2866  0.0272 -0.1829
18339W        W35186   7.622  18.164  15.297 -0.0886  0.1626  0.0499
18340W        W35187  11.049   1.347  14.241 -0.0658 -0.2063 -0.3374
18341W        W35188   3.304  11.724  14.438 -0.2954  0.2007 -0.0034
18342W        W35189  15.511  14.939   1.992 -0.1603  0.1484  0.0272
18343W        W35190   0.552   9.360  14.766  0.1017  0.1032 -0.4159
18344W        W35191   7.126   2.445   5.928 -0.2556  0.0571  0.0641
18345W        W35192  10.850  13.962  12.550 -0.2681  0.0824  0.1039
18346W        W35193  16.163   2.646   1.990 -0.1646 -0.4376 -0.1000
18347W        W35194   8.112  13.606   3.802  0.0353 -0.0653  0.2282
18348W        W35195   7.310   8.340  15.157 -0.2225 -0.1162  0.2827
18349W        W35196  11.943  13.405  15.680  0.4939  0.1834  0.2739
18350W        W35197  17.132   5.965   0.177  0.2120  0.0769 -0.0138
18351W        W35198   7.887   4.723  11.945 -0.2601  0.1893  0.1630
18352W        W35199   3.670   7.839   5.453  0.1375  0.0749  0.0461
18353W        W35200   9.094   7.412  14.322 -0.2705  0.0881  0.2383
18354W        W35201   2.021   1.333  15.121 -0.2724 -0.0945  0.2446
18355W        W35202  18.169  16.521  14.063  0.0635  0.4272 -0.1096
18356W        W35203   5.073   8.417   1.192  0.1369  0.3290  0.2016
18357W        W35204   8.220   9.668   4.482  0.0129 -0.1113 -0.0635
18358W        W35205  17.737   0.813   1.793 -0.1279 -0.2886  0.0670
18359W        W35206   8.978  14.323   5.335  0.1879 -0.1098  0.2051
18360W        W35207  11.878   9.286   0.516 -0.1537 -0.0932 -0.1521
18361W        W35208   9.553   6.807   1.442  0.0580  0.1556  0.2157
18362W        W35209   4.598  17.107   1.364 -0.0253  0.1613 -0.1818
18363W        W35210   3.468  16.761  12.134 -0.1008  0.2372 -0.1156
18364W        W35211  10.620   6.310   4.008  0.1481  0.1008  0.0413
18365W        W35212  14.857   7.627   3.239  0.0364 -0.1842  0.2379
18366W        W35213   4.481   8.523   3.059 -0.0216  0.1442 -0.1705
18367W        W35214   0.681  15.865  14.734 -0.0698 -0.0289 -0.1541
18368W        W35215  12.555  14.415  15.981  0.0876  0.2178 -0.0893
18369W        W35216  15.546   3.059  16.620 -0.0149 -0.2240  0.1690
18370W        W35217  10.149  10.142   2.951  0.0406  0.2181 -0.0285
18371W        W35218  14.525  17.106  16.118  0.1043  0.1533  0.0128
18372W        W35219   3.803   9.228   2.671  0.2616 -0.1622  0.1100
18373W        W35220  11.720  16.427   1.965  0.1594  0.1825  0.1681
18374W        W35221   1.755   6.235  11.503 -0.0848  0.2105 -0.3277
18375W        W35222   4.301   1.281  13.989 -0.0222 -0.1446  0.0303
18376W        W35223   8.077   8.606  13.148 -0.2215  0.2460  0.3599
18377W        W35224   7.208  14.903   3.052 -0.0740 -0.1384 -0.1216
18378W        W35225   3.050  11.462   5.857 -0.0821 -0.0757  0.2696
18379W        W35226   2.751  17.121   3.099 -0.0480  0.0167 -0.0529
18380W        W35227   9.065   0.553  15.402  0.0549  0.1953  0.1472
18381W        W35228   3.804  12.996  12.360  0.0575  0.2089 -0.3908
18382W        W35229  18.115   5.233  13.057 -0.0237 -0.1413  0.1437
18383W        W35230   9.530   1.078  15.453  0.0562  0.1356 -0.0743
18384W        W35231   6.387  17.986   1.415 -0.0788  0.0068 -0.1955
18385W        W35232  15.323  15.814  16.564  0.2087  0.0154  0.0975
18386W        W35233   7.167   0.191  13.259  0.1718  0.2808 -0.0889
18387W        W35234   8.597  12.012   3.833 -0.2780 -0.2939  0.1091
18388W        W35235  10.202   5.601   2.859  0.0271  0.1285 -0.0526
18389W        W35236  12.597   7.790  11.835  0.0122 -0.1786 -0.0821
18390W        W35237   8.506   2.188  15.781 -0.1570 -0.3227 -0.2307
18391W        W35238  13.028   2.859  14.713  0.1274  0.0259  0.2231
18392W        W35239   7.269   3.708   0.233  0.2464  0.2659 -0.2196
18393W        W35240   9.772   6.836   2.403 -0.0127 -0.2549 -0.0849
18394W        W35241   1.771   9.669  14.135 -0.2700  0.1179  0.3377
18395W        W35242  12.179  12.146  16.219  0.0458  0.1921 -0.2005
18396W        W35243  16.036  14.360  12.329  0.0461  0.3254 -0.0913
18397W        W35244   2.705  16.834  12.712  0.1170  0.1766  0.4828
18398W        W35245  13.657  15.819   2.164 -0.2705  0.2303  0.0904
18399W        W35246  16.538   3.410   5.238  0.1581 -0.1397  0.1607
18400W        W35247  12.085   9.876   1.483  0.3628 -0.0359  0.0240
18401W        W35248   4.796  10.572   3.626  0.0630  0.1692  0.1078
18402W        W35249  15.940   4.276   0.166  0.0282 -0.1017 -0.0437
18403W        W35250   1.329  15.102   5.221 -0.1555  0.0718  0.2686
18404W        W35251  10.031  15.507   1.001 -0.2865 -0.2587  0.1198
18405W        W35252  16.530  15.958  12.020 -0.4952 -0.0193 -0.2877
18406W        W35253  15.707   4.631  15.400 -0.2319 -0.1550 -0.0139
18407W        W35254   9.552   6.948  15.476  0.0921 -0.0178 -0.1300
18408W        W35255   8.425  13.080  12.303  0.1019 -0.0459  0.1666
18409W        W35256   6.708   7.036   2.819  0.1464 -0.0727  0.0527
18410W        W35257  10.600  12.837  15.930 -0.1812  0.2480  0.0320
18411W        W35258  14.162   0.615   2.047  0.0665 -0.2314 -0.0920
18412W        W35259  13.753   0.698  11.684 -0.1550 -0.0265 -0.1159
18413W        W35260   9.269   4.202   2.793  0.0707 -0.0559 -0.1859
18414W        W35261  15.759   7.493   2.420  0.0976  0.0398  0.1505
18415W        W35262  11.357  17.125  15.841  0.1922  0.2154 -0.1013
18416W        W35263  15.014  12.180  14.025 -0.2445  0.0932 -0.0521
18417W        W35264  16.824  14.335  15.780  0.0964  0.2824  0.0702
18418W        W35265  12.452   8.686  13.733  0.0443  0.1122  0.3396
18419W        W35266  15.021  16.796  13.926 -0.1753 -0.2709  0.2296
18420W        W35267  11.285  14.272   1.553  0.0389  0.0178 -0.3079
18421W        W35268  15.628   4.311  11.807  0.0547  0.1588 -0.1729
18422W        W35269  14.224  13.379  16.548  0.3409  0.1431 -0.2536
18423W        W35270  17.096   9.074   5.668  0.0572  0.1551 -0.0150
18424W        W35271   3.133  16.371  14.982  0.3592 -0.0844  0.0978
18425W        W35272  11.304  13.819   4.799  0.0923  0.3970  0.0229
18426W        W35273  15.841   1.436   1.125 -0.0536 -0.2514 -0.1210
18427W        W35274  10.666   3.543  12.031 -0.1679  0.0054 -0.1830
18428W        W35275  13.541  17.949  15.626  0.0776 -0.1539  0.2303
18429W        W35276  10.617  17.127  11.667 -0.2088  0.1196 -0.2216
18430W        W35277   1.051  16.197   4.707  0.3148  0.0285 -0.2203
18431W        W35278   3.365  14.905  16.335 -0.1976 -0.1326 -0.2427
18432W        W35279   9.852  13.936   2.836  0.0174 -0.1987 -0.0194
18433W        W35280   0.353  17.707   3.913 -0.0702 -0.0876 -0.1455
18434W        W35281  16.910   1.442  12.177  0.0720 -0.3198  0.0483
18435W        W35282  16.578   8.971   5.282 -0.1351  0.2627  0.4454
18436W        W35283   2.564  16.995   2.076 -0.1914  0.2783  0.0828
18437W        W35284   3.035   4.602   1.706  0.1906  0.1713 -0.3118
18438W        W35285  15.286  12.290   1.291 -0.0518  0.0361 -0.0848
18439W        W35286  17.245   3.537  14.094  0.1717  0.0686 -0.1285
18440W        W35287   4.153  11.606   0.790  0.2099 -0.2801 -0.0084
18441W        W35288  12.708  17.115  12.841 -0.2154 -0.1199 -0.0698
18442W        W35289   4.489  17.875   5.987 -0.1732  0.0367  0.0387
18443W        W35290   3.213  14.633  11.658  0.0076 -0.1909  0.0743
18444W        W35291  13.510   7.752   1.430 -0.2863 -0.1520  0.0316
18445W        W35292   8.685   1.541   5.570  0.2016 -0.3129 -0.2509
18446W        W35293   2.496  11.386  10.973 -0.4926 -0.1330 -0.1758
18447W        W35294  17.690  10.728  16.313  0.1438 -0.1052 -0.0170
18448W        W35295   8.075   1.449   1.322  0.1069 -0.0042 -0.3994
18449W        W35296  11.448  10.264   5.038  0.3305  0.0078 -0.0708
18450W        W35297  15.253  17.432   4.300  0.1668 -0.1086  0.0030
18451W        W35298   0.568  12.737   5.017  0.2433  0.0218 -0.0280
18452W        W35299  11.535   4.535   1.961 -0.0489 -0.2457 -0.1383
18453W        W35300   4.655   7.929   2.127 -0.0348 -0.0342 -0.1190
18454W        W35301   1.656  16.448   5.179 -0.1560 -0.4386  0.3576
18455W        W35302  17.195  14.803   4.306 -0.1102 -0.3514 -0.1555
18456W        W35303  10.402   5.815  10.723 -0.2141 -0.0957  0.0374
18457W        W35304  16.193   6.399  16.129 -0.1966  0.0605 -0.1425
18458W        W35305   3.245  17.758  14.793 -0.4693  0.0467 -0.1501
18459W        W35306  17.648   1.363  15.632  0.1319 -0.0595  0.3625
18460W        W35307  11.927  10.468   2.943 -0.0406  0.1346 -0.0383
18461W        W35308  12.211  16.536   5.117 -0.3050 -0.1766 -0.2269
18462W        W35309   3.313   1.250   4.919 -0.1366  0.1740 -0.1615
18463W        W35310   6.221  13.762   4.067 -0.2610  0.0977 -0.2820
18464W        W35311  12.414  17.469  14.774  0.2116  0.1750  0.1095
18465W        W35312   9.511  14.801   2.666  0.0153  0.1285 -0.0099
18466W        W35313  15.516   3.977  14.916 -0.0583 -0.0191 -0.0194
18467W        W35314  14.016   1.789   1.651  0.0883  0.2537 -0.3053
18468W        W35315   0.904  14.612  12.355  0.0493  0.0926 -0.1523
18469W        W35316  15.441   7.560   1.514  0.0361  0.1727  0.0243
18470W        W35317  13.749   1.356   0.184  0.1648  0.0576  0.1102
18471W        W35318  14.658   2.267   6.030 -0.1640 -0.1991  0.0702
18472W        W35319  12.022  12.295  11.609 -0.1287  0.2412  0.0520
18473W        W35320  12.551  15.111   1.899 -0.0279  0.1323  0.2381
18474W        W35321  17.053  15.352  12.956 -0.0576  0.3346 -0.1675
18475W        W35322  13.615  16.596   4.018 -0.1459 -0.0290  0.2554
18476W        W35323   2.484  15.799   2.312 -0.1235 -0.2682 -0.0643
18477W        W35324  11.132  16.053   5.525 -0.1038  0.0311  0.1942
18478W        W35325  14.731   5.194   0.897  0.0303 -0.1594 -0.0606
18479W        W35326   8.938  16.158  14.573  0.3871 -0.1460 -0.0596
18480W        W35327   0.949  13.529  15.872 -0.0151 -0.0498  0.1889
18481W        W35328   1.704   4.777  11.606  0.0552 -0.0665 -0.1954
18482W        W35329   5.922   6.973  15.342 -0.0169  0.1376  0.0286
18483W        W35330  15.978  16.087   2.010 -0.1586 -0.2071  0.1246
18484W        W35331  10.537  15.260  14.775  0.1994 -0.1737  0.0428
18485W        W35332  11.077   5.743  14.643  0.2842 -0.3226  0.2608
18486W        W35333   9.850   9.833   0.725 -0.0800 -0.0867  0.1328
18487W        W35334  12.611   7.631  14.559 -0.0525 -0.0707  0.3629
18488W        W35335   8.051  10.879   5.407 -0.0450 -0.1487  0.2586
18489W        W35336  13.793  16.195   3.761  0.0642 -0.3893 -0.0076
18490W        W35337   4.708   6.649   0.013 -0.0623  0.1815 -0.0275
18491W        W35338  10.424   7.049  15.834 -0.1334 -0.0529 -0.3290
18492W        W35339  13.560   7.619  14.750  0.1648  0.1301  0.1627
18493W        W35340  12.164   4.492  14.379  0.0130 -0.0893  0.1731
18494W        W35341   5.139  12.448  12.888 -0.1611  0.0953  0.1523
18495W        W35342  12.565   8.702   3.722  0.0144 -0.0832 -0.3426
18496W        W35343   5.251   7.093  10.597  0.2442 -0.1432  0.0785
18497W        W35344  10.788   0.512  14.832 -0.0831 -0.2145  0.1762
18498W        W35345   0.770   0.058   2.830 -0.0746  0.1277 -0.3391
18499W        W35346  15.422   1.681   3.365 -0.1598  0.0118 -0.2845
18500W        W35347   2.723   9.506   3.973  0.0457  0.1905  0.1511
18501W        W35348   2.801   8.539  12.435 -0.1335  0.2066  0.1642
18502W        W35349  13.840   3.213  13.083 -0.2439 -0.4240 -0.0445
18503W        W35350  15.045   9.171   1.647  0.0733  0.1121 -0.1508
18504W        W35351   6.851   2.758   2.282  0.2929 -0.0362 -0.0030
18505W        W35352   1.929  11.869   5.486 -0.2792  0.1740  0.0349
18506W        W35353   6.795   4.960  11.667  0.1964 -0.0837 -0.0365
18507W        W35354  17.877  13.072   4.046  0.1496 -0.0428  0.1408
18508W        W35355  11.386  16.471   5.373  0.2170  0.1789  0.0801
18509W        W35356  10.851   5.137   1.344 -0.0376  0.0950 -0.2476
18510W        W35357   4.096  15.165   2.212 -0.1093  0.1419 -0.1667
18511W        W35358   4.224   8.802   1.367 -0.0854  0.1342  0.1007
18512W        W35359   4.572  13.574   0.303  0.3436  0.1105 -0.3224
18513W        W35360  12.130  15.410  12.712 -0.1306  0.3584  0.1697
18514W        W35361  15.057  15.799  14.987 -0.1430  0.3184 -0.2690
18515W        W35362  17.088   2.195  16.499 -0.1673  0.0077 -0.1042
18516W        W35363  13.802   7.175  12.502  0.0482  0.1199 -0.1366
18517W        W35364   4.405   5.745   2.827 -0.1949  0.2172 -0.0414
18518W        W35365   6.188  17.306   0.909  0.2591 -0.2652  0.1312
18519W        W35366   7.683   1.757   4.501 -0.0657 -0.1989 -0.1174
18520W        W35367  14.004   5.358   2.076 -0.4588  0.2736 -0.0755
18521W        W35368   9.535   7.848  13.961  0.0712 -0.0350  0.2811
18522W        W35369  15.313   1.121   1.552 -0.0309  0.1662 -0.4001
18523W        W35370   7.347  13.049  13.764 -0.0796 -0.1669  0.0164
18524W        W35371   2.726   4.227  14.867  0.1946 -0.1409  0.0197
18525W        W35372   9.814  14.991  15.024 -0.0340  0.2305 -0.1069
18526W        W35373   9.134   9.583  12.945 -0.0037 -0.0947 -0.1029
18527W        W35374  18.145   1.522   0.651 -0.2491 -0.1390  0.1682
18528W        W35375  16.793   6.769   3.937 -0.0046 -0.2563 -0.1398
18529W        W35376  17.834  15.686   1.208 -0.0466  0.1715 -0.1054
18530W        W35377   6.093   2.370   4.665 -0.0388  0.3218  0.1542
18531W        W35378   9.907   2.942   1.593  0.3780 -0.1117 -0.0075
18532W        W35379   6.848  12.932  15.417  0.0241  0.0712 -0.1381
18533W        W35380  13.926  12.216  13.306  0.1976  0.0670 -0.2827
18534W        W35381   3.747  10.772   4.530 -0.0250  0.2782  0.2602
18535W        W35382  11.017  18.149  13.256  0.0026  0.1078 -0.1361
18536W        W35383   2.426  10.107  13.932  0.1206 -0.0281  0.1404
18537W        W35384   0.818  13.854  12.991  0.2506  0.0957 -0.1557
18538W        W35385   1.106   6.374  15.375  0.2935 -0.0849 -0.0316
18539W        W35386   1.853  12.570   6.535 -0.0006 -0.1504  0.0560
18540W        W35387  16.421   6.232  11.938  0.0119  0.1622 -0.1661
18541W        W35388  11.357  16.575  11.497 -0.1135 -0.0848  0.0821
18542W        W35389   6.239  15.322   5.072 -0.0081  0.0404 -0.1737
18543W        W35390  16.127  16.630   1.303 -0.1247 -0.3706 -0.5317
18544W        W35391  17.213  10.696  14.577  0.3038 -0.0631  0.1304
18545W        W35392   8.423   9.313   4.842 -0.1411  0.2747 -0.1137
18546W        W35393   1.420   7.233   0.225 -0.2337  0.1499  0.1310
18547W        W35394   6.888   5.177  12.228  0.0696 -0.2774  0.0768
18548W        W35395  13.523  10.983  16.037 -0.0078  0.0014 -0.0694
18549W        W35396  14.749  15.203   3.572  0.1254 -0.1127 -0.0537
18550W        W35397   9.949   4.648  11.158 -0.0955 -0.0832 -0.2385
18551W        W35398  17.362  12.407  13.138 -0.1943 -0.1068  0.1700
18552W        W35399   6.533   5.575  12.908 -0.2486 -0.2506  0.0254
18553W        W35400  18.018   5.131   2.314 -0.2226 -0.1105  0.0988
18554W        W35401   2.831   2.932   5.424 -0.0090  0.2115 -0.1302
18555W        W35402   1.009   1.111   2.463 -0.1971  0.1566 -0.0611
18556W        W35403   3.418   6.233   4.941 -0.3404 -0.1771  0.0149
18557W        W35404   6.055  11.546   6.094 -0.2493 -0.1283  0.2162
18558W        W35405  12.793  17.643  13.868 -0.0656  0.4293 -0.3753
18559W        W35406  18.043  14.328  13.231 -0.0888  0.1593 -0.0505
18560W        W35407   1.159  15.023  12.189 -0.4467 -0.1542  0.0728
18561W        W35408   7.941   4.695   0.858 -0.1179  0.0095 -0.1062
18562W        W35409   5.269  16.182  11.907 -0.1198 -0.2451  0.0160
18563W        W35410   5.286  14.782   2.541  0.2568 -0.0399  0.5542
18564W        W35411  11.919  14.980   1.865 -0.1560  0.2332 -0.0810
18565W        W35412   6.469   9.026   4.316  0.1518  0.1602 -0.2362
18566W        W35413  17.594  10.802   5.610 -0.2332  0.0367  0.2364
18567W        W35414   7.937  16.200   0.567 -0.0328  0.4810  0.0720
18568W        W35415  15.452   8.206  15.292  0.0608 -0.1433  0.0288
18569W        W35416   6.714   5.589   3.866  0.0765 -0.2735 -0.0960
18570W        W35417   4.990  15.484  14.125  0.1645  0.1530 -0.1594
18571W        W35418  15.077  14.415   4.151  0.1730 -0.0675 -0.0757
18572W        W35419   7.165  12.864  12.977  0.2358 -0.4356  0.2245
18573W        W35420   3.863   1.289  14.929  0.0156 -0.0923  0.0605
18574W        W35421   7.726  12.200   3.897 -0.0409 -0.2071 -0.1116
18575W        W35422  14.321  10.998   5.419 -0.1669  0.1309  0.0218
18576W        W35423  17.994   3.619   3.541  0.0080  0.0949  0.0991
18577W        W35424  14.018  11.270   1.424  0.2554  0.1915 -0.1955
18578W        W35425  14.034   8.410  14.999 -0.0052 -0.0606 -0.0763
18579W        W35426  14.252  17.740   5.206 -0.3488 -0.2914 -0.3495
18580W        W35427   5.507   0.921   5.693 -0.2622  0.1142  0.4542
18581W        W35428   7.292   9.097   1.434  0.0256  0.0461 -0.1185
18582W        W35429  10.649   5.771   5.383 -0.2862 -0.0108 -0.0729
18583W        W35430  16.696   6.714   1.962  0.1260 -0.3708  0.1486
18584W        W35431   4.635   2.482  14.283 -0.0289 -0.0922  0.1128
18585W        W35432  14.722   0.200   0.835  0.4483 -0.0039 -0.1136
18586W        W35433   2.277  17.218  11.842 -0.0096 -0.0476 -0.0304
18587W        W35434  17.253   3.076   5.800  0.1157  0.1412 -0.0898
18588W        W35435  13.564   5.912   4.410  0.0579 -0.0399 -0.1908
18589W        W35436  12.786  12.566  11.852 -0.1313 -0.2004  0.0497
18590W        W35437   6.055  15.510   4.577  0.0832  0.2110 -0.2424
18591W        W35438  16.548   1.526  14.692  0.0615  0.0431 -0.0764
18592W        W35439  15.460   0.413  11.477  0.0913  0.1787  0.0150
18593W        W35440   8.250   1.570   1.779  0.0331 -0.0550  0.1826
18594W        W35441  10.097  10.576   2.689  0.3294  0.0430  0.1589
18595W        W35442   3.880   2.507   4.850 -0.0439 -0.3691 -0.1884
18596W        W35443   6.598  15.189   0.385 -0.2333  0.4090  0.2167
18597W        W35444  11.641   5.605  14.616 -0.2214 -0.1799 -0.0689
18598W        W35445  16.786   5.573  13.255  0.0496  0.1082 -0.3076
18599W        W35446   8.333  13.971   0.379  0.2283 -0.2091 -0.2103
18600W        W35447  10.280  10.758   2.005  0.0739  0.0143 -0.1630
18601W        W35448  11.459  10.563   4.652  0.1406  0.2053  0.2509
18602W        W35449   0.131   1.745  13.513  0.1007 -0.0847  0.1263
18603W        W35450  16.394   0.981   5.653  0.0026 -0.1685  0.0603
18604W        W35451   2.174   4.064  15.564  0.2189  0.1177  0.1314
18605W        W35452  11.720  17.847  12.562  0.0929 -0.1647  0.3193
18606W        W35453   1.376   4.180  16.095  0.2828  0.1577 -0.0108
18607W        W35454  14.492  13.212  12.529 -0.1666  0.4846 -0.0339
18608W        W35455   3.328  18.174  13.767 -0.2039 -0.3089  0.0295
18609W        W35456   7.420  13.374  11.637  0.3797  0.0305  0.1619
18610W        W35457  13.190   2.089  15.301  0.0368 -0.0517 -0.1247
18611W        W35458  16.803  12.186  13.700 -0.0043  0.1498  0.0166
18612W        W35459   5.122   4.634   4.152  0.0616  0.1071 -0.1821
18613W        W35460   0.726   6.071  11.352  0.0362  0.0008 -0.3408
18614W        W35461   2.711   6.766  15.228 -0.2614 -0.0502 -0.0273
18615W        W35462  16.074   2.255  16.449  0.2209  0.3126 -0.1377
18616W        W35463  14.143   2.902   0.061 -0.1100  0.1015  0.1999
18617W        W35464  17.335  14.837  12.092 -0.0606 -0.0274 -0.1843
18618W        W35465  15.792  11.813   3.780  0.1472  0.0034  0.1869
18619W        W35466   3.933  15.374   4.786  0.0109 -0.2345  0.0304
18620W        W35467   9.623  13.117  15.250  0.0025  0.0894  0.1581
18621W        W35468  11.687   5.910  15.834  0.0768  0.4109 -0.2228
18622W        W35469  12.892   3.223  16.188  0.0777 -0.0768 -0.0759
18623W        W35470   8.825   6.970  11.203 -0.1072  0.0657  0.0947
18624W        W35471  14.788   2.619   4.221 -0.0701  0.1728 -0.0693
18625W        W35472   2.551  14.036  15.774 -0.1024 -0.0778  0.0547
18626W        W35473   0.412  16.696   0.284  0.1572  0.1962 -0.1573
18627W        W35474  11.093  15.106  12.519 -0.5014 -0.1558  0.2656
18628W        W35475  15.322   5.075   2.525 -0.0936 -0.0032  0.3147
18629W        W35476  16.976   4.096   3.373 -0.2857  0.1910  0.0870
18630W        W35477   3.553  13.890  12.719 -0.0288  0.2266 -0.1973
18631W        W35478  11.713   5.045  15.572 -0.0640 -0.1321 -0.2092
18632W        W35479  14.836   1.081   4.609  0.2724 -0.0087  0.0001
18633W        W35480  14.502   0.754  13.964  0.2353  0.2520  0.0105
18634W        W35481   0.546   9.649   2.381 -0.0649 -0.1954  0.2921
18635W        W35482   2.115   3.488   5.237  0.2672  0.0689  0.0735
18636W        W35483  10.177   1.042   3.489  0.0790 -0.0584 -0.0599
18637W        W35484  17.205   5.588  12.914 -0.0150  0.2171  0.0392
18638W        W35485   1.078  10.598   4.483 -0.0360  0.1100 -0.3141
18639W        W35486   9.281   5.899   0.121 -0.1759 -0.1717  0.1971
18640W        W35487   5.541   1.166   4.093 -0.0663 -0.0934 -0.0344
18641W        W35488   2.469  10.695   5.902  0.0128 -0.0981 -0.3289
18642W        W35489   9.675  17.147  16.146 -0.0296 -0.1534  0.1695
18643W        W35490  11.984   2.320  15.312  0.3359 -0.0921  0.0548
18644W        W35491   1.664   2.354  16.333  0.0355  0.1238 -0.0483
18645W        W35492   5.897   2.789  15.477 -0.2965 -0.0732 -0.0773
18646W        W35493  12.501   1.565  13.689  0.0869 -0.1395 -0.1763
18647W        W35494   3.058  11.585   4.064  0.0850 -0.1354  0.0087
18648W        W35495  14.018  10.873   2.182 -0.0604  0.3636  0.0282
18649W        W35496  14.235   8.440  13.572 -0.1390 -0.0990 -0.0348
18650W        W35497   5.373  16.666   6.637  0.2114  0.1689  0.1330
18651W        W35498   4.320  17.729  11.856  0.3630 -0.1203  0.2779
18652W        W35499  10.644  10.284   0.939 -0.0090 -0.0861  0.4846
18653W        W35500   0.796  13.226   5.100  0.1257  0.4161  0.1564
18654W        W35501  11.947   5.820  15.054 -0.4011 -0.1892  0.1367
18655W        W35502  15.486   7.602   5.415  0.1564  0.1801  0.2854
18656W        W35503   6.035   0.937  16.592  0.2369 -0.2112 -0.0334
18657W        W35504  13.624  13.007   0.794  0.2319 -0.2565 -0.2081
18658W        W35505  14.825   7.779  11.500  0.1972 -0.3680  0.0210
18659W        W35506  13.667   4.457   2.053  0.2541  0.1369 -0.1483
18660W        W35507  17.545   3.103  11.495 -0.0184  0.1902 -0.0417
18661W        W35508  14.951  10.283  13.654 -0.1596  0.0459  0.1020
18662W        W35509  11.321   7.178   4.757 -0.2562  0.1554  0.0383
18663W        W35510  15.443   7.423   0.310  0.2650  0.1999  0.1078
18664W        W35511  12.673   1.813  14.688 -0.3420 -0.2573  0.2165
18665W        W35512   4.556   7.332   0.524  0.1117  0.0179 -0.0300
18666W        W35513   5.721  14.590  15.044  0.1532  0.0217  0.0667
18667W        W35514  12.809  16.641   2.679  0.3767  0.1455 -0.5135
18668W        W35515   1.869   8.265  15.494 -0.0201 -0.2560 -0.3367
18669W        W35516  13.144  11.081  15.261 -0.1765 -0.1124 -0.0569
18670W        W35517  17.719  17.052   2.470  0.2092 -0.0839  0.3024
18671W        W35518  13.654   5.872   3.527  0.0399  0.0069  0.1966
18672W        W35519  13.894  15.151   4.753 -0.0841 -0.0544 -0.1743
18673W        W35520  10.172   6.336   2.267  0.0775  0.1954 -0.0136
18674W        W35521   5.161  11.008  15.580 -0.0985 -0.2429 -0.0001
18675W        W35522   7.403  10.863  12.477  0.2538 -0.0859 -0.5093
18676W        W35523   9.881  17.739  13.639  0.0724  0.0034 -0.1444
18677W        W35524   4.603  12.563  12.371 -0.0429  0.1445 -0.0254
18678W        W35525  13.230   2.562   0.728 -0.0419 -0.0472  0.1138
18679W        W35526  18.132  13.010   6.533 -0.1507 -0.3311  0.2363
18680W        W35527  11.889  11.624   3.499  0.2015 -0.0703 -0.3130
18681W        W35528   4.828  17.401   2.041  0.3320  0.3489 -0.1778
18682W        W35529  18.025  18.144   0.201 -0.3554 -0.3145  0.3382
18683W        W35530  14.353  11.307   5.032  0.3411  0.1169 -0.0233
18684W        W35531  13.913   4.729   4.415  0.0081  0.0509 -0.0168
18685W        W35532  17.589   1.682  16.569 -0.1651 -0.0621  0.0053
18686W        W35533  18.092   9.261  16.471  0.2004  0.1991  0.0176
18687W        W35534   9.999   6.274  13.850  0.4078 -0.0433  0.2247
18688W        W35535  16.314  13.835  12.155  0.0052  0.0223 -0.2169
18689W        W35536  10.359  11.071   4.869 -0.0565  0.2214  0.1914
18690W        W35537   9.505  12.595  15.035  0.4133  0.2045  0.1524
18691W        W35538   3.871   2.440  14.026  0.0937 -0.4126  0.0140
18692W        W35539   6.611   5.669   1.909  0.0874  0.0291 -0.0487
18693W        W35540   6.593  10.241  16.435 -0.1289  0.0540  0.0521
18694W        W35541   8.578   8.695  12.024  0.3663  0.1113  0.2568
18695W        W35542  14.318   7.808   3.930 -0.0500  0.1729 -0.0303
18696W        W35543   6.008   7.101  13.767 -0.0500 -0.2283 -0.0059
18697W        W35544   6.024   5.578  14.863  0.1536  0.6550  0.0469
18698W        W35545  13.842  13.769   2.595 -0.1235  0.0956  0.0069
18699W        W35546   2.912   0.301  12.275 -0.0732  0.2856 -0.2658
18700W        W35547  14.204   7.418   0.159  0.0002  0.0028  0.0368
18701W        W35548   3.382   2.851   5.446  0.1184 -0.1618  0.0280
18702W        W35549  11.327  13.717   0.801 -0.1624 -0.1370  0.1479
18703W        W35550   1.930  14.556   3.066  0.2419  0.0839 -0.0105
18704W        W35551  15.960   8.585  11.576 -0.1563 -0.0363 -0.0628
18705W        W35552   7.593   5.431   2.221  0.1318 -0.2144 -0.1796
18706W        W35553   8.176  14.143   5.596  0.3184 -0.0009  0.0973
18707W        W35554  18.148   1.771   2.486 -0.0794 -0.0920  0.1982
18708W        W35555   9.257   4.978   1.873 -0.3504 -0.2017  0.1998
18709W        W35556   7.036   1.204   3.153  0.0400 -0.1536  0.1007
18710W        W35557  17.541  16.214   5.057  0.0271 -0.2385 -0.3338
18711W        W35558   4.262  13.784   3.719 -0.1804  0.0782 -0.0876
18712W        W35559   1.147   7.230   4.188 -0.0368 -0.1697  0.0071
18713W        W35560   8.982  16.868  11.905  0.1017  0.1693  0.0340
18714W        W35561  13.507   0.986   2.313 -0.2438  0.0126  0.0928
18715W        W35562   7.256  15.850  12.901  0.0750 -0.1530  0.0188
18716W        W35563  16.256  12.295   4.303  0.1733 -0.1523 -0.2108
18717W        W35564  10.610   5.005  14.227 -0.0496  0.0042 -0.2390
18718W        W35565   4.982  17.089  14.340 -0.0935  0.2170  0.2760
18719W        W35566   3.973  14.782   2.593  0.0115 -0.1379 -0.0068
18720W        W35567   5.435   1.904   1.790  0.0419 -0.2437 -0.1477
18721W        W35568   1.085   6.309   0.410  0.0867  0.2323  0.1834
18722W        W35569  15.297  17.088   1.613 -0.3210 -0.3051 -0.0872
18723W        W35570  12.476   2.181   1.087  0.3464 -0.0852  0.0671
18724W        W35571   5.618   3.035  15.139 -0.0778 -0.0805 -0.0355
18725W        W35572   8.161  17.336  13.946  0.0468 -0.1099 -0.0373
18726W        W35573  13.374  18.068  13.670  0.1018 -0.2869  0.0396
18727W        W35574  17.347   0.188   5.911  0.3348  0.1737  0.0423
18728W        W35575  15.348   0.158  15.867  0.1771  0.0580  0.2429
18729W        W35576   8.407   9.345  16.466  0.1789 -0.1900 -0.1048
18730W        W35577   3.939   2.158  14.456 -0.0234  0.0582 -0.0694
18731W        W35578   3.965   2.055   4.741 -0.1997  0.1153  0.0021
18732W        W35579   3.194  10.176  15.365  0.0802 -0.0190 -0.3393
18733W        W35580  14.451  17.508  16.434  0.3925  0.1360 -0.2119
18734W        W35581  14.328   6.177   0.016  0.0855 -0.1871 -0.1205
18735W        W35582  11.725   6.671  15.502  0.4822 -0.1709 -0.0161
18736W        W35583   9.823   3.380   4.668 -0.0062 -0.1583 -0.2066
18737W        W35584  10.486   9.760   0.122 -0.0661  0.0518 -0.2733
18738W        W35585  13.184  12.850  15.684  0.1160  0.0652 -0.0534
18739W        W35586   4.918  13.053   5.019  0.0481  0.3175 -0.0351
18740W        W35587   1.003  10.752  11.908 -0.0587 -0.3458 -0.0440
18741W        W35588   2.029   7.335   5.472  0.1288  0.2505 -0.1891
18742W        W35589  10.281  13.929  16.388  0.1761 -0.2894  0.3559
18743W        W35590   4.091   4.018  15.736 -0.0254 -0.1132 -0.2122
18744W        W35591  14.633   3.274   0.882  0.0189  0.1465  0.3262
18745W        W35592   6.058  11.499  13.100  0.0807 -0.2867 -0.0797
18746W        W35593   5.124   1.134  11.796 -0.3180 -0.0196  0.1644
18747W        W35594   6.123  13.495   3.131  0.1206 -0.1209  0.2430
18748W        W35595  16.188   4.484  15.587  0.0668 -0.0761  0.1421
18749W        W35596  14.309  15.788  15.696  0.0035 -0.0124  0.1666
18750W        W35597   4.910  11.773   0.567  0.1849  0.0483 -0.0954
18751W        W35598   9.948  16.495  14.155 -0.1520 -0.1017 -0.1940
18752W        W35599   6.302   1.504   4.520 -0.0392 -0.0987  0.0795
18753W        W35600  11.838   9.453   1.442  0.0767  0.0736  0.2218
18754W        W35601   0.214   2.748  12.645  0.1266 -0.1011  0.1273
18755W        W35602  12.801   1.888  12.036  0.3921  0.0045  0.0161
18756W        W35603  17.747   5.827   3.577 -0.1514 -0.0236  0.1363
18757W        W35604   6.641   9.038   4.794  0.1518 -0.0987  0.0320
18758W        W35605  13.338  11.577   0.027  0.1320 -0.0816 -0.0621
18759W        W35606   0.182   8.362  12.227  0.0006  0.0618 -0.0612
18760W        W35607   9.939   5.931   2.170  0.0214 -0.2669  0.3900
18761W        W35608   6.112  13.442  16.257 -0.0922 -0.1112 -0.0618
18762W        W35609   3.480   7.719  10.425 -0.0910  0.0144 -0.0781
18763W        W35610  12.817  13.601  12.464  0.1408 -0.0802  0.2062
18764W        W35611   4.593   8.120  12.077 -0.3950 -0.0106 -0.1430
18765W        W35612   6.484   8.952   2.971  0.0801  0.2444  0.0569
18766W        W35613  11.570   7.475   0.889 -0.0049  0.1962  0.0779
18767W        W35614   1.373   4.308  12.336  0.0133 -0.1924 -0.2048
18768W        W35615  11.373  14.419   1.079 -0.2246 -0.1948 -0.0418
18769W        W35616   6.526   3.582   4.485  0.1802 -0.0532 -0.0576
18770W        W35617   2.602   0.522   5.942  0.1550 -0.0800  0.1876
18771W        W35618  14.469  10.003  13.539  0.0905 -0.0454  0.0731
18772W        W35619   5.631   5.550  11.905 -0.3081  0.1037  0.5790
18773W        W35620  17.363   1.053   5.581  0.0131 -0.2162 -0.0146
18774W        W35621   6.887   0.772  12.795  0.2143  0.0512 -0.0325
18775W        W35622   2.154   5.296   1.088 -0.1738  0.0965  0.1597
18776W        W35623   9.833  12.912   4.665 -0.0435  0.0360 -0.1449
18777W        W35624  16.671  10.732  14.798  0.1117 -0.0789 -0.4834
18778W        W35625  13.309   8.680  14.511  0.3701 -0.0925 -0.1375
18779W        W35626  12.658   4.631   0.006 -0.0739 -0.0178 -0.0378
18780W        W35627  13.868  13.273   5.763 -0.0164  0.3155 -0.3184
18781W        W35628   7.370   0.462  15.276 -0.2850  0.2276  0.1041
18782W        W35629  18.013  10.942  12.071 -0.1498 -0.2477  0.3319
18783W        W35630  15.544   6.815  12.942 -0.2736 -0.1906 -0.1085
18784W        W35631   3.822  17.158   5.122  0.0326 -0.1543 -0.0951
18785W        W35632  13.530  17.350  12.863 -0.1101  0.2825 -0.1730
18786W        W35633  17.222  12.996  16.168  0.0901 -0.3595  0.3253
18787W        W35634   2.700   0.324  15.485 -0.1530  0.0222  0.1802
18788W        W35635   2.188  12.003  13.897 -0.0886  0.0213 -0.2150
18789W        W35636   2.753  11.481   1.756  0.1437 -0.5468  0.0419
18790W        W35637   9.748   1.218   3.691 -0.2780 -0.0771 -0.0476
18791W        W35638  10.530   1.215   5.691 -0.2618  0.0166  0.1191
18792W        W35639  17.367   6.755   5.341 -0.0709 -0.2716  0.0454
18793W        W35640   2.045  12.197   0.037  0.0521  0.2215 -0.1394
18794W        W35641  13.636  11.306   3.842 -0.1519  0.0337  0.2044
18795W        W35642   5.828   7.506  11.115 -0.1640  0.1433  0.1939
18796W        W35643   5.993  17.720   4.672  0.0961 -0.1627 -0.0839
18797W        W35644   0.554   6.220   2.579 -0.0403  0.0880 -0.0430
18798W        W35645   5.856  16.284   0.823 -0.1737 -0.0640 -0.0365
18799W        W35646  14.782   5.009   1.971  0.2445  0.1502  0.2608
18800W        W35647   6.005   1.277   4.215 -0.0927 -0.2142 -0.0112
18801W        W35648  13.162   7.158  13.296  0.0376  0.0784  0.0214
18802W        W35649   9.263  16.940  13.670  0.1829 -0.0586 -0.3757
18803W        W35650   9.097  16.059   1.458  0.0867  0.0409 -0.0487
18804W        W35651   9.190   7.758  15.106 -0.0620 -0.3457  0.0861
18805W        W35652   0.141   1.095   3.460 -0.0124 -0.0669 -0.1083
18806W        W35653   6.121  16.589   4.730  0.2169  0.1716  0.1426
18807W        W35654  16.783   4.584   0.848  0.1968 -0.3317  0.0747
18808W        W35655   7.286   6.419   0.250 -0.0934  0.1764 -0.2866
18809W        W35656   1.690   4.167  16.598  0.0710  0.0258 -0.1584
18810W        W35657  15.091   0.565   4.310  0.1170 -0.0666 -0.0449
18811W        W35658   8.784   2.184   2.696 -0.0282 -0.1053 -0.1670
18812W        W35659   8.381  13.620   2.962 -0.2040 -0.2424  0.1828
18813W        W35660  12.714  13.098   0.909 -0.1788 -0.0012 -0.1230
18814W        W35661  15.760  11.018  15.189 -0.1436  0.3532  0.0181
18815W        W35662   0.010  14.381  14.057 -0.2289 -0.0165  0.0240
18816W        W35663   2.552  12.142  14.178 -0.1659 -0.3161 -0.1452
18817W        W35664   2.522  17.775   2.869  0.0346 -0.3494  0.0371
18818W        W35665  11.171   0.415  15.771 -0.0439 -0.1335  0.0324
18819W        W35666  11.343  10.418   0.740  0.2677 -0.0094 -0.0273
18820W        W35667  13.801  12.520   3.194 -0.1722 -0.4662  0.1749
18821W        W35668  14.629   8.049   2.297 -0.2336  0.3138 -0.2882
18822W        W35669   4.407  11.652  12.615 -0.2253  0.3460 -0.0105
18823W        W35670   3.101  11.717  14.886 -0.2140  0.0330  0.0226
18824W        W35671   1.070   8.639   0.436 -0.0685 -0.3561  0.2302
18825W        W35672   5.071   2.373  12.130 -0.0954 -0.3953 -0.4579
18826W        W35673   3.314  15.856   1.317  0.3519  0.0069 -0.2661
18827W        W35674  14.225  16.743  14.490 -0.0222 -0.0409 -0.3071
18828W        W35675   2.817  14.457  14.078 -0.0378  0.1090 -0.0090
18829W        W35676  14.443  13.351   1.757  0.1203 -0.0882  0.0816
18830W        W35677  11.845  11.234  11.288  0.0010  0.0364 -0.0406
18831W        W35678   8.938   9.166   3.509  0.2446  0.3892 -0.0585
18832W        W35679  11.747  10.641   3.904  0.1705  0.0676 -0.1396
18833W        W35680   3.579   8.339  12.946  0.0309  0.2144  0.1855
18834W        W35681   5.562  17.959   5.475 -0.0736 -0.1435 -0.3865
18835W        W35682  17.062   7.526  12.168 -0.0197  0.0435 -0.1103
18836W        W35683   9.378  13.839   4.750  0.0915 -0.0745  0.1101
18837W        W35684  11.878  15.794  13.630 -0.1249  0.0514  0.2329
18838W        W35685  10.270  13.910  15.490 -0.0478  0.0029 -0.1300
18839W        W35686   3.185  14.101  14.099  0.1018  0.2415 -0.0312
18840W        W35687  15.840   1.904   0.124 -0.0873  0.1631  0.0389
18841W        W35688  17.677   8.032   4.064 -0.1292  0.0142 -0.0110
18842W        W35689   0.891  17.956  14.385  0.1482  0.0621  0.1402
18843W        W35690   4.891  17.760   0.634 -0.0698 -0.1353 -0.0606
18844W        W35691   1.244   9.688  13.287  0.0025  0.0879  0.1678
18845W        W35692  16.045   4.899  15.147 -0.2756  0.0080  0.1680
18846W        W35693   4.244   2.355   1.420  0.3367  0.2334 -0.2850
18847W        W35694   9.239  12.664   3.196  0.1063 -0.1767 -0.0278
18848W        W35695  13.940   7.646   4.953 -0.3465 -0.4062 -0.1633
18849W        W35696  10.384   4.758  12.291  0.0516  0.0114  0.1403
18850W        W35697   0.389  10.728   2.079  0.2208  0.0079  0.0225
18851W        W35698   8.399   0.935   1.888 -0.1405  0.2518  0.0119
18852W        W35699   0.433   4.201  15.896 -0.1510  0.0570  0.1986
18853W        W35700   4.208  10.838  14.647  0.0713  0.0655 -0.2039
18854W        W35701   7.166   1.980  14.968 -0.0036  0.0253 -0.1365
18855W        W35702   3.955   1.835   1.477  0.1134 -0.2065 -0.0119
18856W        W35703   9.434  12.009  13.919  0.1958 -0.0681  0.2396
18857W        W35704  18.022   6.269   0.749 -0.2996  0.0242 -0.0240
18858W        W35705  15.029  17.742  13.538  0.0890  0.1750 -0.2252
18859W        W35706   6.227  14.609  15.865 -0.3290 -0.0998  0.3032
18860W        W35707  17.727   9.900   2.716  0.1915 -0.2973  0.1148
18861W        W35708   7.005   2.190  14.513 -0.1101  0.0238  0.1283
18862W        W35709   5.520  11.582  13.067 -0.0311  0.2314  0.4248
18863W        W35710  10.758  16.021  11.826  0.0749 -0.0568 -0.4592
18864W        W35711   3.763   1.776  16.286  0.1081  0.2642 -0.4688
18865W        W35712  12.947  12.130  15.638  0.0360 -0.0778 -0.5802
18866W        W35713  12.645   1.590   4.975  0.1488 -0.0710  0.0125
18867W        W35714   6.411   4.970  14.350 -0.1783  0.1114 -0.1984
18868W        W35715   5.093  10.104  12.639 -0.3155  0.1639  0.0130
18869W        W35716   3.897   8.862  13.879 -0.0180  0.2012  0.1316
18870W        W35717   6.883  13.612   2.886 -0.2025  0.0586 -0.1054
18871W        W35718  14.283  10.148   3.583  0.4066 -0.1970 -0.0606
18872W        W35719  18.046  12.855   3.138  0.2526  0.0970 -0.0717
18873W        W35720   1.720  10.802  16.143 -0.0300 -0.1499  0.0277
18874W        W35721  15.514  13.008   2.729 -0.3619  0.0164 -0.1768
18875W        W35722   0.294  12.496  14.946  0.1178  0.3203  0.0957
18876W        W35723   1.124   0.032  11.823  0.0472  0.1826 -0.0271
18877W        W35724   8.114   2.010   4.557  0.1467 -0.1989  0.2102
18878W        W35725  16.768  13.799  14.908  0.2093 -0.0561 -0.0904
18879W        W35726   4.627   2.440   4.502 -0.0904 -0.0140 -0.1542
18880W        W35727   2.453  13.086   4.925  0.1177 -0.0121 -0.1420
18881W        W35728   7.626  11.674   4.919 -0.0947  0.0389  0.0427
18882W        W35729   1.289   1.950  14.032  0.3905 -0.0112  0.1456
18883W        W35730   6.729   8.818  12.457 -0.0755  0.2697  0.2693
18884W        W35731  10.653   5.118  11.900  0.1210 -0.0825 -0.3719
18885W        W35732   0.333   4.721  14.467  0.0829 -0.0750 -0.3129
18886W        W35733   9.636  14.121   3.332 -0.0381 -0.3082  0.0480
18887W        W35734   5.189  10.966  14.420  0.0054 -0.1754 -0.2716
18888W        W35735   1.898  11.923   0.387 -0.1294  0.1607 -0.3761
18889W        W35736  12.544   0.702  16.305 -0.1103  0.0031  0.0103
18890W        W35737  14.266   1.125  11.667 -0.1543  0.1083 -0.2147
18891W        W35738  15.473  16.265   1.337  0.0308 -0.1429  0.1775
18892W        W35739   5.402  13.619   2.076 -0.2111  0.1155  0.1244
18893W        W35740   1.394  12.346  14.235  0.1038 -0.2912  0.0542
18894W        W35741  12.464  10.838  12.555  0.0104  0.2129  0.4116
18895W        W35742   1.434   3.611  15.324 -0.2958 -0.0592 -0.0416
18896W        W35743   9.282  17.768  12.517  0.1825  0.1303 -0.1382
18897W        W35744   2.276   8.865  14.890  0.2916  0.0764 -0.0616
18898W        W35745   4.621   8.018  16.214 -0.1707  0.0321 -0.1494
18899W        W35746   5.564   6.999   2.027  0.1173 -0.0103  0.3684
18900W        W35747   5.422  12.720  16.104  0.2311 -0.3290 -0.2604
18901W        W35748  14.074  17.162  11.448  0.0186  0.2044 -0.1090
18902W        W35749  10.909   7.358  16.467 -0.2166 -0.1873 -0.3157
18903W        W35750   7.082   5.549   5.716  0.2627 -0.1349 -0.2820
18904W        W35751  12.783  13.615  16.016 -0.0315 -0.1697 -0.1183
18905W        W35752  11.303   9.849   4.043 -0.1478 -0.0072 -0.2263
18906W        W35753   4.227   9.240   2.811  0.1151  0.1712  0.0854
18907W        W35754   8.223   8.703  14.010 -0.2579  0.1213  0.0720
18908W        W35755  10.405  14.025   2.736 -0.1114  0.2376 -0.1199
18909W        W35756   8.345   2.605  14.086 -0.2081  0.0112 -0.0161
18910W        W35757   1.744   2.560  11.523  0.0840  0.2114 -0.1698
18911W        W35758   6.367   2.374  11.897  0.3133 -0.2865 -0.0060
18912W        W35759  14.524  17.852  15.406  0.1488 -0.3247 -0.1253
18913W        W35760   7.595   9.353   3.389 -0.0139  0.1269 -0.3425
18914W        W35761  16.401  11.848   5.186 -0.3147 -0.0208 -0.1957
18915W        W35762   7.379  17.339   1.517 -0.0938 -0.1273 -0.3728
18916W        W35763   6.258  14.671  14.892  0.1563 -0.1423  0.0472
18917W        W35764   7.678  14.078   5.436 -0.0956 -0.0337  0.0001
18918W        W35765   0.270   6.158  15.989  0.1337  0.0060 -0.0880
18919W        W35766   4.057   3.781  14.545 -0.0089 -0.3059 -0.0092
18920W        W35767  16.495  13.569   3.929 -0.0545 -0.3219 -0.0565
18921W        W35768   3.772   6.501   3.459 -0.1805 -0.0271 -0.0461
18922W        W35769   2.548  17.607  11.487  0.2843 -0.2754 -0.0531
18923W        W35770   9.654  14.322  13.163 -0.2399 -0.0100  0.0300
18924W        W35771  13.147  11.694   4.356 -0.4269 -0.0192 -0.2267
18925W        W35772  15.378  17.615  13.130 -0.2540  0.1305 -0.5086
18926W        W35773  15.110   1.312   0.044 -0.3422 -0.1285  0.2948
18927W        W35774   9.802   3.126  15.910 -0.2509  0.2033  0.2963
18928W        W35775   4.949   0.727  13.400 -0.0452  0.0125 -0.0868
18929W        W35776  15.747   5.022  12.452 -0.2795 -0.3088 -0.1827
18930W        W35777  10.253  13.666  15.940  0.2124  0.0657 -0.1305
18931W        W35778   2.299  15.849   4.536  0.1105 -0.2925  0.2028
18932W        W35779   4.736  14.038   2.894  0.1282  0.0022 -0.1978
18933W        W35780   2.876  11.501   0.137 -0.1507 -0.2883 -0.1264
18934W        W35781   5.289   3.947   1.241 -0.1010  0.0804  0.0990
18935W        W35782  10.843  13.228   1.596 -0.0344 -0.0584  0.1125
18936W        W35783   7.207   3.383   1.811  0.1074  0.1250  0.1361
18937W        W35784   3.718   9.167  14.689  0.0660 -0.0988 -0.0285
18938W        W35785  14.856   7.261  13.439 -0.0557 -0.1198  0.0641
18939W        W35786   6.153  13.664  13.512  0.0928  0.0273  0.3455
18940W        W35787   8.277   5.010  11.781 -0.2034 -0.2679 -0.1406
18941W        W35788  13.770   6.274  13.432  0.5336  0.1369  0.2285
18942W        W35789  18.163  12.069   5.136  0.0080 -0.0191  0.1536
18943W        W35790   9.682   7.593  16.189  0.0073 -0.0045  0.0798
18944W        W35791   9.986   8.496  16.101  0.0064 -0.1524  0.0191
18945W        W35792   5.322   6.261  13.956 -0.1834  0.0432  0.0676
18946W        W35793  12.326   8.588   1.202 -0.0767 -0.1436  0.1510
18947W        W35794  10.892   9.345  13.339 -0.0835 -0.1779  0.0947
18948W        W35795   9.751   5.657   4.927  0.0531  0.0319  0.1985
18949W        W35796   9.721  14.708   1.643 -0.2411  0.0234  0.1192
18950W        W35797   1.784   9.090  14.001 -0.0547 -0.1113 -0.3331
18951W        W35798  12.024   2.409   1.302  0.4866 -0.2922 -0.0903
18952W        W35799  11.205  16.188   1.863  0.2194  0.0002 -0.2316
18953W        W35800   2.701   9.065  12.441 -0.1795 -0.1781  0.3142
18954W        W35801   7.577  12.997  15.294 -0.0506 -0.0490  0.1419
18955W        W35802  14.365   7.724  11.874  0.5419 -0.0450  0.1431
18956W        W35803   1.906   9.074  16.573  0.0398  0.1550 -0.3391
18957W        W35804   6.387   7.136  15.139  0.0782 -0.0405  0.1186
18958W        W35805   1.235  10.473   1.212  0.2016  0.1729  0.0536
18959W        W35806   0.732   0.792   0.732  0.2190 -0.2479  0.0956
18960W        W35807   6.102   5.762  13.186  0.0385 -0.1973 -0.0865
18961W        W35808   3.963   2.419  12.781 -0.0371 -0.3540 -0.1435
18962W        W35809  17.974   3.679  12.720 -0.3201 -0.0072  0.0292
18963W        W35810   7.397   8.392  12.549  0.0726  0.2258 -0.0231
18964W        W35811   5.379  16.505  13.933  0.0176 -0.1677 -0.3088
18965W        W35812   2.932   9.299   1.989  0.1345 -0.1002 -0.4436
18966W        W35813  10.398  15.062   2.239 -0.0226  0.1494 -0.0763
18967W        W35814   2.014  14.839   2.575 -0.3033 -0.4603  0.0849
18968W        W35815  17.101   8.526  11.989 -0.1652  0.0925 -0.1930
18969W        W35816  14.916  12.465   4.676 -0.1886  0.0745 -0.1268
18970W        W35817  13.228   5.863  12.808  0.0555  0.1316  0.2254
18971W        W35818   0.263  17.971  11.325 -0.1279 -0.0242  0.1020
18972W        W35819   3.805   7.936  11.364 -0.1183 -0.1014 -0.1636
18973W        W35820   5.594   6.424  12.037 -0.2457  0.2188  0.2470
18974W        W35821  18.132  17.895  16.224  0.0193 -0.0631  0.1064
18975W        W35822  17.210  17.006   2.984 -0.1677  0.0373 -0.0146
18976W        W35823   0.252  14.682   1.059 -0.1260 -0.4361 -0.1509
18977W        W35824   2.208  17.113  15.363 -0.1490  0.2990  0.1020
18978W        W35825   1.889  14.871   3.582  0.0621  0.0453 -0.0513
18979W        W35826  16.846  12.179   1.270  0.1321  0.1467 -0.0724
18980W        W35827  10.944   9.336   5.000 -0.1195 -0.0088  0.1153
18981W        W35828   2.312  11.322  14.926 -0.0091  0.2483 -0.0731
18982W        W35829   5.176   0.606   1.675 -0.1065 -0.0747  0.0162
18983W        W35830   7.010   1.033  15.852 -0.1203 -0.0990 -0.0871
18984W        W35831   9.803  13.881   5.355 -0.0539  0.2444  0.1621
18985W        W35832  12.300   9.342   2.601  0.1234 -0.0133 -0.1621
18986W        W35833  12.470   1.215  12.097  0.1825 -0.4123  0.0084
18987W        W35834  17.483  11.035  14.946 -0.0947  0.1039  0.1565
18988W        W35835  11.345   7.552  15.014 -0.2777 -0.1625 -0.3066
18989W        W35836   6.762  11.604  12.305 -0.0832  0.1408 -0.1299
18990W        W35837  15.602   2.259  13.164  0.0777  0.0122 -0.2926
18991W        W35838   7.893   5.657   2.608  0.1967  0.1592 -0.0376
18992W        W35839  14.621  10.296   4.320 -0.1334  0.3024 -0.1056
18993W        W35840   7.407  17.850  14.071 -0.0738  0.0052 -0.0898
18994W        W35841  10.765  12.955  13.386 -0.3119 -0.2225  0.0898
18995W        W35842   3.995  14.626  13.341 -0.0062 -0.0711 -0.0709
18996W        W35843  13.909  15.468   0.274 -0.1460  0.1645  0.0272
18997W        W35844  17.630  13.919  15.991 -0.1943 -0.2436  0.2110
18998W        W35845  12.091   0.238   3.235  0.0567 -0.1751 -0.0721
18999W        W35846  13.349   3.133  14.358  0.0549 -0.1491 -0.1050
19000W        W35847  17.982   0.217   3.568 -0.0178 -0.2323 -0.0053
19001W        W35848   9.255  12.691  14.576  0.0823 -0.0036 -0.0463
19002W        W35849   4.151   3.069   2.270  0.1620 -0.1619  0.0657
19003W        W35850  12.402  17.523   0.579  0.0624 -0.2155 -0.1132
19004W        W35851   4.272   3.522  15.724  0.1207  0.0895 -0.2326
19005W        W35852  13.459   5.498  14.408 -0.0457 -0.2352 -0.1689
19006W        W35853   0.781   6.010  15.282 -0.1826 -0.0563 -0.2263
19007W        W35854   1.814   0.863   0.032 -0.2714  0.1373 -0.0360
19008W        W35855   9.333  16.881  12.677 -0.2580 -0.0943 -0.0821
19009W        W35856   6.710   9.386  13.169  0.1516 -0.0030 -0.1274
19010W        W35857   2.617   9.251   4.666 -0.2105  0.3239  0.2049
19011W        W35858  16.763  14.148   4.449 -0.1135  0.1214 -0.1932
19012W        W35859  15.290   8.499  15.867  0.1399  0.0686 -0.0476
19013W        W35860   9.056  16.272   5.949 -0.2367  0.0324 -0.0654
19014W        W35861  14.461   7.477   3.477 -0.0233  0.1687  0.2684
19015W        W35862  12.432   0.307  14.509 -0.1833  0.0881 -0.2457
19016W        W35863   0.085  18.173   6.171 -0.1642  0.0203  0.0076
19017W        W35864  14.869  15.535   2.425  0.3047  0.1110  0.0904
19018W        W35865   5.958   9.911  15.871  0.2475 -0.0139 -0.1529
19019W        W35866   8.316  11.879   6.033 -0.1471  0.2679  0.1659
19020W        W35867   0.978  16.485   3.821  0.0854  0.1823  0.0990
19021W        W35868   0.510   9.362   0.900  0.0888  0.2120 -0.1472
19022W        W35869   9.803  13.065   0.635 -0.1209  0.2196  0.1519
19023W        W35870  15.061   2.488  14.270  0.0157 -0.0313 -0.1287
19024W        W35871   8.275  16.419   0.307  0.0052 -0.1073 -0.1920
19025W        W35872  10.934   0.188   6.299  0.0949  0.0582 -0.0581
19026W        W35873   4.376   6.820   0.431 -0.1732  0.1183  0.2084
19027W        W35874  15.771   2.844   4.257  0.3454  0.1367 -0.0443
19028W        W35875   8.110   2.276  16.147 -0.2156  0.0011  0.4611
19029W        W35876  16.326  13.035   3.293  0.1209  0.0924 -0.2520
19030W        W35877   2.102   9.979   1.880 -0.0852 -0.0573 -0.0519
19031W        W35878  13.735  15.308   3.196 -0.0884 -0.1042 -0.2180
19032W        W35879  16.762   9.118   4.405  0.1329 -0.2715  0.2583
19033W        W35880   6.323   8.629  16.061 -0.1386  0.0963  0.1189
19034W        W35881  14.733  11.780  13.810 -0.2742  0.0381  0.3834
19035W        W35882   7.793   2.006  12.455  0.0615  0.2771 -0.0353
19036W        W35883  14.975  16.459   4.070  0.0088  0.2555 -0.3163
19037W        W35884   8.872  10.701   0.849  0.0746  0.1488  0.3665
19038W        W35885  16.259  15.892  15.336  0.0991 -0.0832  0.2004
19039W        W35886   8.230   6.930  15.866 -0.1312  0.1652 -0.1262
19040W        W35887  11.388   9.842  16.402 -0.1639  0.0255  0.0521
19041W        W35888  11.132   6.133   1.328  0.4312 -0.5280 -0.0993
19042W        W35889  10.634   7.731  11.852 -0.1479  0.0940  0.0137
19043W        W35890   7.157   9.326   3.243  0.1792 -0.1979  0.1007
19044W        W35891  12.091  15.314  15.702  0.0686 -0.2096 -0.2126
19045W        W35892   0.589  18.126  12.942 -0.2329  0.2988 -0.0457
19046W        W35893  11.946  13.119  16.527  0.0666  0.1341 -0.3196
19047W        W35894   3.106  13.372   0.342  0.0351  0.2123  0.1185
19048W        W35895  14.332   8.753   5.404  0.1791  0.1206  0.0956
19049W        W35896  16.857  11.748   0.116  0.1077 -0.4106  0.0414
19050W        W35897  11.620   8.979  12.994 -0.1636  0.0101 -0.2609
19051W        W35898   7.892   5.865  14.513  0.0660  0.3412  0.1545
19052W        W35899  17.574   7.789  14.294  0.1569 -0.1241 -0.2286
19053W        W35900   5.623  12.629   6.502 -0.0311  0.1658  0.1931
19054W        W35901  17.385   4.966   2.341  0.2300  0.1667 -0.3383
19055W        W35902   0.392  10.958  16.266  0.1960  0.0781 -0.3700
19056W        W35903  15.812   6.043   0.407  0.1318  0.3160  0.1819
19057W        W35904  11.120  16.648   3.785  0.1631 -0.1803  0.2017
19058W        W35905  17.597   3.030  16.444  0.0050 -0.0488 -0.0304
19059W        W35906   1.276   7.317  12.831  0.1518 -0.2984  0.0699
19060W        W35907   6.317   9.571  15.755 -0.0256 -0.1368 -0.0588
19061W        W35908  14.725  17.896   1.604  0.0465  0.0061  0.0764
19062W        W35909  17.093   4.647   3.113 -0.2650 -0.1344  0.2843
19063W        W35910  18.129   0.724  13.808  0.1811 -0.1577  0.2020
19064W        W35911  14.302  16.207  16.602 -0.2728 -0.0150  0.1763
19065W        W35912  10.854  13.956   5.097  0.0649 -0.0769 -0.1042
19066W        W35913   0.551  11.045   2.451  0.1973 -0.1630 -0.1622
19067W        W35914  11.851   6.812   2.078 -0.0779  0.1033 -0.0526
19068W        W35915  12.030  16.635  15.252 -0.0699  0.5462  0.0042
19069W        W35916   0.170  17.150  11.958 -0.0360 -0.0753 -0.2832
19070W        W35917  11.599   6.412   4.963  0.0399  0.1613 -0.2196
19071W        W35918   7.775   8.999   0.760  0.1324 -0.4337  0.1097
19072W        W35919   1.193   9.026   1.255  0.1837  0.1329 -0.0838
19073W        W35920   6.524   3.156   2.922  0.0204 -0.0504  0.0444
19074W        W35921  16.574  11.082  16.214  0.2899 -0.0239  0.0689
19075W        W35922   9.344   5.875   1.431 -0.1522  0.1676 -0.1059
19076W        W35923  10.022   2.032   1.990  0.0977 -0.1623  0.1539
19077W        W35924  15.707   6.871   1.095  0.0432 -0.3591 -0.0783
19078W        W35925   6.727  10.035   2.722 -0.1496  0.1260 -0.0159
19079W        W35926   7.330   7.953   2.968 -0.3611  0.0001 -0.2867
19080W        W35927  10.340   0.381  12.767 -0.1088  0.3080 -0.0654
19081W        W35928   1.975  11.829   1.754 -0.1485  0.1478  0.0329
19082W        W35929  13.270   2.968  13.883  0.0542 -0.0132 -0.2013
19083W        W35930  11.872  15.648   4.842  0.2491 -0.2301  0.1196
19084W        W35931   7.053   7.621   2.774  0.1194  0.1008  0.0879
19085W        W35932  11.966   0.437  11.109 -0.0207 -0.1302  0.1837
19086W        W35933   1.874   1.558  13.302 -0.0660  0.2255 -0.0365
19087W        W35934   8.139   0.632   3.118 -0.0885  0.0229  0.4432
19088W        W35935  13.757  16.796  12.084 -0.1800 -0.3697  0.0483
19089W        W35936  10.234   1.268  13.676 -0.2502 -0.1683 -0.0227
19090W        W35937  16.746  15.557   3.055  0.0473 -0.0740  0.0089
19091W        W35938   8.692   1.897  14.779 -0.0784  0.1005  0.0110
19092W        W35939   5.284   1.187  13.751 -0.0477 -0.2933  0.1797
19093W        W35940   1.252   1.725  12.539 -0.0120  0.2146 -0.4366
19094W        W35941   5.634   8.527   2.664 -0.0055  0.0475  0.2173
19095W        W35942   6.994   1.561  12.717  0.1480  0.3809 -0.5260
19096W        W35943  12.562   5.387   2.531 -0.2629  0.3766  0.2779
19097W        W35944   2.525  13.472   2.772 -0.3269  0.0288  0.0690
19098W        W35945   4.214   2.930  12.656  0.1439 -0.0097  0.0692
19099W        W35946  15.660   2.547   1.250 -0.1220  0.2617 -0.2144
19100W        W35947  11.004  10.939   6.084 -0.0296  0.1867  0.1122
19101W        W35948  14.109  10.132  14.066 -0.1316  0.1050  0.1006
19102W        W35949   7.003   0.895   0.831  0.1027  0.1001  0.4037
19103W        W35950  14.585  18.049   3.595 -0.1667 -0.1360 -0.0123
19104W        W35951  18.134   3.604  13.355  0.1546 -0.2908 -0.1032
19105W        W35952   2.675  17.289   4.579  0.0109 -0.0139 -0.0713
19106W        W35953  13.303   0.143   2.345 -0.0289  0.0529 -0.1572
19107W        W35954  16.116   5.682  12.066 -0.1799  0.0779  0.1924
19108W        W35955  17.580   0.464  12.242 -0.4063 -0.0446  0.0924
19109W        W35956   4.878   8.790   4.326  0.2713 -0.0992 -0.1979
19110W        W35957   6.297  16.100   1.009 -0.4051  0.0296  0.0121
19111W        W35958   3.790  17.848  14.030  0.1429  0.2343 -0.1439
19112W        W35959   3.585   4.465  11.707 -0.4121  0.1039 -0.1120
19113W        W35960   1.182   5.939  15.622  0.1269  0.2086  0.1296
19114W        W35961   4.693   4.681   2.364  0.1423  0.3006 -0.1355
19115W        W35962  12.690  16.504  12.846  0.0201 -0.0513 -0.0475
19116W        W35963  16.309   4.152  11.158 -0.2254 -0.1878  0.0200
19117W        W35964   8.146   6.540   2.002 -0.0734 -0.3166 -0.0377
19118W        W35965   3.063   8.805   2.512  0.3513  0.0248  0.1730
19119W        W35966   8.498  15.173   5.316 -0.0943 -0.1463  0.0537
19120W        W35967  16.705   6.159   3.066  0.0112  0.1835  0.1067
19121W        W35968   7.011  11.769   5.599 -0.1026 -0.0106  0.2087
19122W        W35969  10.306   4.796   1.159 -0.0172 -0.1164  0.2096
19123W        W35970   8.074  16.910   3.836  0.1299 -0.3431 -0.1856
19124W        W35971   8.729  13.907  14.496  0.0288  0.1874 -0.0493
19125W        W35972   4.982  10.643  11.744 -0.1238 -0.0263  0.0956
19126W        W35973   8.967   8.190   5.505  0.1598  0.2195 -0.0040
19127W        W35974  14.393  16.944   1.350  0.2794 -0.2189  0.0668
19128W        W35975  11.469   0.648   5.504  0.2381 -0.4786  0.0588
19129W        W35976   4.250   9.957  16.353 -0.0092 -0.3309 -0.0190
19130W        W35977   1.878  10.121   4.175  0.2621 -0.2708  0.2833
19131W        W35978   3.986   7.719   4.019 -0.2065  0.1017  0.2743
19132W        W35979   5.996   8.731  16.462 -0.0503  0.0213 -0.4352
19133W        W35980   6.651  16.886   3.473  0.0504  0.0609  0.0891
19134W        W35981  12.388  14.849   0.907  0.1072 -0.2063  0.0324
19135W        W35982   9.328  13.216   3.906  0.0083  0.0490 -0.0218
19136W        W35983  10.028   6.667   1.171  0.3549  0.0554 -0.1091
19137W        W35984  11.767  10.753   0.155 -0.1855 -0.1596  0.1265
19138W        W35985   1.311   4.082  15.310  0.3133 -0.3236 -0.0454
19139W        W35986   7.082   1.842   4.492 -0.0019 -0.0463  0.2386
19140W        W35987   8.162  13.893  11.580  0.1202 -0.0262 -0.0976
19141W        W35988   0.374   6.482  13.412 -0.1179 -0.1002 -0.1422
19142W        W35989   6.311   2.878  11.792  0.1142  0.2786  0.3698
19143W        W35990  15.207  14.000   2.981 -0.1121 -0.0820  0.0810
19144W        W35991  13.448   6.868   1.246  0.3930  0.0782  0.0736
19145W        W35992   6.408  16.423   0.512 -0.1676 -0.2845  0.0215
19146W        W35993  12.290   1.422   1.758 -0.0190 -0.3680 -0.0145
19147W        W35994   3.523   3.125  15.105 -0.2795  0.4277 -0.1096
19148W        W35995   1.006   1.020  11.987 -0.0833  0.0324 -0.0225
19149W        W35996  13.701   3.270  13.839 -0.1567  0.1166  0.1087
19150W        W35997   3.681   9.675   2.337 -0.4011 -0.0507  0.0183
19151W        W35998  13.371   5.961   0.722 -0.1299 -0.1696 -0.0907
19152W        W35999   0.765   6.493   5.002  0.0276  0.0103 -0.2860
19153W        W36000   7.977  10.828  11.959  0.1637  0.2061 -0.0171
19154W        W36001   9.193   2.076   1.710  0.0735  0.0185 -0.0166
19155W        W36002   2.444  10.683   3.274  0.0795  0.2582  0.2178
19156W        W36003  16.638  11.617   3.288  0.2846 -0.2648 -0.0655
19157W        W36004  10.765  12.394  15.226  0.0739 -0.0502  0.1462
19158W        W36005   2.465   5.913  14.791 -0.2953  0.2255  0.1006
19159W        W36006  10.477   7.781  15.138 -0.1434  0.0264 -0.0119
19160W        W36007   1.575  13.253   4.186  0.1206  0.0875 -0.0085
19161W        W36008  11.207   3.325   2.542 -0.0256  0.0163  0.0395
19162W        W36009  15.675  11.929   4.255 -0.3520 -0.3292 -0.1855
19163W        W36010   8.226   2.695  16.438 -0.2322 -0.4833 -0.0314
19164W        W36011  13.194  16.236  13.903  0.0182  0.2005 -0.2140
19165W        W36012   4.286  15.272  14.127  0.1059  0.0862  0.1262
19166W        W36013  16.831   7.232   1.940  0.1355  0.2782  0.3097
19167W        W36014  15.585   5.664   5.603  0.1326 -0.3044  0.1139
19168W        W36015   7.271   4.626  13.413 -0.2261  0.0764 -0.0722
19169W        W36016   1.892  12.773   3.973  0.0270  0.2744  0.0287
19170W        W36017   1.668   8.061   2.662  0.3851 -0.2052 -0.1133
19171W        W36018   9.686   1.421  14.586 -0.1762  0.1199 -0.0010
19172W        W36019  13.505  15.661  11.846  0.0661  0.1412 -0.0456
19173W        W36020  16.253  13.515   4.405 -0.3839  0.0220  0.0248
19174W        W36021   9.092   5.168   1.450  0.0430 -0.0014  0.0871
19175W        W36022   5.676  13.537   4.978 -0.0063  0.0795  0.1607
19176W        W36023   3.516   7.230  12.081 -0.0751 -0.0057  0.1245
19177W        W36024  11.244   4.985   0.942 -0.0389  0.1110 -0.0285
19178W        W36025   3.761   0.982  13.811 -0.2078 -0.1201 -0.2473
19179W        W36026  16.980   3.416   4.846  0.1819  0.0420 -0.0494
19180W        W36027   9.260  14.082  12.952 -0.2044 -0.1903  0.0235
19181W        W36028   4.094   0.821   0.493 -0.0435 -0.0485  0.2504
19182W        W36029   4.023  10.978  16.029 -0.0975  0.1325 -0.1174
19183W        W36030   4.913  16.556  15.733 -0.0006 -0.1232  0.0250
19184W        W36031   0.971   1.558   3.941 -0.1355  0.2473 -0.2063
19185W        W36032  16.570  12.106  12.412  0.0309 -0.2087  0.0030
19186W        W36033   4.471  10.086   3.209 -0.0764 -0.1983 -0.4432
19187W        W36034   6.614   4.534   4.472 -0.3094  0.3292  0.0543
19188W        W36035  13.278  11.829  14.523 -0.0792 -0.1408 -0.1805
19189W        W36036  11.680   3.641   0.462  0.0518  0.0988 -0.0779
19190W        W36037  10.040   5.727   3.465  0.1134 -0.0993  0.2260
19191W        W36038   0.400   9.625   3.104 -0.0058  0.0398 -0.2678
19192W        W36039   6.565  14.680   5.632 -0.0173  0.0220  0.1040
19193W        W36040  14.465  16.905   5.657  0.1238  0.1489  0.0938
19194W        W36041   7.431  10.425  12.861  0.2018 -0.0425 -0.2237
19195W        W36042   8.537   7.968   9.992  0.0162 -0.4323  0.1954
19196W        W36043   7.983   5.752   5.512 -0.0295  0.0000  0.3778
19197W        W36044  16.530   3.940  15.714  0.0903  0.0268 -0.3038
19198W        W36045  17.699  11.890   4.858 -0.0406  0.1712 -0.0394
19199W        W36046   7.153  10.960  13.016 -0.2987 -0.0623  0.1256
19200W        W36047  12.776  11.851   4.635  0.1011  0.0333  0.1242
19201W        W36048   2.993  13.481  15.133  0.0460  0.2070  0.3802
19202W        W36049   1.151  16.070   3.503 -0.3028  0.1886  0.0019
19203W        W36050  15.968   4.976   5.133 -0.2178  0.2125  0.1759
19204W        W36051  17.077   8.921   1.910 -0.1161  0.0752 -0.0075
19205W        W36052   9.710   1.142  13.618  0.0047 -0.3584  0.1112
19206W        W36053  10.225   2.433   2.677 -0.0714 -0.1228 -0.1648
19207W        W36054  17.185   7.158   4.586  0.1542 -0.0750  0.2483
19208W        W36055   7.984  17.680  14.786  0.3433 -0.0108  0.1085
19209W        W36056  17.108   8.497  15.330  0.2835  0.0474 -0.2530
19210W        W36057   9.841  11.894   5.096 -0.1861  0.2498 -0.1498
19211W        W36058  13.156   4.061   3.349 -0.0364  0.1621 -0.0760
19212W        W36059  14.248  12.436  14.268  0.0190  0.3583 -0.3429
19213W        W36060   2.886   0.877  14.331 -0.3647  0.1612  0.3734
19214W        W36061  18.106  10.693  13.759  0.1265  0.0981 -0.5379
19215W        W36062  14.750  14.243  12.227 -0.1402  0.2042  0.0450
19216W        W36063   8.704   6.733  15.724 -0.0770  0.1542 -0.0088
19217W        W36064   3.867  16.686   0.146  0.2040  0.1501 -0.1002
19218W        W36065  10.601   9.683  14.490 -0.1913 -0.2927  0.2186
19219W        W36066   9.644   7.579  12.481 -0.1893  0.0136 -0.0991
19220W        W36067   6.201  11.822  15.514 -0.0577  0.1346  0.0442
19221W        W36068  17.056   4.346   3.914 -0.2238 -0.2882 -0.0532
19222W        W36069   4.861   8.376  11.757  0.1421  0.3773  0.3185
19223W        W36070   2.977  14.317   0.087  0.1267  0.2248  0.0052
19224W        W36071  17.601   5.318   2.054  0.2880  0.4351  0.1769
19225W        W36072  11.766   7.414  14.477  0.2488 -0.1081  0.0967
19226W        W36073   9.845   5.239  13.705 -0.1382 -0.0441 -0.2715
19227W        W36074   3.337   0.715   0.882  0.1521 -0.0431  0.0863
19228W        W36075   1.466  13.368  15.057  0.1190 -0.2567 -0.0150
19229W        W36076   2.476   9.966  12.486  0.2884 -0.1324 -0.2744
19230W        W36077  15.805   5.640  13.811  0.0221 -0.1528 -0.0126
19231W        W36078   0.365   5.819   1.344  0.1164 -0.0804 -0.1706
19232W        W36079   5.602   0.873   1.148  0.0095  0.1250  0.1676
19233W        W36080  17.350  14.403  15.920  0.2152  0.3780  0.0383
19234W        W36081   7.680   7.149  12.236 -0.1249  0.1816 -0.0371
19235W        W36082  15.829   4.066   5.479 -0.0657 -0.0895 -0.3478
19236W        W36083  17.097  16.751   0.172 -0.2237 -0.0213  0.0116
19237W        W36084   9.168  17.851   1.569 -0.1448  0.1437 -0.1642
19238W        W36085   4.716  11.085   3.591 -0.2494  0.2086  0.0176
19239W        W36086  12.697   0.322  15.853  0.3204 -0.0648  0.3150
19240W        W36087   0.500   4.108   2.842  0.2343 -0.1697 -0.0316
19241W        W36088   7.224  12.428   2.979 -0.2509  0.1919  0.1892
19242W        W36089  17.150  10.015   3.463 -0.2107  0.3798 -0.1811
19243W        W36090  15.259   0.040   4.340 -0.0385 -0.1284  0.0154
19244W        W36091  17.721   2.312  15.142 -0.1007  0.2638  0.1362
19245W        W36092   1.215  11.101   1.204  0.2027 -0.1345 -0.1034
19246W        W36093   9.177  16.988  16.124 -0.4814  0.0639 -0.0994
19247W        W36094   0.511  13.219   3.823 -0.1305  0.0931  0.0245
19248W        W36095  15.709  11.861  14.735 -0.0425  0.0649  0.0909
19249W        W36096   8.860  16.617  12.643  0.1244 -0.0228 -0.1501
19250W        W36097  17.986  17.460   5.533 -0.1604 -0.3675 -0.0742
19251W        W36098  12.647  15.278  14.860 -0.0164 -0.0859  0.1707
19252W        W36099   3.284   4.104   0.195  0.1766 -0.1806 -0.2238
19253W        W36100  17.643   3.711   2.294 -0.1451  0.3003  0.1177
19254W        W36101   7.174   0.418   1.071  0.0475 -0.0267 -0.0270
19255W        W36102  11.954   3.622   1.959 -0.5847 -0.2513 -0.1526
19256W        W36103   2.737   9.549  12.607 -0.0615  0.2102 -0.1180
19257W        W36104  16.512   0.970   0.614  0.3434  0.2079  0.1141
19258W        W36105   5.021  15.435   0.855 -0.3637  0.2603 -0.1392
19259W        W36106   8.508   5.261   1.281 -0.2150 -0.0309 -0.0871
19260W        W36107  16.023   9.573  14.668  0.0696  0.1833 -0.2067
19261W        W36108   2.707  13.919  13.758  0.0734 -0.0773 -0.1651
19262W        W36109  10.620   4.103  16.481 -0.1845 -0.1756  0.1767
19263W        W36110   6.677  17.278   1.967  0.0492  0.4295 -0.0704
19264W        W36111  13.235  16.476  12.216  0.0650 -0.0919  0.0065
19265W        W36112  11.691  13.786   5.186  0.0308 -0.3965  0.1287
19266W        W36113   3.784   1.311  15.408  0.1764  0.3303  0.2914
19267W        W36114   1.606   2.927  14.454 -0.0315 -0.2950 -0.2975
19268W        W36115   5.113   7.023   4.855 -0.2779 -0.0296 -0.0213
19269W        W36116   6.935   2.976  14.957  0.1569  0.1051 -0.0706
19270W        W36117   6.755   4.344  13.926 -0.1847  0.3172 -0.1595
19271W        W36118  15.917   0.506   2.700  0.2419  0.0540  0.1252
19272W        W36119   6.253   9.245  16.452  0.0199 -0.3068  0.2254
19273W        W36120  17.633  10.571  12.003 -0.2905 -0.2722  0.2412
19274W        W36121  17.976  11.356  11.755 -0.0105  0.3178  0.1344
19275W        W36122   5.625   3.636  16.079 -0.0932 -0.1827 -0.2239
19276W        W36123   6.434   6.695   0.732 -0.0977 -0.0908 -0.0576
19277W        W36124   5.211   3.111   1.410  0.2874 -0.0069 -0.0129
19278W        W36125  11.391   8.577  13.864  0.0110 -0.0250  0.0694
19279W        W36126   1.991  18.077   3.759 -0.4504  0.1143  0.1912
19280W        W36127   4.778   6.883  13.128  0.1158  0.3966 -0.4238
19281W        W36128  10.941  11.740   0.743  0.0744 -0.3195  0.1298
19282W        W36129   2.987  11.915   1.796 -0.0401 -0.1350 -0.2489
19283W        W36130   4.411   4.510  11.561 -0.0204  0.1826 -0.0166
19284W        W36131  10.420   9.160   2.256 -0.0162  0.3682 -0.0741
19285W        W36132   5.756  15.447   0.228 -0.3054 -0.4270 -0.0350
19286W        W36133   9.310   3.187  12.420  0.0588 -0.2845  0.1779
19287W        W36134   1.588  16.154   2.830  0.0400 -0.0136 -0.1379
19288W        W36135   4.094  10.737   1.820  0.0348  0.0728 -0.1042
19289W        W36136  13.614  16.782  16.158 -0.4158 -0.0352  0.3191
19290W        W36137   0.152   6.556   1.298 -0.0280 -0.3533  0.1313
19291W        W36138  15.363  11.299  13.528 -0.2197  0.0648 -0.0953
19292W        W36139  15.349   1.965   0.194  0.3011 -0.0719 -0.1412
19293W        W36140   0.578  16.913  12.764 -0.0370 -0.0257  0.0405
19294W        W36141  14.939  14.070  16.443  0.1566  0.0035  0.0356
19295W        W36142   1.835  11.255  12.060 -0.0702  0.0057 -0.0869
19296W        W36143  16.165   2.243   0.746  0.1308 -0.3053  0.3207
19297W        W36144   2.022   1.516  16.066  0.1917 -0.2922  0.1388
19298W        W36145   3.381   3.118   0.430 -0.1545 -0.0731 -0.0683
19299W        W36146   1.710   3.854   2.097  0.0536 -0.1574  0.5043
19300W        W36147   4.328   7.457  13.657  0.2904  0.1691 -0.3663
19301W        W36148  14.214   8.635   1.409  0.0627  0.3454 -0.2591
19302W        W36149   0.079  11.000   2.400  0.1157  0.2253 -0.0553
19303W        W36150   3.851   0.513   0.831 -0.0375  0.0428  0.2677
19304W        W36151   7.454  15.274   3.379 -0.0829  0.0667 -0.0553
19305W        W36152  16.860   0.315  15.919 -0.0668 -0.0343 -0.2227
19306W        W36153   0.957  15.016  13.908  0.1041  0.0022  0.0559
19307W        W36154   7.678   8.688  12.264  0.0496 -0.0550 -0.1401
19308W        W36155  12.022  12.696   5.184  0.0340  0.0536 -0.0957
19309W        W36156   8.704   2.444  14.949  0.0485 -0.1434  0.1636
19310W        W36157   9.787   1.771  14.246 -0.0320  0.2517  0.3710
19311W        W36158  10.046   1.282   5.988 -0.0361 -0.2798 -0.0434
19312W        W36159   5.824  11.001  12.413  0.4241  0.2209 -0.2354
19313W        W36160  16.393   9.513   0.347 -0.4006 -0.1401  0.2013
19314W        W36161   1.322  12.928   3.079  0.0766  0.0276  0.0526
19315W        W36162  12.497   3.188  13.212  0.1595  0.0258 -0.0488
19316W        W36163  16.893  10.230  14.778 -0.1184 -0.4162  0.2406
19317W        W36164   9.818   9.580  16.007  0.2316  0.0434 -0.1419
19318W        W36165  18.057   8.387  15.006  0.2645  0.3668  0.2767
19319W        W36166   5.358  13.056  15.698  0.4425  0.2806 -0.1584
19320W        W36167   5.644  12.438  13.196  0.1452  0.0618 -0.2640
19321W        W36168  16.475  13.786  14.462  0.0761  0.1781  0.3188
19322W        W36169  17.986   4.679  11.824  0.0567 -0.1354  0.1792
19323W        W36170  14.209   1.835   5.289  0.2228  0.2335  0.0868
19324W        W36171   9.565   8.581  13.383  0.2468  0.2452 -0.2490
19325W        W36172   2.789   4.399  13.972  0.1666 -0.0176 -0.0884
19326W        W36173  14.333  11.055   2.525  0.2036  0.0551 -0.0687
19327W        W36174   9.663   9.074  14.579 -0.0043  0.1195 -0.2852
19328W        W36175   6.096   5.532   1.940  0.0392  0.1548  0.3174
19329W        W36176  15.678   7.115  16.357 -0.1138  0.1517  0.1904
19330W        W36177   7.161   8.351   0.957  0.3912  0.0212 -0.2869
19331W        W36178   9.477   0.404  13.205  0.0346  0.1427 -0.1057
19332W        W36179  17.982   2.953   1.095 -0.1603  0.2747  0.1232
19333W        W36180   9.284  12.328  11.331 -0.1682  0.1437 -0.1691
19334W        W36181   8.906   3.252  12.786 -0.0023 -0.0948 -0.1045
19335W        W36182   7.502   5.560   3.024  0.1787  0.1193  0.2634
19336W        W36183   4.715   4.116  12.683 -0.4662 -0.4563 -0.3576
19337W        W36184   2.855   8.813   1.871 -0.2006 -0.1616 -0.0946
19338W        W36185   5.770   2.401   6.128  0.0533 -0.5350  0.1831
19339W        W36186  10.741   4.232   4.630 -0.1551  0.0549 -0.0361
19340W        W36187  17.883  14.876   0.177 -0.0858 -0.2502  0.2512
19341W        W36188  13.212   3.842  16.102 -0.0518 -0.3407  0.1976
19342W        W36189   0.999  11.464   5.657  0.0484  0.2138 -0.1188
19343W        W36190  13.805   8.117   1.353 -0.1828  0.1468  0.2712
19344W        W36191   3.307   1.065  11.296  0.1087 -0.1395 -0.0715
19345W        W36192   4.217  17.567   5.243 -0.0200  0.0755  0.4448
19346W        W36193   0.466   5.427  11.476 -0.1566 -0.2879 -0.0260
19347W        W36194   4.407   8.597   0.751 -0.4734 -0.2379  0.3144
19348W        W36195  10.118  12.229   0.782 -0.1932 -0.2097 -0.2639
19349W        W36196   1.391   8.887   4.151 -0.0191  0.1847 -0.2055
19350W        W36197  17.340  15.470  16.172 -0.0165  0.0599  0.1224
19351W        W36198   1.294   8.843  10.773 -0.0808  0.2748 -0.3539
19352W        W36199  14.611   3.472   4.386 -0.1352 -0.0001 -0.0422
19353W        W36200  15.408  15.605  13.458 -0.1964 -0.1016 -0.1639
19354W        W36201   2.980  14.634   2.475  0.1104 -0.0002 -0.1401
19355W        W36202   9.079   4.582  16.289 -0.0207  0.1747 -0.0466
19356W        W36203  14.545   9.943   2.582 -0.1916 -0.1432 -0.3199
19357W        W36204  12.161   2.449   0.776  0.4891  0.0910 -0.0253
19358W        W36205   4.067   3.159  15.425  0.2108  0.0864 -0.1602
19359W        W36206   2.952   9.263   0.104 -0.0997  0.2295  0.2861
19360W        W36207  11.635  13.879  15.931 -0.3256 -0.2641  0.0530
19361W        W36208   9.568   7.293  15.843  0.1692  0.1046  0.2644
19362W        W36209  11.738   8.891  14.239  0.1541  0.3838 -0.3658
19363W        W36210   1.785   3.789   2.582 -0.1351 -0.2492 -0.1358
19364W        W36211  11.603  11.304   0.352  0.3430  0.0555 -0.0924
19365W        W36212   5.397   2.209  14.651 -0.3425 -0.1804 -0.2002
19366W        W36213   1.110   1.929  13.591  0.0090 -0.1279  0.1972
19367W        W36214  12.284  17.436   1.105 -0.0244  0.1943 -0.1024
19368W        W36215   2.099  10.800   5.519 -0.0463  0.0992  0.2391
19369W        W36216  11.125   3.176  15.459 -0.0805 -0.1449 -0.1417
19370W        W36217   1.814   5.757  16.276  0.1055 -0.0150  0.3131
19371W        W36218   3.827   9.851  11.282  0.0100 -0.0620  0.2459
19372W        W36219  13.171  11.664   4.975  0.1700  0.0346 -0.1249
19373W        W36220   6.418  11.496  11.428 -0.0794  0.0529 -0.0422
19374W        W36221   9.232  10.390   1.162  0.0670 -0.2740 -0.1130
19375W        W36222  10.515   9.667   4.561 -0.1312 -0.0354 -0.0586
19376W        W36223   6.776  10.773   5.341  0.3598 -0.4223 -0.1380
19377W        W36224   1.526   3.969  11.052 -0.1852 -0.0600 -0.2791
19378W        W36225  17.081   3.251  16.190  0.1331  0.1575 -0.3798
19379W        W36226   3.074  17.927   5.068 -0.1211  0.0159  0.2592
19380W        W36227  16.310   0.070  16.137 -0.1371 -0.1742  0.1869
19381W        W36228  11.919   8.055  15.873  0.0371 -0.2439  0.1126
19382W        W36229  17.763   9.119   3.534 -0.1504  0.0478  0.0135
19383W        W36230   2.229  11.106   3.448  0.1793 -0.0625  0.2090
19384W        W36231   7.043  17.186   3.424 -0.0833 -0.1851 -0.3910
19385W        W36232  14.757   8.190   3.821 -0.0912  0.0455  0.1152
19386W        W36233   3.253   2.691  11.742  0.1785  0.0751 -0.1989
19387W        W36234  14.113  17.665  15.672 -0.1981 -0.0763 -0.2075
19388W        W36235   1.306   3.996   2.437 -0.1384 -0.1046 -0.0238
19389W        W36236  16.249  10.738  12.587 -0.2461 -0.2782  0.2242
19390W        W36237  14.990  12.723   1.337 -0.1180 -0.3446 -0.1779
19391W        W36238  15.080   4.796   3.464 -0.2524  0.1601  0.1419
19392W        W36239  10.192   0.093   0.830  0.0198  0.0219 -0.1602
19393W        W36240  15.647   1.421   4.094  0.1761  0.0524 -0.3097
19394W        W36241   7.610   7.029   2.401  0.1464 -0.1025 -0.0442
19395W        W36242   4.183   0.347  15.569 -0.0484  0.1733  0.1118
19396W        W36243   2.956   7.437  15.325  0.0128 -0.3328  0.1992
19397W        W36244  18.081   5.463  13.943  0.1312 -0.0949  0.2858
19398W        W36245  18.019   3.543  14.398  0.1255  0.2262  0.1202
19399W        W36246  11.770   1.527  15.834 -0.0570 -0.2774 -0.2399
19400W        W36247  10.364  13.171   4.799 -0.0035 -0.1516 -0.1059
19401W        W36248   2.026   0.816  15.332  0.2255  0.0089 -0.0913
19402W        W36249  14.256   0.100   5.292  0.3298 -0.1900 -0.0940
19403W        W36250   2.404   4.069   3.216 -0.2202  0.0537  0.0045
19404W        W36251  15.055  15.948   3.791 -0.2468 -0.1389 -0.0509
19405W        W36252  17.479   5.120  16.247  0.0978  0.0328  0.3149
19406W        W36253   6.943   9.053   4.340  0.1218 -0.5979  0.1062
19407W        W36254  15.446  13.513  11.735 -0.0969 -0.1496  0.0604
19408W        W36255   9.309   8.267   5.136  0.3667 -0.6020 -0.1278
19409W        W36256   5.409   9.442  16.525 -0.2061 -0.3775  0.3059
19410W        W36257   1.835   3.857  11.729  0.0242  0.3405 -0.0502
19411W        W36258   7.519  14.083   0.309 -0.1822  0.0510  0.2157
19412W        W36259   6.791  10.808   3.099 -0.0212 -0.0411  0.1296
19413W        W36260   5.172   7.431  16.114  0.4111  0.2593 -0.0239
19414W        W36261  14.263   0.570   1.456 -0.1200  0.0795  0.1441
19415W        W36262   9.691   7.119  14.917  0.3272 -0.3965 -0.4485
19416W        W36263   0.389   2.819   4.975  0.0832  0.1420  0.0608
19417W        W36264   5.151  10.151   1.736 -0.1301  0.2873 -0.2612
19418W        W36265  12.062  14.030  13.675 -0.3918  0.0164 -0.3806
19419W        W36266   9.252  10.871  16.242  0.1866  0.2399  0.1095
19420W        W36267   1.575   5.588   2.550 -0.0279 -0.1431  0.0445
19421W        W36268   9.549  10.759   0.867  0.0405  0.2358  0.0424
19422W        W36269   0.959   6.836   3.645  0.0087 -0.1057  0.0525
19423W        W36270   6.515   7.528   0.029  0.1298 -0.2163 -0.1008
19424W        W36271   0.548  10.780  14.837  0.0089 -0.2216  0.0088
19425W        W36272   5.439  14.315   3.122  0.0624  0.0027 -0.0656
19426W        W36273   3.176   8.016  15.270 -0.0083  0.2202  0.2299
19427W        W36274   5.301  10.422  16.057  0.1661  0.0506  0.0178
19428W        W36275   5.213  15.031  14.373 -0.0857  0.3200  0.3245
19429W        W36276   8.314   4.525  11.688  0.0855  0.3090  0.0801
19430W        W36277  16.710  13.218  11.428  0.2377  0.0171 -0.0956
19431W        W36278   0.605   1.657  12.300  0.3439  0.0279 -0.0907
19432W        W36279  12.310  10.683   2.746 -0.2625 -0.2037 -0.1879
19433W        W36280  16.247   8.252  16.254  0.0280  0.3257  0.1635
19434W        W36281   3.974   6.966  11.257  0.0727  0.0087 -0.1248
19435W        W36282   7.659  11.323  12.666  0.1728  0.0618 -0.2184
19436W        W36283   3.763   0.687   5.443 -0.3142  0.2395  0.1382
19437W        W36284   4.946  17.719  15.023 -0.0224  0.1115  0.3565
19438W        W36285  16.487  10.077   0.540 -0.4648  0.0369  0.2083
19439W        W36286   8.956  15.381   0.990 -0.1628  0.2075 -0.1269
19440W        W36287  16.390   0.307   1.451 -0.0968  0.2662  0.1258
19441W        W36288   2.431  13.056  12.398 -0.3330 -0.2340  0.0342
19442W        W36289  13.497   4.085  14.514 -0.1053  0.3118 -0.1505
19443W        W36290  17.116   4.811   5.080  0.0492  0.1142 -0.1561
19444W        W36291  14.783   1.013  14.965 -0.0601  0.1969 -0.2799
19445W        W36292  10.942   3.788   1.659  0.0773  0.1820  0.2194
19446W        W36293   5.526   7.936   5.823 -0.1156  0.2005 -0.5720
19447W        W36294   8.946   0.548   2.605 -0.1968 -0.0508 -0.0589
19448W        W36295   7.289  15.764   0.589  0.2063 -0.1929  0.1607
19449W        W36296  13.314   7.693   4.066  0.0839  0.0436 -0.0535
19450W        W36297   4.320  12.297  13.772  0.0391  0.1070 -0.0106
19451W        W36298  17.640   6.787   2.045  0.0934 -0.1675  0.1263
19452W        W36299   2.198   9.599   1.430 -0.1435 -0.1276  0.1277
19453W        W36300  13.311  11.411   1.918 -0.1023  0.0841 -0.0038
19454W        W36301   6.747  12.540   3.667 -0.1378  0.2541 -0.2234
19455W        W36302  11.365   4.595   4.803  0.0672  0.0631  0.0044
19456W        W36303   7.009   3.277  15.812 -0.0392 -0.0026  0.0330
19457W        W36304   6.119  17.076   2.940  0.0227 -0.1292 -0.2044
19458W        W36305  15.310  15.702   2.145  0.5014 -0.0026 -0.1398
19459W        W36306   2.060   5.246   5.533  0.1557  0.3051 -0.3668
19460W        W36307   2.206  16.523   6.162  0.1723  0.0706 -0.0591
19461W        W36308   4.529  12.295   5.472 -0.1392 -0.0506 -0.0098
19462W        W36309   1.608   5.284  11.324  0.0674  0.1308  0.1012
19463W        W36310  15.367   4.957   4.732 -0.1288  0.1752  0.2950
19464W        W36311   7.899  16.395  14.739 -0.0510  0.0745 -0.0983
19465W        W36312   9.540  15.933  15.431 -0.0449 -0.0140 -0.0071
19466W        W36313   4.789  12.527   0.194 -0.2101 -0.2449 -0.0682
19467W        W36314  12.838  11.300  16.211 -0.0236 -0.1131  0.1487
19468W        W36315  16.160   3.019  14.231  0.2009 -0.0584  0.3757
19469W        W36316   9.894   1.280   2.094  0.0243 -0.0331  0.0733
19470W        W36317   3.964   7.120   1.342 -0.2348  0.0431  0.0418
19471W        W36318   0.392   8.775   4.828  0.0407  0.3136 -0.5137
19472W        W36319   0.054   9.017  14.361 -0.1324 -0.4969  0.0247
19473W        W36320   4.148  16.770   3.072 -0.1212  0.1753  0.3930
19474W        W36321   8.504  13.517   3.418 -0.0128  0.1043  0.1363
19475W        W36322   8.208   7.512  13.842 -0.0896 -0.0258  0.0312
19476W        W36323   5.605  12.023  16.128 -0.0077 -0.1278  0.0605
19477W        W36324   7.971   6.354  16.273 -0.0614 -0.2153  0.2022
19478W        W36325  15.934  14.402   4.583 -0.0088  0.3236 -0.1400
19479W        W36326   5.587  10.694   3.816  0.2390  0.2222 -0.0955
19480W        W36327   0.774   7.703   4.156  0.1989  0.0103 -0.0556
19481W        W36328   2.228   4.448   2.835 -0.2990  0.2253  0.1411
19482W        W36329   7.446  12.319   1.646 -0.2099 -0.2762  0.0649
19483W        W36330  12.979   1.200   4.627  0.0545  0.2055 -0.1492
19484W        W36331   1.999   4.759   1.951  0.4460 -0.2523 -0.0211
19485W        W36332  15.552   7.343  11.423 -0.2573  0.1459  0.0408
19486W        W36333   3.397  12.561   0.439 -0.3081 -0.1964 -0.0006
19487W        W36334  16.058   7.679   0.900 -0.1234 -0.0561 -0.0372
19488W        W36335  17.990  18.089   3.137  0.1604  0.0901  0.1677
19489W        W36336  18.098  11.824   0.863  0.1060  0.2726 -0.1465
19490W        W36337  18.007   9.933   6.121 -0.0262  0.2951  0.1851
19491W        W36338  16.255  10.120  14.058  0.1657 -0.0725 -0.4546
19492W        W36339   5.758   8.467  14.765  0.4152 -0.0707 -0.2599
19493W        W36340  16.155  10.584  16.241 -0.2229  0.0581  0.0807
19494W        W36341   7.299  13.117  12.480  0.1546  0.3575 -0.1418
19495W        W36342   1.615  15.780   1.338  0.1930 -0.1335  0.2888
19496W        W36343   7.101   1.995   1.961 -0.0669  0.2159 -0.2936
19497W        W36344  14.624   8.820   2.920 -0.1260 -0.1418  0.4002
19498W        W36345   8.032   0.933   4.523  0.1133 -0.0006  0.0942
19499W        W36346   0.277   2.719   3.229 -0.0197 -0.1685 -0.0976
19500W        W36347   0.037  16.267  15.527 -0.2376 -0.2742 -0.5348
19501W        W36348   1.636   4.074   0.717 -0.2492 -0.1703 -0.2490
19502W        W36349  13.112  12.277   6.095  0.1254  0.2632  0.1891
19503W        W36350   1.830   2.745  14.028 -0.0717  0.0485 -0.0830
19504W        W36351   9.901  14.908   5.312 -0.1462 -0.1181 -0.0840
19505W        W36352  15.431  10.643  15.423  0.0213  0.0462  0.0028
19506W        W36353  15.766  14.661  15.943  0.2861 -0.0182 -0.0877
19507W        W36354   2.091  13.291   3.480 -0.2698  0.1067  0.0139
19508W        W36355   5.334   7.572  12.148 -0.2296 -0.0455  0.3976
19509W        W36356   4.819   9.219   5.080  0.2460 -0.1127 -0.1056
19510W        W36357  13.779  16.505   2.207 -0.1203  0.0950 -0.1812
19511W        W36358  13.326  14.303   4.027 -0.2835  0.2195 -0.4476
19512W        W36359   0.391   5.686   2.809 -0.0944  0.0432 -0.2659
19513W        W36360  14.032   6.965  15.143 -0.1240 -0.3108  0.0440
19514W        W36361   9.913   6.475   3.213 -0.0537  0.2133 -0.0818
19515W        W36362   6.004  15.372   4.107  0.0673 -0.1378 -0.0834
19516W        W36363  16.023  10.866   0.596  0.0941 -0.1448  0.0051
19517W        W36364  13.620  17.286  16.245  0.3592  0.0332 -0.0340
19518W        W36365  17.992   8.109  14.459  0.0794  0.2996  0.0624
19519W        W36366   9.977  10.139  13.085 -0.0048 -0.1884  0.1121
19520W        W36367   1.644   1.852   1.781 -0.3668  0.0823 -0.0626
19521W        W36368  16.924   1.247  14.489  0.0154 -0.1776  0.0662
19522W        W36369   7.788   0.431   2.518 -0.3392  0.1171 -0.2610
19523W        W36370   4.794   5.420  12.611 -0.3290  0.0823  0.0331
19524W        W36371  17.156   9.948   0.136  0.0603 -0.2498 -0.0211
19525W        W36372  16.989   4.612   5.519 -0.0117  0.3037  0.0423
19526W        W36373   7.236   9.776  16.469 -0.0315 -0.0513  0.1656
19527W        W36374   4.481   3.447  14.585  0.0491  0.2744 -0.0939
19528W        W36375   8.739  13.166   1.542  0.0058  0.0075  0.0373
19529W        W36376  13.007   1.156  15.810  0.1796 -0.1523 -0.2154
19530W        W36377   3.650  13.456   5.431 -0.0223 -0.2816 -0.0810
19531W        W36378   6.196   2.871  16.564 -0.0722  0.0435 -0.0188
19532W        W36379  11.552  14.002   0.262  0.1074  0.1586  0.1629
19533W        W36380   7.773   6.473   1.567  0.0208  0.1973  0.1173
19534W        W36381   5.219   6.353   1.003  0.0274  0.0175 -0.0376
19535W        W36382   4.385   5.526  12.372  0.3057 -0.1524  0.0023
19536W        W36383   0.821   1.564   0.262 -0.4248 -0.1098 -0.1249
19537W        W36384   0.994   3.854   0.417  0.3187 -0.2323 -0.0162
19538W        W36385  10.234  11.025  11.298  0.0806 -0.1385 -0.0955
19539W        W36386  12.482  13.432   5.239  0.0716  0.2133  0.0040
19540W        W36387  15.414  10.609   3.306  0.1846  0.0243  0.0187
19541W        W36388   4.154  10.110  12.129 -0.0941 -0.3052  0.0639
19542W        W36389   1.308   0.685  14.708  0.3152  0.1352 -0.0981
19543W        W36390  11.785   8.518   2.737 -0.0512 -0.1285  0.0983
19544W        W36391   9.220  13.576  12.205 -0.1126  0.1856  0.3027
19545W        W36392  11.753  14.201  11.472  0.2421 -0.2469  0.2715
19546W        W36393   6.344  12.342  14.105  0.0833  0.3399  0.1861
19547W        W36394  18.010  17.035  12.805  0.1071 -0.1530  0.1959
19548W        W36395   0.811  11.776  15.950  0.2463  0.2249  0.0708
19549W        W36396  18.114   7.221   5.202  0.2151 -0.0484  0.3114
19550W        W36397   2.517   8.130   2.169 -0.2394  0.0767  0.1731
19551W        W36398   4.572   4.555   2.849  0.1458  0.2440  0.1133
19552W        W36399   0.062   6.196   4.237  0.1376  0.1314  0.1955
19553W        W36400  15.195   5.476  15.317  0.2541  0.0530 -0.2350
19554W        W36401  15.977  15.674   4.224  0.0179 -0.1959 -0.1594
19555W        W36402  17.473   2.155   1.307  0.0130  0.1715  0.4072
19556W        W36403  12.510   6.179  13.288 -0.2484  0.0659  0.3743
19557W        W36404   3.640  11.797   4.821  0.0046 -0.0074  0.1791
19558W        W36405  14.622  16.436  12.007 -0.0007 -0.1947 -0.0337
19559W        W36406   7.507   6.642  13.070 -0.1294 -0.1446  0.2027
19560W        W36407   9.219   6.335  14.943  0.0404  0.2342  0.0315
19561W        W36408  10.616   7.170   2.314  0.0615 -0.0451  0.1213
19562W        W36409   6.315   1.874   4.891  0.0702 -0.2009 -0.1569
19563W        W36410   6.577   4.032  12.450  0.0751 -0.0117 -0.0103
19564W        W36411   0.927  16.199  15.247  0.1466 -0.2568 -0.1446
19565W        W36412   5.020   4.165  13.606  0.3466 -0.2453  0.2380
19566W        W36413   1.946   7.062   1.032  0.2962 -0.1235 -0.0761
19567W        W36414  11.168  18.061  11.628 -0.0040 -0.3038  0.0072
19568W        W36415  12.536   2.383   1.534 -0.1050 -0.1604  0.1800
19569W        W36416  16.409  14.999   0.424  0.1005  0.3153 -0.0299
19570W        W36417  12.944  15.742  14.681 -0.2471  0.0235 -0.3395
19571W        W36418  10.260  12.899  13.574  0.0617  0.2314  0.2203
19572W        W36419  12.578   4.364  11.676  0.1962 -0.0997  0.1299
19573W        W36420   5.008  11.159   5.198  0.1555  0.1665  0.1373
19574W        W36421  12.193  13.979  13.045 -0.1126 -0.1806 -0.0435
19575W        W36422   8.769   0.883   3.931  0.2957  0.2586 -0.0897
19576W        W36423  14.547   8.611  13.948  0.1564  0.0310 -0.2357
19577W        W36424  12.840  10.204  12.703  0.1297  0.0346 -0.2117
19578W        W36425  12.308  15.483   2.694  0.0679 -0.2059 -0.1187
19579W        W36426   2.737   2.739  14.620  0.1143  0.2097 -0.0066
19580W        W36427   3.965  13.404   5.822  0.1050  0.0924  0.0128
19581W        W36428   7.702   8.066   1.612 -0.0222 -0.2514 -0.0643
19582W        W36429   2.451   1.138  15.437 -0.0259 -0.3610 -0.0753
19583W        W36430   5.236  16.092  16.279 -0.0269  0.1474 -0.1179
19584W        W36431  17.460  17.889   5.067  0.2605 -0.2322  0.2954
19585W        W36432   5.336   6.322  15.876 -0.0922  0.3752 -0.0747
19586W        W36433   9.022   4.863  15.834  0.1950  0.1093  0.0739
19587W        W36434   1.788   4.714  14.877  0.0720 -0.0194 -0.2066
19588W        W36435   9.279  10.716  14.319 -0.0782 -0.1244  0.1644
19589W        W36436  14.389   1.109   1.201 -0.4313  0.0856 -0.0333
19590W        W36437   1.240  14.990   4.152  0.2143  0.0052 -0.0890
19591W        W36438  10.511  11.455  13.294 -0.1077 -0.0592 -0.0062
19592W        W36439  13.381   9.108   3.521  0.0854 -0.0175  0.0055
19593W        W36440   6.976   2.466   4.981  0.0004  0.0098  0.1142
19594W        W36441  18.027   7.341  15.423  0.0820 -0.0335 -0.2257
19595W        W36442   3.864  12.185   2.193  0.0591  0.0069 -0.0093
19596W        W36443   8.954   1.993   5.428  0.2956  0.0663  0.1631
19597W        W36444  14.268   8.234   3.091  0.0162 -0.2784 -0.2711
19598W        W36445   8.798  11.338   1.256  0.1541 -0.3311 -0.1557
19599W        W36446   6.404   2.474   2.457  0.1043 -0.3687  0.0306
19600W        W36447  17.698   2.655   2.097 -0.2087 -0.1567  0.2333
19601W        W36448   6.184   7.754   5.558 -0.0042 -0.0544 -0.0174
19602W        W36449   4.443  12.479  15.054 -0.1369  0.1614 -0.1755
19603W        W36450   4.408  17.062   6.404  0.1105  0.0388  0.0611
19604W        W36451  14.028   6.039  12.055  0.2732 -0.1560  0.0150
19605W        W36452   2.439   2.246  12.368  0.1439  0.3861  0.1036
19606W        W36453  11.829  11.112   3.268 -0.2578 -0.3660 -0.2391
19607W        W36454  15.827  15.248  15.154 -0.0217 -0.3872 -0.1157
19608W        W36455   2.546   4.701   4.609  0.1724 -0.0788  0.1516
19609W        W36456  11.750   2.867   1.344 -0.0333 -0.5103  0.3139
19610W        W36457   7.063   5.514  14.051 -0.0069  0.0923  0.0343
19611W        W36458   6.862   2.347   3.206  0.0819  0.2746  0.1605
19612W        W36459   7.450   2.230   1.054  0.2073 -0.0586  0.2090
19613W        W36460  15.562  12.952  14.443 -0.1169  0.0918 -0.0198
19614W        W36461  15.963  18.076  12.563  0.1227  0.3334  0.0668
19615W        W36462   8.694   0.585  12.412  0.1387 -0.1864  0.1712
19616W        W36463   9.897  16.295  15.539  0.0956 -0.2957  0.3556
19617W        W36464   9.538   7.581  15.388  0.0868  0.1469 -0.3024
19618W        W36465   5.112  11.435   2.305 -0.2017 -0.2499 -0.1709
19619W        W36466   5.381  14.736  12.212  0.2020  0.1659 -0.2293
19620W        W36467  16.337   4.206  13.492  0.1861 -0.0790 -0.0739
19621W        W36468  15.998  11.325  16.452  0.1275 -0.5076  0.3136
19622W        W36469  11.513   0.101  11.863 -0.0027 -0.0942  0.0143
19623W        W36470   5.005   2.034   1.466 -0.3212  0.0520 -0.0394
19624W        W36471  16.947  16.134  14.087 -0.2292 -0.0983  0.1980
19625W        W36472   8.379   7.029  13.948 -0.1199 -0.0027  0.3634
19626W        W36473   6.583  17.188   3.825  0.0834  0.1872  0.2743
19627W        W36474   6.128  16.285  16.099 -0.1112 -0.2782  0.2586
19628W        W36475   7.331   7.341   3.997  0.0251 -0.1955 -0.0479
19629W        W36476  16.585  10.063   3.597 -0.1381  0.0658 -0.2497
19630W        W36477  17.420  15.472   1.535 -0.3870 -0.0210 -0.2977
19631W        W36478   5.886   0.416  15.646  0.0896  0.0287  0.0295
19632W        W36479   9.501   5.141  12.270  0.0839 -0.2202  0.0835
19633W        W36480  13.307   5.799   5.456 -0.2165  0.0116  0.0388
19634W        W36481   8.681   0.474  16.344 -0.0141 -0.0953  0.4232
19635W        W36482   3.094   6.823   3.673  0.1404  0.1555 -0.2030
19636W        W36483   2.090   5.769   0.974 -0.0409  0.0486 -0.2988
19637W        W36484   9.821   1.114   5.132  0.1858  0.0385 -0.3222
19638W        W36485   7.248  12.641   6.040  0.0860 -0.1448  0.0364
19639W        W36486   2.263   5.983   4.045 -0.0401  0.0613  0.4396
19640W        W36487   1.618  14.133   2.999  0.1070  0.0451 -0.0315
19641W        W36488   8.046   4.529   4.348 -0.1636 -0.2538 -0.0876
19642W        W36489  16.944   4.608  13.968  0.0665 -0.1300  0.0405
19643W        W36490   9.293   3.242  15.185 -0.0774 -0.1083  0.2698
19644W        W36491  16.251  13.076   4.622 -0.2716  0.2452 -0.1509
19645W        W36492  11.777   4.913  12.701  0.0386 -0.2291  0.2666
19646W        W36493   3.689   1.093  13.174 -0.0109 -0.0464 -0.0121
19647W        W36494  10.389  17.466   1.519 -0.3831 -0.0472 -0.4183
19648W        W36495  10.921   6.775   0.205 -0.0707  0.1526  0.1355
19649W        W36496   4.733  17.111  14.808 -0.0288 -0.1698  0.0997
19650W        W36497  15.065  17.839   2.422 -0.0129  0.0079  0.2096
19651W        W36498  11.260  16.886  11.871 -0.0690  0.2198  0.0993
19652W        W36499  16.373  18.073  16.605  0.2083 -0.1893  0.0407
19653W        W36500  15.782   7.500  12.520  0.1367 -0.2474 -0.1228
19654W        W36501  15.320  10.457   5.355  0.2036  0.2954  0.0962
19655W        W36502   2.709  13.282   0.051 -0.0340  0.0379  0.1011
19656W        W36503   3.360  11.543   2.522  0.0431 -0.0177 -0.0258
19657W        W36504   5.213   6.421  15.062 -0.0612  0.0712  0.1172
19658W        W36505   9.459   4.345  13.928  0.4022  0.0960  0.3340
19659W        W36506  14.835  11.267   2.283  0.0825 -0.2752  0.1688
19660W        W36507  13.279  14.394  12.600  0.2561 -0.2987  0.0664
19661W        W36508   5.792   7.156   4.792  0.0852  0.1069  0.3698
19662W        W36509  17.559  16.781  16.542 -0.0128 -0.0853 -0.1528
19663W        W36510   6.725   4.690   1.852  0.2388  0.0164 -0.2277
19664W        W36511   3.963   9.720   5.731 -0.2192  0.1107  0.1868
19665W        W36512   3.287  13.990   4.659 -0.0204  0.0525 -0.0127
19666W        W36513  16.835  10.790   1.246  0.2079 -0.4437  0.2005
19667W        W36514  14.728   9.412   0.633 -0.1397 -0.0834 -0.0697
19668W        W36515   0.266   0.109  15.938 -0.1442 -0.0368  0.1048
19669W        W36516  13.482  17.659   1.110 -0.0493 -0.2159  0.0497
19670W        W36517   7.915   0.910   2.738 -0.0703 -0.4073 -0.1268
19671W        W36518  15.503   9.616   1.738  0.0244  0.2135 -0.3014
19672W        W36519   1.483   6.636  15.704  0.2642  0.3061  0.0636
19673W        W36520  17.932   8.835   0.098  0.0386 -0.0264  0.1760
19674W        W36521   0.383   8.273  16.262  0.1410  0.1512 -0.1751
19675W        W36522  12.295   3.216   1.782  0.3766 -0.0004  0.2678
19676W        W36523  15.509   9.644   0.012  0.0031 -0.4209 -0.2517
19677W        W36524  14.299  15.705  14.997 -0.0060 -0.3844  0.0271
19678W        W36525  13.310  17.363   0.021  0.3274  0.3150 -0.1613
19679W        W36526   9.020  12.198  14.795  0.2159  0.0992 -0.1706
19680W        W36527  14.721  11.587  15.832  0.1528  0.1883  0.0152
19681W        W36528   5.658   5.080   0.278 -0.0398  0.0667  0.0378
19682W        W36529   5.025  15.430  12.449 -0.1517  0.0631  0.2446
19683W        W36530   4.173  14.870   3.159 -0.0800 -0.1422 -0.2132
19684W        W36531   6.722  14.892  14.762  0.1089 -0.2102  0.2236
19685W        W36532   1.344   4.365   4.386 -0.0349 -0.0608 -0.1440
19686W        W36533  13.607  15.565   1.735  0.0165  0.4101  0.2411
19687W        W36534  11.849   8.584   0.962 -0.0393 -0.0021  0.0664
19688W        W36535   4.911   7.136  14.470 -0.3231 -0.0385 -0.2605
19689W        W36536  10.996  15.823  11.069  0.4567  0.0835 -0.1105
19690W        W36537  13.682  11.398  10.510 -0.3651 -0.1870 -0.2113
19691W        W36538  13.349   6.937  12.411 -0.0418 -0.0981  0.1064
19692W        W36539  12.379  16.552   1.304  0.1566  0.0289  0.2305
19693W        W36540  17.585   1.857   2.589  0.2682  0.1735 -0.0482
19694W        W36541   7.870   8.167   0.898 -0.0513 -0.1345  0.0380
19695W        W36542   4.466   2.871   0.831 -0.2215 -0.0537 -0.2862
19696W        W36543   9.246  16.279  12.634 -0.2561 -0.2574 -0.1111
19697W        W36544  16.318   6.498  13.379  0.3512 -0.0335  0.0340
19698W        W36545  14.938   9.028  13.700  0.0718  0.4255  0.0133
19699W        W36546   0.331   3.658   4.351  0.0411 -0.2653  0.1632
19700W        W36547  13.462  17.207   1.352  0.1704  0.0982 -0.0464
19701W        W36548  16.741  17.655   4.762 -0.1105  0.2789 -0.0771
19702W        W36549   0.440   7.491  11.635 -0.0497  0.0814 -0.2810
19703W        W36550  14.438   9.574   4.962 -0.0778  0.3749 -0.0295
19704W        W36551   6.700  13.539  15.342  0.0730 -0.1476  0.1273
19705W        W36552  15.645  15.093  11.611 -0.2315  0.0210  0.4936
19706W        W36553   5.664   0.690   3.716 -0.1333 -0.1811  0.2090
19707W        W36554   0.043  16.120   1.120  0.2812  0.0491 -0.0239
19708W        W36555   9.286   6.384   0.213 -0.1659  0.0895 -0.1450
19709W        W36556  14.836   2.876  13.831  0.0971  0.1718 -0.2458
19710W        W36557   0.599  11.309   0.165  0.2277 -0.1103  0.3596
19711W        W36558   9.319   4.033   3.775  0.0869 -0.0145  0.3581
19712W        W36559   6.292  16.031   5.702  0.2338 -0.1610  0.4499
19713W        W36560  12.921   2.777  11.834 -0.1352  0.0267  0.0068
19714W        W36561   0.278   4.672  15.067  0.0166  0.0038 -0.1395
19715W        W36562  17.445   7.790  13.228 -0.1812  0.1618 -0.2166
19716W        W36563  15.594  12.066   2.201 -0.1743 -0.2279  0.1743
19717W        W36564   0.120   4.541  11.504  0.2610 -0.2045  0.0488
19718W        W36565  16.638   4.378  12.164  0.2090  0.3215  0.1679
19719W        W36566  10.712   2.541   2.034  0.0365  0.0460 -0.1568
19720W        W36567   7.386  17.765   6.339  0.3358 -0.2719 -0.2215
19721W        W36568  10.256  10.264   1.827  0.2864 -0.2991 -0.1248
19722W        W36569   1.879   4.238   2.448  0.1460  0.0569 -0.4647
19723W        W36570  17.336   8.753  14.300  0.1558  0.0917 -0.3433
19724W        W36571  11.665   7.663  11.324  0.2076 -0.1419 -0.3329
19725W        W36572  12.593   4.685   2.078  0.1255  0.2627  0.2179
19726W        W36573  15.091  18.005  11.064 -0.0825 -0.0791 -0.0011
19727W        W36574   8.702  15.732   0.578  0.3254 -0.1514 -0.0817
19728W        W36575  16.895   8.625   2.323  0.0272  0.2656 -0.2324
19729W        W36576  15.473  13.179   3.637 -0.2618 -0.1191  0.2338
19730W        W36577  12.273  17.591  14.162 -0.0723  0.2055 -0.3176
19731W        W36578   7.878  12.778   3.775  0.0557 -0.1506 -0.2052
19732W        W36579   0.249  18.156  11.802  0.1788  0.0136 -0.2958
19733W        W36580   8.608  16.733   4.528  0.1967 -0.3091 -0.0902
19734W        W36581  10.031   3.828  13.176 -0.1247 -0.1875 -0.2229
19735W        W36582  17.742   6.839  12.131  0.2113 -0.0553 -0.0513
19736W        W36583   9.334  10.903  11.361  0.0825 -0.1331 -0.1375
19737W        W36584   7.879   2.960   0.163 -0.0181 -0.2159  0.0103
19738W        W36585  15.368   5.330  15.738 -0.0901  0.3596  0.1262
19739W        W36586   5.523   2.493   0.920 -0.4753 -0.2525  0.3642
19740W        W36587   6.659   5.188   2.827  0.3461 -0.0011  0.0225
19741W        W36588  16.712   3.848  11.459 -0.0626 -0.2221 -0.1555
19742W        W36589   8.731   2.463   4.001  0.1352 -0.0531 -0.2586
19743W        W36590  12.277  14.220  14.128  0.2430  0.5931  0.0869
19744W        W36591   6.415   4.442   5.927 -0.2612  0.0080 -0.0649
19745W        W36592  16.263   3.243   1.660  0.2672 -0.2353 -0.0917
19746W        W36593   3.647   6.413  13.000  0.2328 -0.1441  0.1153
19747W        W36594   0.778  13.372   2.105 -0.1823  0.2922  0.1325
19748W        W36595   8.003  10.359  15.949  0.2332 -0.0863 -0.0002
19749W        W36596   7.432  16.952  14.579  0.0832 -0.0842  0.1085
19750W        W36597   2.589   8.215   3.047  0.1586 -0.2538 -0.1622
19751W        W36598   6.572   1.227  12.792  0.0052 -0.0761  0.1156
19752W        W36599  10.067   4.600   4.643 -0.0488 -0.1443  0.1017
19753W        W36600   3.372   1.735  11.954 -0.3296  0.0026  0.0380
19754W        W36601  11.443   6.479  16.548  0.2195  0.0681  0.1738
19755W        W36602  13.556   4.990   0.306  0.3280 -0.2309  0.1976
19756W        W36603  15.011   6.648   3.340  0.4325 -0.0662  0.1179
19757W        W36604  15.406  11.694   1.155  0.1747 -0.1107 -0.1124
19758W        W36605  14.993  17.111  15.893  0.1808 -0.0892 -0.0731
19759W        W36606   4.186   4.115   5.112  0.2670 -0.1811  0.1849
19760W        W36607   3.521   0.256  14.189 -0.2097  0.4586  0.0431
19761W        W36608   7.765   3.872  11.941  0.0607 -0.1544 -0.2608
19762W        W36609  15.574  16.137  13.259 -0.2730  0.1039  0.0029
19763W        W36610   3.388   6.992   0.557  0.0295  0.1681  0.0775
19764W        W36611  10.823  11.601  14.222 -0.0263  0.0233 -0.1579
19765W        W36612  12.564   6.517  15.759 -0.1953 -0.1155 -0.0216
19766W        W36613  12.123   4.680   3.123  0.0318  0.1805 -0.2037
19767W        W36614   1.586   1.238  14.708  0.0121  0.0747  0.0868
19768W        W36615  16.278   6.918  14.741  0.1424 -0.1089 -0.3259
19769W        W36616  11.893  13.915  14.175  0.0467  0.0411  0.0058
19770W        W36617   2.482   0.567  12.880  0.1827  0.2071  0.2545
19771W        W36618   1.802   5.214   4.947  0.1365 -0.0118  0.2567
19772W        W36619   7.776  13.992   5.923  0.0211 -0.5493  0.0909
19773W        W36620  13.211  13.226  12.271 -0.2502 -0.0343  0.4830
19774W        W36621   5.898  10.465  12.303  0.1610  0.3450 -0.3933
19775W        W36622  13.020  12.161   4.214 -0.0835  0.0163  0.1563
19776W        W36623  10.272   0.893   1.299  0.2596 -0.0911  0.1729
19777W        W36624  15.821   4.154   1.486  0.1359 -0.0585  0.2029
19778W        W36625   5.955   2.581   5.110  0.1339 -0.3346  0.4187
19779W        W36626  14.747   0.947   0.137 -0.4028  0.2727  0.2409
19780W        W36627   4.759   5.683  13.514 -0.1176 -0.0134 -0.0424
19781W        W36628   3.960   0.580  12.589 -0.1040  0.0393 -0.2917
19782W        W36629   8.307  14.605   0.576 -0.0143  0.0188  0.2231
19783W        W36630   1.106  11.581  12.234  0.0366 -0.0103 -0.1754
19784W        W36631  14.776  17.391  15.505 -0.0160  0.0532  0.0643
19785W        W36632   9.893   2.137  13.870 -0.2790 -0.2797  0.2337
19786W        W36633   8.739   8.949  14.900  0.0255  0.0906  0.0239
19787W        W36634  16.254  14.868  13.849 -0.1198 -0.3092 -0.1622
19788W        W36635  10.031  12.239   3.091 -0.0444 -0.0166 -0.1053
19789W        W36636   9.941  11.017  11.712  0.0710 -0.3462  0.0462
19790W        W36637   6.173  12.045   3.689  0.0780  0.0258 -0.0668
19791W        W36638  10.480  10.009  11.121  0.4290 -0.2752 -0.1396
19792W        W36639  10.727  10.360  14.027  0.0318  0.4318 -0.1150
19793W        W36640  14.018  14.236   0.550  0.0243  0.0958 -0.0898
19794W        W36641  12.207  18.117  12.283  0.1678 -0.1236  0.0690
19795W        W36642   6.452   7.852   4.172  0.1833 -0.0123  0.0380
19796W        W36643   4.672   3.851   5.818  0.0098 -0.0732  0.0318
19797W        W36644  16.654   3.033  11.900  0.6559  0.0701  0.2698
19798W        W36645   9.613  16.145  13.045  0.0207 -0.0488  0.4374
19799W        W36646   4.584   6.538  13.471 -0.1670 -0.3105 -0.0624
19800W        W36647  10.499   8.304   4.460 -0.0666  0.0809  0.0941
19801W        W36648  10.846   5.664  15.096  0.1005 -0.0539 -0.2600
19802W        W36649  14.477  15.200   2.509 -0.1471  0.0571  0.0182
19803W        W36650  14.842   8.176   5.753 -0.1742  0.2617 -0.0210
19804W        W36651   9.141   0.275   5.010 -0.1554 -0.1433 -0.2303
19805W        W36652  10.827   7.532   3.749  0.1433  0.0431  0.1434
19806W        W36653  11.209   4.270   3.098  0.0316  0.0842  0.1414
19807W        W36654   5.453  10.357  12.891  0.0619  0.2829 -0.0323
19808W        W36655  12.872   3.823   1.628 -0.1680  0.2975  0.0514
19809W        W36656   2.249  17.540   0.039 -0.0018  0.0030 -0.1874
19810W        W36657   2.650  16.960  16.260  0.0435 -0.1166  0.2244
19811W        W36658   3.851  13.049   1.634  0.0359  0.1951  0.2742
19812W        W36659   4.064  13.618   0.248  0.2054  0.0004 -0.2845
19813W        W36660   0.466  15.479   4.655 -0.0168 -0.0131 -0.1157
19814W        W36661  15.319   7.788   3.100 -0.2809  0.0106 -0.3101
19815W        W36662  17.495   5.436   5.882 -0.2249 -0.0690 -0.0795
19816W        W36663   3.216   3.183   4.464 -0.1513  0.1345 -0.0326
19817W        W36664  16.411   1.924   1.578  0.1603 -0.1766  0.3001
19818W        W36665  11.460   6.875   4.341 -0.0619  0.0575 -0.2164
19819W        W36666  14.529  14.677  15.266  0.0442  0.3425 -0.2030
19820W        W36667   8.878   3.757   3.818 -0.0811  0.0449  0.2669
19821W        W36668  17.966   4.512   3.773  0.3904  0.0915  0.0025
19822W        W36669   8.189  17.319  12.910 -0.4491 -0.3071 -0.2507
19823W        W36670   3.073   2.165   4.275  0.0034 -0.0772  0.1833
19824W        W36671   5.597  17.511  14.947  0.0652  0.0179 -0.0749
19825W        W36672   8.134   4.906  16.174 -0.0565 -0.0367 -0.1040
19826W        W36673   6.089  16.511  14.302 -0.0921  0.1585  0.0808
19827W        W36674  12.394   1.852  11.802  0.1492  0.1148  0.2582
19828W        W36675  15.775   2.093  11.571  0.2018 -0.1597  0.2233
19829W        W36676  14.915  16.679   5.727  0.0639  0.1646  0.2018
19830W        W36677   4.904  13.271   6.342  0.1035 -0.1321 -0.0424
19831W        W36678  16.151  11.018   5.232 -0.2858 -0.2224  0.0486
19832W        W36679  13.669  12.227   4.872 -0.1524 -0.0768  0.0913
19833W        W36680   8.796   5.248   3.478  0.1416 -0.3268  0.0217
19834W        W36681   6.269  14.906   4.081  0.0218  0.2990 -0.2162
19835W        W36682  12.511   2.985  14.675  0.2023 -0.1794  0.0087
19836W        W36683   3.566   1.529   4.161  0.1006 -0.3828 -0.0019
19837W        W36684  13.707   7.894   2.418 -0.2102 -0.0372  0.0093
19838W        W36685   9.446   0.028  10.821 -0.4459  0.1413 -0.2708
19839W        W36686   5.690  17.075   1.990  0.0134 -0.0612 -0.0896
19840W        W36687   0.520  16.063  16.415  0.1221  0.2192 -0.1907
19841W        W36688   5.574   8.819   1.666 -0.0201 -0.0925 -0.1273
19842W        W36689   0.686   5.154  15.961  0.4117 -0.1798  0.2195
19843W        W36690   0.803   3.834   5.126 -0.1341 -0.0631  0.1298
19844W        W36691   5.847   7.554  12.825 -0.0742 -0.2071  0.2057
19845W        W36692   7.882  17.973  12.167 -0.2511 -0.2508  0.0968
19846W        W36693  14.724   1.366  14.606  0.2520 -0.0641 -0.0860
19847W        W36694   5.848  10.706   1.415  0.1734  0.0871  0.0048
19848W        W36695  12.948   2.240   3.318 -0.2832 -0.0766  0.0720
19849W        W36696   3.709   9.263   0.870 -0.1502 -0.2569 -0.0155
19850W        W36697   7.745   4.351  13.074  0.0790 -0.0973 -0.0297
19851W        W36698  18.148  15.624   3.014 -0.0384 -0.0835 -0.0132
19852W        W36699  13.988   6.896   3.144  0.0325  0.1766  0.0027
19853W        W36700  11.170   3.222   5.157 -0.2009 -0.0044  0.1861
19854W        W36701   6.584  16.527  13.725 -0.1390  0.0172 -0.0873
19855W        W36702  11.065   6.153   2.254  0.0768  0.1506  0.1441
19856W        W36703  13.376  13.114   2.031 -0.1607  0.0573  0.0578
19857W        W36704  13.226   0.536   0.226  0.2117 -0.2240 -0.1176
19858W        W36705   5.381  17.987  14.969  0.1294  0.0595  0.0177
19859W        W36706   0.463   0.862  13.509 -0.0443  0.2419 -0.1179
19860W        W36707  16.694   5.070  15.741  0.0976  0.1979 -0.1310
19861W        W36708  16.764   7.640  15.279  0.2234 -0.2246 -0.0356
19862W        W36709   6.610  16.624   3.955  0.1507 -0.0246  0.0971
19863W        W36710   5.202   2.160  15.256 -0.1450  0.1218 -0.2273
19864W        W36711   9.073   5.548   0.544 -0.0575  0.0293  0.2027
19865W        W36712  16.917  17.141   1.888  0.0694 -0.2184 -0.0948
19866W        W36713  14.952  17.357  12.937 -0.1373  0.0228 -0.2069
19867W        W36714   5.719  17.414  16.064 -0.0775  0.0666 -0.2519
19868W        W36715   9.382   0.132  14.775 -0.2009 -0.0766 -0.2609
19869W        W36716  11.009   9.081   2.117 -0.2821 -0.0226 -0.1904
19870W        W36717   1.990  15.478   3.558 -0.0949 -0.1438  0.1800
19871W        W36718  16.495   1.327   2.860  0.3628 -0.0987 -0.2692
19872W        W36719   7.593   0.448   4.521 -0.0332 -0.2260 -0.3326
19873W        W36720   1.081   8.556   1.511 -0.1464  0.2584  0.0024
19874W        W36721  10.679   0.263   5.342  0.3429 -0.4736 -0.2235
19875W        W36722   2.680   3.220  16.541 -0.0460  0.0548 -0.1177
19876W        W36723   1.649   7.632   2.360 -0.0273 -0.1758  0.3669
19877W        W36724   5.574   6.417   1.746 -0.1341  0.0333 -0.0754
19878W        W36725  12.639  12.600   0.900 -0.0085 -0.1777 -0.0896
19879W        W36726  13.275   5.283   3.852 -0.0843  0.0358 -0.0557
19880W        W36727   4.129   3.530   2.487  0.0167 -0.0117 -0.2897
19881W        W36728  14.627   2.636  12.495  0.0560  0.1102  0.0155
19882W        W36729   2.775  16.235  13.876 -0.3135  0.2409 -0.0487
19883W        W36730   1.288   7.639   3.506 -0.1610  0.0418  0.0959
19884W        W36731   7.997   8.560  14.564  0.0507  0.0208 -0.0655
19885W        W36732   8.211   7.574  15.872  0.0272  0.0976  0.1165
19886W        W36733   1.446   5.289  14.964  0.0425 -0.1832 -0.1883
19887W        W36734  12.167  10.164  16.049  0.0631  0.0836  0.0593
19888W        W36735  13.582   1.401  13.068  0.1482 -0.1055  0.0915
19889W        W36736  13.606   4.294  12.355 -0.1322  0.0526 -0.2234
19890W        W36737   9.386   9.929   2.552  0.2205  0.1228  0.1240
19891W        W36738   7.693   8.740  14.073  0.0563  0.1946 -0.4507
19892W        W36739   1.877   0.910   2.180 -0.0741 -0.0356  0.2389
19893W        W36740  17.385   9.493   1.360  0.0062  0.1147  0.1062
19894W        W36741   6.027   0.609  14.079 -0.2941  0.0922  0.3608
19895W        W36742  12.493   8.967  12.288  0.1712  0.1038 -0.0578
19896W        W36743   2.967   6.359  13.558 -0.0315  0.1854 -0.0456
19897W        W36744   8.272  12.020  15.832  0.2182  0.2022 -0.1943
19898W        W36745   8.386   6.174   1.688  0.1186  0.3565 -0.0724
19899W        W36746  17.784   8.804   3.011 -0.2287 -0.0817 -0.1033
19900W        W36747  16.566  12.147  11.516 -0.1358  0.4891 -0.2048
19901W        W36748   0.527  12.397  14.453 -0.0052 -0.1226 -0.1075
19902W        W36749   0.333   9.016  15.635 -0.1311 -0.0334  0.1340
19903W        W36750  14.244   8.226  12.079  0.1972 -0.2927  0.0851
19904W        W36751  17.413  12.379   3.669  0.2220  0.1203 -0.2976
19905W        W36752   5.645   6.437   2.294 -0.2975 -0.3163  0.1789
19906W        W36753   9.555  17.611  13.246 -0.0768 -0.0088 -0.1058
19907W        W36754   3.145   8.059   5.261  0.0156  0.3442 -0.4234
19908W        W36755  11.874  16.365   4.236 -0.1079 -0.2149 -0.1088
19909W        W36756  15.958   5.090  13.466  0.2480  0.0547  0.0862
19910W        W36757   6.738  10.539   4.855 -0.0068  0.0518 -0.1539
19911W        W36758  15.187  15.498   3.502 -0.2811 -0.2139  0.0530
19912W        W36759  17.505  13.075  12.460  0.1135  0.0392  0.1833
19913W        W36760   7.547  16.339   2.557  0.1638 -0.1672 -0.0239
19914W        W36761   9.628  13.917  12.170 -0.4317 -0.1167  0.1765
19915W        W36762   4.996  14.656  15.503 -0.0720  0.0483 -0.3179
19916W        W36763   5.197  13.530  12.564  0.0137 -0.1811  0.2642
19917W        W36764  14.595  12.184   4.316 -0.0003 -0.0375  0.1757
19918W        W36765  18.165   6.061   1.560 -0.0067 -0.0825  0.2290
19919W        W36766   8.997  14.892  15.516 -0.4179  0.1315  0.0364
19920W        W36767   4.264   3.095  13.597 -0.2928 -0.0029  0.2213
19921W        W36768   2.612   9.040   2.786  0.4417  0.1149 -0.0031
19922W        W36769   9.418  11.212   0.023 -0.2585  0.2029  0.2500
19923W        W36770  18.175   0.189  14.534 -0.2986 -0.1015 -0.1217
19924W        W36771  11.675   3.232  13.300  0.1159  0.1606  0.4419
19925W        W36772   5.123  14.381   2.204 -0.0678 -0.1644 -0.0227
19926W        W36773  10.857   1.419   0.758 -0.2644  0.0182 -0.0109
19927W        W36774  16.171   6.866  16.215  0.0350 -0.2522 -0.2661
19928W        W36775  16.572  13.406   5.313 -0.1252  0.0132  0.0269
19929W        W36776  12.567   7.775   4.708  0.0720  0.0332 -0.2225
19930W        W36777  17.584  10.445   3.004 -0.1167  0.3416 -0.0993
19931W        W36778   6.299  15.625  14.873 -0.1031  0.0805  0.1547
19932W        W36779   1.593   8.261  12.945  0.0902  0.0031 -0.2695
19933W        W36780   2.197   8.821  13.192 -0.3121  0.1587 -0.3072
19934W        W36781   1.453  15.703  14.054  0.0776  0.1864  0.0398
19935W        W36782  12.582   7.712   5.225  0.0040  0.1969 -0.0192
19936W        W36783   4.707   0.350  11.991 -0.3122  0.0102 -0.1284
19937W        W36784   6.246   7.370  16.101  0.2236 -0.2936 -0.1033
19938W        W36785   8.953  17.375   0.933  0.0403  0.1248 -0.1542
19939W        W36786   5.255  10.802   6.041 -0.0078 -0.2010 -0.0272
19940W        W36787  15.130  16.219   1.683 -0.2132  0.0992 -0.0667
19941W        W36788   5.584  17.423  13.429  0.0039  0.3126  0.2514
19942W        W36789   9.079  14.286  14.408  0.1691 -0.3979  0.0372
19943W        W36790  11.290   8.184   0.397 -0.0376 -0.3482  0.1098
19944W        W36791   1.294   5.127   1.642 -0.0637 -0.0855  0.2005
19945W        W36792   5.547   8.089   0.091 -0.2108 -0.0783  0.1880
19946W        W36793  12.495  18.045   3.313  0.1091  0.0599  0.0707
19947W        W36794  18.045  15.946   6.250  0.0691 -0.1752  0.2930
19948W        W36795   3.921   7.064   5.476 -0.1797  0.1069  0.0909
19949W        W36796   6.067   0.430   3.893  0.0898  0.0524  0.0387
19950W        W36797  14.040   5.353   0.182  0.1682  0.0474 -0.1158
19951W        W36798  15.992  13.189   3.688 -0.0659  0.2339  0.0635
19952W        W36799   3.247  11.121   0.302  0.0468  0.0724  0.2008
19953W        W36800   8.994  15.330  16.474 -0.0405  0.0523 -0.1609
19954W        W36801  11.697   8.654   1.405  0.0521  0.3255  0.1487
19955W        W36802   0.469   9.725  12.659 -0.0318 -0.2166  0.2433
19956W        W36803   2.873  13.072   1.870 -0.1814  0.2894  0.1546
19957W        W36804   9.020  17.042  14.227 -0.1283  0.0375 -0.0247
19958W        W36805   5.231  14.392  16.419 -0.0261  0.1780 -0.2714
19959W        W36806  13.066   7.384  14.903  0.1441  0.0348 -0.0192
19960W        W36807   6.215   6.239  14.905 -0.0076 -0.1479 -0.0110
19961W        W36808   7.847   3.403  15.343  0.1930  0.0745 -0.1510
19962W        W36809   7.565  16.174   5.140  0.0079  0.0231  0.1498
19963W        W36810  17.695   3.640  11.632  0.0220  0.3779  0.0655
19964W        W36811   4.890  11.009   5.760  0.1601 -0.0601  0.0916
19965W        W36812  13.091  17.728   4.129  0.0564 -0.0404 -0.3459
19966W        W36813   8.007   4.042  15.226 -0.0599  0.1121  0.0496
19967W        W36814   2.346  11.704   5.730  0.2332 -0.3644  0.0020
19968W        W36815  17.881  15.306   1.670  0.2782  0.0504 -0.1982
19969W        W36816  12.893  17.262  14.265 -0.3043 -0.2039  0.1288
19970W        W36817  12.707  12.747  11.297 -0.1149  0.4257 -0.1761
19971W        W36818  12.956  12.704   4.327 -0.0412 -0.1693 -0.0516
19972W        W36819   8.337   5.818  14.281 -0.0902  0.0672  0.0013
19973W        W36820  13.294  11.620   1.025  0.4559 -0.3782  0.0230
19974W        W36821   5.117   2.333   2.648 -0.0252 -0.0601  0.1909
19975W        W36822   2.800  16.408   2.974  0.1707 -0.0925 -0.0804
19976W        W36823   3.779  13.550  12.455 -0.1636  0.2314  0.1124
19977W        W36824  11.418  13.053   2.540  0.3021 -0.2551 -0.1110
19978W        W36825   4.793   0.214  14.157 -0.2797 -0.0644 -0.6561
19979W        W36826  10.301  13.647   1.208  0.2072  0.0571  0.2619
19980W        W36827  13.697  13.512   3.616 -0.3378  0.0105 -0.0258
19981W        W36828  15.039   4.352   0.018  0.2982 -0.3379  0.0623
19982W        W36829   9.926  10.653  13.066 -0.0929 -0.0853 -0.1010
19983W        W36830  10.520  10.955  15.453 -0.3677 -0.0842  0.0898
19984W        W36831   1.623   0.034   2.618 -0.0582 -0.0469 -0.1296
19985W        W36832  14.447  10.522   5.263 -0.2924 -0.1762 -0.2621
19986W        W36833   3.627  16.903  14.448  0.0485 -0.1346 -0.0267
19987W        W36834  10.225   9.070   4.136 -0.0879 -0.1525 -0.0467
19988W        W36835  16.666  11.806   3.840  0.3050  0.4507 -0.0318
19989W        W36836   1.415   9.610   4.444  0.3005 -0.1100  0.0313
19990W        W36837  12.994   0.998  16.342 -0.0144  0.1439  0.0772
19991W        W36838   3.323   4.157  12.178 -0.0750 -0.3415  0.2671
19992W        W36839   2.111   2.486  14.354  0.1656  0.0954 -0.1350
19993W        W36840   8.984  10.153   4.034 -0.1103 -0.0098 -0.1756
19994W        W36841   0.956  10.357   2.148 -0.1420 -0.1692  0.1184
19995W        W36842   8.602  17.999  15.390  0.0051 -0.0390  0.0491
19996W        W36843   9.371   8.205  13.628  0.2689  0.4303  0.3298
19997W        W36844   3.241  13.193   5.677 -0.1323  0.0766 -0.3302
19998W        W36845  16.423   9.564  14.983 -0.1607 -0.3326 -0.2554
19999W        W36846   8.957  15.865   1.029 -0.0483 -0.0451 -0.0373
20000W        W36847  16.307   8.993  15.915 -0.0945 -0.0256  0.0165
20001W        W36848   0.588   9.464   1.883 -0.0687  0.1335 -0.1315
20002W        W36849  11.077   3.220  11.759 -0.2181  0.3066 -0.0169
20003W        W36850  12.673  10.481   5.503 -0.2072 -0.0906 -0.2260
20004W        W36851   3.468   7.522  13.561 -0.1596  0.0395 -0.1032
20005W        W36852  10.250   7.216   2.637 -0.0455  0.0200  0.0149
20006W        W36853   4.533  15.482   0.917  0.1315 -0.3262 -0.0615
20007W        W36854  10.564  10.994   3.377  0.0343 -0.4057 -0.1406
20008W        W36855  13.450   3.828   2.847  0.0006 -0.2407 -0.0994
20009W        W36856  12.570  15.011   0.126  0.2044 -0.2282  0.3166
20010W        W36857   7.910   1.181   4.128  0.0494  0.0821 -0.1534
20011W        W36858  15.480   2.539   0.180 -0.1008  0.0427 -0.5294
20012W        W36859   2.082  14.342  16.401 -0.0371 -0.5613  0.0140
20013W        W36860   1.505   9.790  12.247  0.1059 -0.2398  0.0240
20014W        W36861   2.302  15.166   1.717 -0.0232 -0.1236  0.1566
20015W        W36862   4.938   7.584   4.170 -0.0945 -0.2662  0.0624
20016W        W36863   3.493  15.693   1.822 -0.3684  0.2788  0.4172
20017W        W36864  12.668  13.117  12.094 -0.0357 -0.2939 -0.0198
20018W        W36865   3.078   7.342   2.588 -0.0670  0.1421  0.0102
20019W        W36866   3.921   2.312   5.779 -0.1611 -0.1556  0.2026
20020W        W36867  16.502  11.450   4.419 -0.1191  0.1244  0.0672
20021W        W36868   2.327   4.066  11.694 -0.1600  0.0908 -0.3142
20022W        W36869   5.018   9.689  14.242  0.1100 -0.2023  0.2346
20023W        W36870   6.055   1.258  16.005  0.2215 -0.2526 -0.1483
20024W        W36871   6.658  17.389   0.897 -0.0290  0.1551 -0.0607
20025W        W36872  12.990   3.114   3.243  0.0060  0.2038 -0.2967
20026W        W36873  15.536   0.469   5.148 -0.0557 -0.2263 -0.0976
20027W        W36874   1.176   3.334  14.731 -0.2566  0.0871  0.1973
20028W        W36875  13.665   2.725   0.450 -0.1301  0.1530 -0.3620
20029W        W36876   0.296  10.006  13.018 -0.1008  0.1670 -0.3845
20030W        W36877   3.922   7.851   4.516  0.2958 -0.2254 -0.2220
20031W        W36878   5.820   6.821  16.385  0.0400 -0.1942  0.3154
20032W        W36879   1.147   5.734  11.462  0.1353 -0.2033 -0.2949
20033W        W36880   0.980   9.660   0.006  0.0971 -0.0313  0.3200
20034W        W36881   2.847  15.956   2.712  0.2485  0.1807  0.1407
20035W        W36882   0.840   5.246  12.289 -0.0300  0.2526 -0.0346
20036W        W36883   8.899  10.506  14.086 -0.0727 -0.5380 -0.1966
20037W        W36884   6.128   7.165   4.352 -0.0090  0.1589  0.2028
20038W        W36885  17.306  14.599  13.864 -0.0744  0.0887 -0.1576
20039W        W36886  10.223  10.932  13.401  0.2964 -0.4961 -0.2503
20040W        W36887  12.022   4.273  11.719 -0.3555 -0.2076  0.1285
20041W        W36888  12.827   4.647   1.207  0.2244 -0.2624  0.0018
20042W        W36889  10.879  14.742  14.029 -0.1043  0.0977  0.1593
20043W        W36890   2.679   5.708  11.691 -0.0203  0.2195 -0.1006
20044W        W36891  15.081   3.909   1.063  0.0511  0.2716  0.1716
20045W        W36892  10.689   4.790  15.719  0.1651  0.0591  0.0388
20046W        W36893   8.514  10.308  15.939 -0.3293  0.2351 -0.0193
20047W        W36894   4.456  11.249  14.652  0.0118  0.3344 -0.1667
20048W        W36895   0.652  10.377   0.573 -0.1835  0.1531  0.0770
20049W        W36896  14.133   3.735   2.018 -0.2500 -0.3265 -0.1442
20050W        W36897   4.864   3.824  13.057 -0.1929 -0.0500  0.0760
20051W        W36898   7.517  12.877  12.070 -0.0212 -0.1065  0.0053
20052W        W36899  10.953  17.828   2.529 -0.0210 -0.0443  0.2289
20053W        W36900   2.936   1.038  11.641 -0.2092  0.1726  0.1369
20054W        W36901   5.100   9.037  13.314  0.0597  0.2329 -0.0146
20055W        W36902   1.392  15.471   4.861  0.0581  0.0897 -0.1641
20056W        W36903   2.834   3.845   5.631  0.2744 -0.0291 -0.0781
20057W        W36904   1.304   3.039   1.443  0.0228 -0.2436 -0.0375
20058W        W36905   5.198  13.127   5.408 -0.0102 -0.5224 -0.0316
20059W        W36906   5.094   9.137   2.284  0.1579  0.2206  0.1757
20060W        W36907  14.295  10.002   0.742  0.0067 -0.0215 -0.0730
20061W        W36908   8.029   3.983  13.212 -0.2648  0.2724  0.1367
20062W        W36909  10.862   5.631   0.079 -0.0514  0.2196 -0.6563
20063W        W36910  11.452  12.257   4.469 -0.5838  0.0299 -0.2708
20064W        W36911   5.561   4.322  14.836  0.2796 -0.0540 -0.1741
20065W        W36912  10.187   6.040   2.689  0.0285  0.0258  0.0156
20066W        W36913  16.259   9.210   4.295 -0.3214 -0.0182 -0.1212
20067W        W36914   5.232  15.480  12.930  0.0026  0.2132  0.0666
20068W        W36915   3.384   9.639  12.490  0.0363  0.2050  0.2814
20069W        W36916   7.793  12.276  12.428  0.1434 -0.0038 -0.0207
20070W        W36917  10.016   3.875  15.512 -0.2466 -0.1303  0.0165
20071W        W36918  14.723   8.132  15.369  0.3252 -0.0487  0.0843
20072W        W36919  17.209  16.243   0.524  0.0034 -0.2671  0.1007
20073W        W36920  12.129   3.367   2.898  0.2846  0.0045 -0.0497
20074W        W36921  16.086   1.457   3.900 -0.1422  0.0016  0.1491
20075W        W36922  15.503  15.827   3.040  0.1906  0.3911 -0.0407
20076W        W36923  11.148   4.585   2.307  0.1308  0.0027  0.0638
20077W        W36924   2.152   3.235  16.551 -0.1040 -0.0706  0.1773
20078W        W36925  12.580   6.229  12.344  0.2310 -0.1631  0.2455
20079W        W36926  11.024  15.977   1.420  0.0080 -0.2158  0.1797
20080W        W36927   0.835  14.681   2.332 -0.2933 -0.3077 -0.0141
20081W        W36928  12.745   2.695   3.057 -0.1604  0.0784  0.0547
20082W        W36929   7.704   7.668   0.770 -0.2372 -0.1636 -0.1679
20083W        W36930  15.827   9.579   5.440 -0.1481 -0.1049  0.2219
20084W        W36931  16.354   4.302  16.019 -0.1387 -0.1875 -0.1654
20085W        W36932  11.697   4.669   0.927  0.2184 -0.1605 -0.1113
20086W        W36933  15.725  17.011  12.717  0.0042  0.2762  0.1299
20087W        W36934   6.255  11.458   3.698  0.0331  0.1973 -0.3792
20088W        W36935   9.744  10.305  15.450  0.0692 -0.3112  0.0924
20089W        W36936  17.494  14.872  11.629 -0.1397 -0.2600  0.0018
20090W        W36937  13.471  13.234  15.803 -0.0734 -0.0407 -0.0860
20091W        W36938  17.358   3.396   5.178 -0.2404 -0.1362  0.2497
20092W        W36939   9.909   3.305   2.287  0.2385 -0.0472  0.1425
20093W        W36940  14.122   2.468  16.371 -0.1671 -0.0772  0.2792
20094W        W36941  17.076   0.330   0.908 -0.1361 -0.0805 -0.1363
20095W        W36942   1.156   5.007  15.630  0.3203 -0.2110  0.3514
20096W        W36943   6.308  10.904  12.114 -0.1434  0.2782  0.1240
20097W        W36944  17.583   9.348   4.720  0.0366  0.2812  0.1041
20098W        W36945   4.900   3.963  12.258 -0.0454  0.1627 -0.0832
20099W        W36946  10.427  14.090   3.957  0.1071  0.1468 -0.0230
20100W        W36947   4.910  16.619   3.204 -0.1462 -0.0089 -0.1118
20101W        W36948  16.187  16.394   2.338  0.1082 -0.1458 -0.0021
20102W        W36949   4.259   3.769  13.158  0.1693  0.3684  0.2264
20103W        W36950  15.994   7.466  14.419 -0.1815  0.0733  0.0312
20104W        W36951   9.095   4.283  13.507 -0.0373 -0.2201  0.0984
20105W        W36952  11.833  10.972  12.140 -0.3046  0.1203  0.0160
20106W        W36953   6.870   7.498  13.894 -0.3173 -0.0442 -0.0709
20107W        W36954   9.063  14.055   2.683  0.0632  0.2539  0.0556
20108W        W36955   1.891  10.268   2.245 -0.1763  0.5471 -0.0499
20109W        W36956   5.116  12.544  15.570 -0.0088 -0.4083  0.0471
20110W        W36957   2.456  13.059  14.597  0.0971 -0.1571  0.0444
20111W        W36958  10.574   6.440  10.085 -0.2195  0.0406  0.0320
20112W        W36959  13.588  13.537   5.379 -0.0927  0.1404 -0.1388
20113W        W36960   8.004   6.371  12.985  0.0626  0.1086 -0.2486
20114W        W36961  15.098   4.641  13.219 -0.2040  0.0926 -0.3435
20115W        W36962   5.139  14.631  13.470  0.0608  0.0235  0.0248
20116W        W36963   6.954   1.092   0.351  0.1589 -0.0501 -0.0269
20117W        W36964   4.909   7.215   1.411  0.2539 -0.1006  0.0329
20118W        W36965   8.065  15.694  13.532 -0.1811  0.0427  0.0528
20119W        W36966   8.903   0.109   4.048  0.0010 -0.3450  0.1809
20120W        W36967   9.361   3.503  11.892 -0.1426  0.1334  0.1967
20121W        W36968   7.721   6.803   1.914 -0.1841  0.1036  0.2063
20122W        W36969  17.520  15.133  15.354  0.1157  0.0484  0.0297
20123W        W36970   9.236  11.302   5.198  0.0501 -0.1037 -0.0965
20124W        W36971   5.371   5.061  11.935  0.1645 -0.1701 -0.0961
20125W        W36972  15.929   6.521  12.988  0.0127 -0.0205  0.1355
20126W        W36973  16.720   0.882  11.297  0.1563  0.0608 -0.2753
20127W        W36974   6.964   9.429   2.187 -0.1849  0.0812 -0.1890
20128W        W36975   8.123  10.942  10.501  0.0633 -0.0909 -0.1394
20129W        W36976   2.861  18.061  16.025 -0.0449  0.0934 -0.1571
20130W        W36977   1.984  13.919  11.873 -0.0294  0.0103 -0.0617
20131W        W36978   0.839  17.924  12.058  0.3629 -0.0363  0.1857
20132W        W36979  16.293  15.942   2.898 -0.4212  0.1047 -0.1893
20133W        W36980   5.496  15.231   0.667 -0.3299  0.1561 -0.0231
20134W        W36981   2.123  15.171  14.390 -0.2599  0.3455 -0.0681
20135W        W36982   4.753   0.875   0.937  0.0249 -0.2383  0.0054
20136W        W36983   6.952   6.812   1.568 -0.2560  0.0334  0.1043
20137W        W36984   6.309   4.594   2.784 -0.1037 -0.1640  0.1457
20138W        W36985  17.534  16.323   3.229  0.2070  0.1058  0.0454
20139W        W36986  15.771   5.296   4.817 -0.3605  0.1042 -0.0274
20140W        W36987   6.208  12.622   4.906  0.0638  0.0161 -0.0283
20141W        W36988   1.224  14.638   4.989  0.1054  0.0938  0.0478
20142W        W36989  18.172  12.098   1.686 -0.3298  0.0450 -0.0567
20143W        W36990   3.461   2.966  15.999 -0.1764  0.1852 -0.0475
20144W        W36991   0.304   0.553   4.797  0.0748  0.0775 -0.1647
20145W        W36992  10.055  13.551  15.213  0.2682  0.0973 -0.1845
20146W        W36993  12.315   1.355  11.630 -0.0219 -0.1719 -0.2599
20147W        W36994   7.089   9.680  13.362  0.0763  0.0283 -0.1777
20148W        W36995  14.385  12.076  13.472 -0.2327 -0.0369  0.5427
20149W        W36996  16.825  17.369   4.221  0.3090  0.1091 -0.3184
20150W        W36997  17.459   0.696  15.779  0.1597  0.2861  0.0808
20151W        W36998   4.982   9.577  13.208 -0.0037  0.0777 -0.0134
20152W        W36999   6.133   8.486  14.186 -0.1216  0.0358 -0.1397
20153W        W37000   3.679  11.272   3.229  0.1289  0.2454  0.0248
20154W        W37001  17.550  10.381  16.002 -0.2314  0.0849  0.2223
20155W        W37002   8.154  11.278  14.236 -0.0164 -0.4708  0.0945
20156W        W37003   2.130   3.251  13.063  0.4955  0.2499  0.4787
20157W        W37004  10.745  18.166  15.223  0.0429  0.0912  0.0389
20158W        W37005  10.328  15.615   5.473 -0.1251 -0.1771 -0.1612
20159W        W37006   0.607   6.247   0.246  0.2899 -0.0213 -0.1301
20160W        W37007  15.160   6.528  13.569  0.2276  0.2350  0.0603
20161W        W37008   0.833  12.019  15.472 -0.1159 -0.1376 -0.1706
20162W        W37009  16.997  12.434  11.988  0.2341 -0.1979  0.0254
20163W        W37010  12.384  10.259   1.576 -0.0456 -0.1657  0.2202
20164W        W37011   4.427   7.196   2.869  0.0976  0.1504 -0.0143
20165W        W37012  18.139   3.698  16.572 -0.3684 -0.1784  0.2103
20166W        W37013  13.485  14.758  14.288  0.1331  0.1376  0.0280
20167W        W37014   7.924   5.179   3.634  0.0217 -0.1675  0.0429
20168W        W37015  16.473  14.222  16.215  0.0945  0.0339 -0.0877
20169W        W37016   7.377   8.076   0.622  0.1884 -0.1338  0.1822
20170W        W37017   5.513  15.335   2.842 -0.1572 -0.0383  0.0408
20171W        W37018  14.760  13.499   4.087  0.1515  0.0553  0.0393
20172W        W37019  11.800  17.913   4.151  0.0829 -0.0336  0.4535
20173W        W37020  10.790  10.490  15.752  0.0321 -0.5412  0.1591
20174W        W37021   9.854  17.605  16.236  0.1864  0.1088 -0.3455
20175W        W37022   5.959   3.899   5.558  0.1935  0.0145  0.2260
20176W        W37023  12.379  11.196   5.341  0.0491 -0.0443 -0.1597
20177W        W37024   6.696   8.404  13.318 -0.1069  0.1135  0.2424
20178W        W37025  16.712   0.308  12.348  0.1350 -0.3062  0.3946
20179W        W37026   8.521   4.537   3.128  0.3308 -0.0464  0.0189
20180W        W37027   1.744   5.548  12.266 -0.1864  0.2702  0.0440
20181W        W37028  10.868   0.509  15.360 -0.3264 -0.4357  0.2195
20182W        W37029  10.132  18.019   2.130  0.0610  0.1061  0.2198
20183W        W37030   8.623  12.576   0.184 -0.2410 -0.2003 -0.1919
20184W        W37031   1.716  14.758   4.798 -0.1235  0.0707  0.1360
20185W        W37032   0.467  10.871   5.163  0.0234  0.0518 -0.0633
20186W        W37033  18.112   2.500   1.803  0.1544 -0.0818 -0.0116
20187W        W37034   7.428   0.423   5.740 -0.1447 -0.1437  0.2055
20188W        W37035   2.427   2.406  13.454  0.2509 -0.0806  0.1394
20189W        W37036   6.805   0.133  15.886 -0.0376  0.0381  0.0018
20190W        W37037   9.950  17.279   0.457 -0.1349  0.3902  0.0370
20191W        W37038  15.383   0.615  15.530 -0.0348 -0.5211 -0.0986
20192W        W37039  14.157  16.813   5.251 -0.0086  0.2943  0.1386
20193W        W37040   2.670  17.600  14.559  0.1438 -0.0028 -0.0073
20194W        W37041  16.832   4.080  13.337 -0.0429 -0.3320  0.0150
20195W        W37042  15.187   1.372  16.142 -0.0737 -0.1496  0.4348
20196W        W37043  12.986  15.400   1.623  0.3875  0.0251 -0.1063
20197W        W37044   9.378   3.330   0.054 -0.1159  0.0456  0.0282
20198W        W37045  17.069   3.763   2.955 -0.1091 -0.1739 -0.0574
20199W        W37046   2.382  10.308  14.969  0.4520 -0.2982  0.0875
20200W        W37047  15.158   8.452   3.824 -0.1948  0.0198 -0.0581
20201W        W37048   2.534   2.307   1.334  0.0260 -0.1821  0.2348
20202W        W37049   9.463  13.977   2.296 -0.3880  0.0727 -0.1364
20203W        W37050   2.039  17.818  15.660  0.0806 -0.0049  0.0909
20204W        W37051   2.880   1.390  16.224 -0.0423 -0.0023  0.1723
20205W        W37052   4.316  11.746  12.098  0.3207  0.3219 -0.0266
20206W        W37053  13.705   2.059   5.542 -0.1002 -0.0024 -0.0824
20207W        W37054  14.325   1.028   1.806  0.0934 -0.1122 -0.3013
20208W        W37055   1.113  12.070   3.033  0.0702  0.0271 -0.0899
20209W        W37056  17.114  10.701  15.124 -0.2359 -0.1693 -0.2253
20210W        W37057   8.962  17.296  11.592 -0.2039  0.1693  0.1860
20211W        W37058   5.004  14.189  11.130 -0.0812  0.3025  0.3002
20212W        W37059  13.235   2.712  15.167 -0.3919  0.0829 -0.2117
20213W        W37060  13.331   8.294   1.244 -0.0780  0.2207  0.0838
20214W        W37061   8.405  16.148  12.035 -0.3742 -0.1950 -0.1020
20215W        W37062   2.111   6.471   4.734 -0.0589  0.0173  0.4640
20216W        W37063   4.080  12.859  12.987 -0.3110  0.0272 -0.0001
20217W        W37064   6.178  14.389  14.183  0.0914  0.0372  0.1031
20218W        W37065   1.957  17.652   3.449 -0.0061 -0.6100 -0.0567
20219W        W37066   3.752   3.729  13.524 -0.2372 -0.1556  0.0820
20220W        W37067   0.969  11.039  12.354 -0.1914  0.4036  0.1447
20221W        W37068  16.693  13.829  15.866 -0.2556 -0.0772  0.0390
20222W        W37069   9.056  12.923  16.296 -0.0931 -0.1486  0.0574
20223W        W37070  10.909  11.370   1.702  0.1138 -0.1551 -0.1116
20224W        W37071   6.527  16.020   5.214  0.1368 -0.1002 -0.1109
20225W        W37072   2.798   5.954  15.829 -0.0318  0.3170  0.1914
20226W        W37073  14.997   5.146   5.007  0.1926 -0.3249 -0.3460
20227W        W37074   0.207  17.145   3.607 -0.1777  0.1650 -0.0441
20228W        W37075   6.706   1.899   2.375 -0.2568  0.0565 -0.0313
20229W        W37076   3.705  11.847   0.747  0.0003  0.2110  0.2429
20230W        W37077  17.693   9.017  14.148  0.2849  0.4733  0.2318
20231W        W37078  16.181  13.951  14.053  0.0865 -0.1051  0.0795
20232W        W37079   2.302   4.621  13.614  0.0537  0.1288 -0.1324
20233W        W37080   1.033  15.122   0.198  0.5469 -0.2463 -0.1685
20234W        W37081  12.254  10.224   2.444 -0.1709 -0.0426 -0.0063
20235W        W37082   6.968   3.133   3.689  0.1383  0.2344  0.2520
20236W        W37083   8.420   7.935  14.016  0.1979 -0.0930 -0.0124
20237W        W37084   2.734   3.250   1.194  0.1734 -0.2144 -0.0011
20238W        W37085   6.568   5.875  11.567 -0.0811  0.3042  0.2890
20239W        W37086   6.669  15.879  14.343  0.1717 -0.1112 -0.2042
20240W        W37087  14.129   6.190   5.478 -0.0244  0.1842  0.1422
20241W        W37088  11.227   2.528   4.006 -0.1210  0.0640  0.0747
20242W        W37089   6.988  11.592  16.608  0.0147 -0.1449 -0.0694
20243W        W37090   2.383  12.232   5.655  0.0882  0.1841  0.3632
20244W        W37091   1.695  15.194  14.157  0.1802  0.1062 -0.0953
20245W        W37092  15.375  14.489   3.760  0.1349 -0.1442 -0.3905
20246W        W37093   7.543  15.605  15.342  0.1570 -0.0259  0.2207
20247W        W37094  12.332  12.028   3.266  0.2727 -0.3799  0.3363
20248W        W37095   8.933  17.368   3.608 -0.1320 -0.2834  0.0116
20249W        W37096  13.459   5.605   1.506 -0.1396 -0.1297  0.2420
20250W        W37097  12.534   0.740  12.445 -0.1935 -0.1356  0.0729
20251W        W37098   5.231   2.899  12.905 -0.1369 -0.0358  0.0307
20252W        W37099   0.705   4.695   2.497 -0.1792  0.0228  0.2542
20253W        W37100  15.089  16.189  13.191  0.2210  0.1300 -0.1426
20254W        W37101  18.049   5.582   2.677 -0.1006  0.0180  0.3670
20255W        W37102   1.778  15.234   4.856  0.1780  0.4426 -0.0620
20256W        W37103  14.547   7.466   1.978  0.0354 -0.0510 -0.0945
20257W        W37104   8.133   0.438   4.489 -0.1602  0.0015 -0.1694
20258W        W37105   7.583  15.276   1.845 -0.0609  0.0094 -0.2195
20259W        W37106   9.559  11.780  15.495 -0.0265  0.1154 -0.1271
20260W        W37107   5.516   3.711  11.627  0.0539  0.0766  0.1681
20261W        W37108   4.192   1.029   5.576 -0.2476 -0.2544  0.0871
20262W        W37109  13.890   1.413  12.613  0.1985 -0.0181  0.1014
20263W        W37110  16.579  16.105   4.409  0.0706  0.2983 -0.2220
20264W        W37111  14.258   3.895   0.171 -0.1542  0.0558 -0.1175
20265W        W37112  15.841   8.731  15.714  0.1790 -0.0282  0.0191
20266W        W37113  17.943  14.778  12.964  0.0494  0.0000 -0.3489
20267W        W37114  16.088   1.019  15.319 -0.4083 -0.2803  0.0379
20268W        W37115   0.836  15.253   5.300 -0.0772 -0.0303 -0.1615
20269W        W37116   6.980  11.038   4.020 -0.0701  0.2860 -0.1045
20270W        W37117   9.081  16.587   3.173  0.1125 -0.2624 -0.0862
20271W        W37118   4.846   9.025  11.919 -0.1410 -0.1099  0.0555
20272W        W37119  12.281   6.273  11.453  0.2661 -0.0450 -0.0232
20273W        W37120  15.967   8.300   3.614  0.1313 -0.1778  0.0817
20274W        W37121   2.954  13.703  14.234 -0.1938 -0.2749  0.4099
20275W        W37122  11.652   2.473   0.965  0.0298  0.0879  0.1324
20276W        W37123  13.689   6.189  12.936 -0.0344  0.1259  0.0430
20277W        W37124   2.785  14.396  11.317  0.3063 -0.2632  0.0368
20278W        W37125   1.224   0.733  14.194 -0.0909 -0.2352 -0.2646
20279W        W37126   1.206   7.965  13.641 -0.1491 -0.0230 -0.1520
20280W        W37127   3.316   7.011   2.295 -0.2833  0.3143  0.0331
20281W        W37128  10.437   4.904   3.022  0.0257  0.1257  0.4528
20282W        W37129  10.276  12.223  15.202  0.2396  0.0496  0.0713
20283W        W37130   8.205   4.390   3.494  0.5141 -0.1484  0.4349
20284W        W37131  12.201   6.844  15.730  0.0284 -0.2187 -0.2263
20285W        W37132  12.977   9.749  16.617  0.1016  0.2932  0.1214
20286W        W37133  17.134   8.849   0.786  0.0019  0.1007 -0.2376
20287W        W37134  15.601   7.453   1.043 -0.1193 -0.0157 -0.1246
20288W        W37135  10.747  13.675  16.271 -0.1232  0.0776  0.0456
20289W        W37136  12.611  16.943   4.202  0.0948 -0.1382  0.0701
20290W        W37137   6.398  11.803  14.954  0.3657  0.0197 -0.2868
20291W        W37138  17.308  18.013  15.400  0.0951 -0.3445  0.0579
20292W        W37139   9.419   3.723   2.835  0.2012  0.0649  0.2861
20293W        W37140   0.109   5.554   3.561  0.3830 -0.0934 -0.1757
20294W        W37141   9.969   0.637  13.110 -0.2199  0.0307 -0.4818
20295W        W37142   9.194   0.702   3.664 -0.2643 -0.0045  0.0318
20296W        W37143  14.014   5.970  14.938 -0.1305  0.0264 -0.2577
20297W        W37144  15.237   0.400   3.847 -0.0344 -0.3007  0.0075
20298W        W37145  11.595  17.626   5.111  0.2041  0.3713 -0.0571
20299W        W37146   9.199   0.986  16.522 -0.1011 -0.2836  0.1234
20300W        W37147  16.783   4.964  12.216 -0.2620  0.0379  0.0592
20301W        W37148  12.461   6.367   1.351  0.0923 -0.2349 -0.2070
20302W        W37149   7.390  12.015   2.735 -0.0291 -0.0984  0.0886
20303W        W37150  14.864   2.145   0.018  0.0118  0.0602  0.0340
20304W        W37151  15.555  17.179   3.326  0.0052  0.1626  0.1507
20305W        W37152  15.767   0.295  15.598  0.3008  0.0614 -0.0587
20306W        W37153  11.138  16.900   1.103 -0.2250  0.0557  0.3081
20307W        W37154  15.101   6.084  13.250 -0.0991  0.1719  0.1354
20308W        W37155  14.588  16.722  14.103 -0.2130  0.2811 -0.2577
20309W        W37156   8.781   3.151   3.165 -0.2209 -0.2119  0.3502
20310W        W37157  10.743  16.587  14.923 -0.0455  0.1169 -0.0397
20311W        W37158  14.196   3.556  13.211 -0.3164 -0.1410 -0.0614
20312W        W37159   2.663   8.247   3.736 -0.1631  0.4473  0.0656
20313W        W37160  16.911  11.654   0.579  0.3986  0.0847  0.0790
20314W        W37161  10.226  11.311   1.141 -0.1852  0.0490  0.3394
20315W        W37162   7.394  14.901   0.546 -0.0972  0.0740 -0.1241
20316W        W37163   7.675   7.891   4.502 -0.0425  0.0592 -0.1498
20317W        W37164   7.058   4.715  12.582 -0.0935  0.2772 -0.1667
20318W        W37165  15.439   2.202  14.473 -0.1225 -0.2991 -0.1837
20319W        W37166   9.101  16.123   4.163 -0.0889  0.0012  0.0015
20320W        W37167  12.547  17.982   0.759  0.0506 -0.0356 -0.0315
20321W        W37168  10.222   5.040  15.386 -0.2187 -0.0293  0.0770
20322W        W37169  14.877  12.132   1.107  0.0519 -0.1933  0.0806
20323W        W37170   7.482   2.714   4.850 -0.0762  0.0586 -0.2015
20324W        W37171  17.259  10.452   2.154 -0.0379 -0.0011 -0.2509
20325W        W37172   4.240  10.292   0.320  0.0855  0.0132 -0.1872
20326W        W37173   7.696  17.339  13.640  0.2372  0.0061  0.1546
20327W        W37174   8.252   6.609   4.595 -0.2567 -0.1113 -0.0143
20328W        W37175   8.664   1.890   0.768  0.0025  0.0287 -0.0048
20329W        W37176   5.246  12.393  16.461 -0.3691 -0.4998 -0.1291
20330W        W37177  11.776   1.684  14.257  0.1939 -0.0467  0.2438
20331W        W37178  15.307  13.477   1.143  0.1359  0.3671 -0.1171
20332W        W37179   0.111  11.605  16.599  0.0702  0.1901  0.1096
20333W        W37180   7.690   1.157  14.673 -0.1366  0.3433  0.0859
20334W        W37181   9.492   0.540   1.053  0.0154  0.0544 -0.1458
20335W        W37182   1.637   6.645   1.275  0.3764  0.0989  0.1555
20336W        W37183   4.571   8.843  16.156  0.1759 -0.1049 -0.1351
20337W        W37184   9.736   3.564  11.539 -0.2313 -0.1552 -0.0546
20338W        W37185  15.011   8.256  16.298  0.2032  0.0549 -0.0322
20339W        W37186  15.582   9.039  16.413  0.0699 -0.4064  0.0425
20340W        W37187  18.035   8.049   0.401  0.1304  0.0423 -0.0037
20341W        W37188  13.736   1.203   4.091  0.0399  0.1446 -0.2348
20342W        W37189   1.811  17.899  13.292 -0.3229 -0.1163 -0.0640
20343W        W37190  12.533  14.628  14.926 -0.0964 -0.1065 -0.0483
20344W        W37191   3.669   3.986  15.407 -0.2954 -0.1929 -0.0070
20345W        W37192  13.221   4.413  11.381 -0.2314 -0.4148  0.2159
20346W        W37193  13.842  13.231   4.383 -0.2251  0.2049  0.0762
20347W        W37194   0.186  17.328   2.279  0.0903 -0.0749  0.0342
20348W        W37195   8.378   3.489   2.797  0.2333 -0.0428  0.1650
20349W        W37196  10.913   8.225  16.602 -0.2869  0.2941 -0.3075
20350W        W37197  13.703   6.205   0.389  0.0211  0.0493  0.2932
20351W        W37198   0.985  14.861  15.080 -0.2995  0.0994  0.1396
20352W        W37199  10.445  11.570   1.599  0.1397  0.1517 -0.1458
20353W        W37200  14.420   9.746   5.531  0.1738  0.0206 -0.0713
20354W        W37201  17.656  16.364   0.356 -0.0375 -0.2581 -0.0285
20355W        W37202   8.613   5.258   4.716  0.1355 -0.1794  0.2675
20356W        W37203   2.908   0.497   1.965  0.4377 -0.2196  0.0124
20357W        W37204  13.541   0.536  16.444 -0.0793  0.0277  0.0649
20358W        W37205   1.617   7.644   0.471 -0.1125  0.0440  0.1727
20359W        W37206  13.193  15.668   4.529  0.1703 -0.3057  0.1369
20360W        W37207  10.608  12.697   2.553 -0.0978  0.1012 -0.2290
20361W        W37208  11.359   8.238   4.188  0.1150  0.1403  0.1069
20362W        W37209   7.326   3.634  13.759 -0.0799 -0.1193  0.0951
20363W        W37210  12.658   9.678   3.788 -0.1012 -0.1964 -0.1508
20364W        W37211   9.418  12.054   4.775 -0.0225 -0.1255 -0.0622
20365W        W37212  12.960   2.849  14.221 -0.5032  0.0395  0.0625
20366W        W37213   5.722   9.295  14.356  0.1214  0.3079  0.1545
20367W        W37214   7.505  11.126  15.735  0.1724  0.0846  0.2208
20368W        W37215  14.605   8.476   3.431 -0.1829  0.1258 -0.1061
20369W        W37216  13.750  15.960  12.591 -0.0282  0.0886  0.2050
20370W        W37217   8.217   9.984   3.196 -0.1467  0.1141 -0.1742
20371W        W37218   3.661  11.735   3.488 -0.0539  0.2668 -0.1178
20372W        W37219  11.805  16.453  11.671 -0.2023 -0.1146  0.1306
20373W        W37220  12.955  16.928  16.069  0.1722  0.1662 -0.3467
20374W        W37221  12.290   3.784  13.442  0.0765  0.0558  0.3616
20375W        W37222  12.156   5.862  15.562  0.4693 -0.1110 -0.0308
20376W        W37223   8.755   0.260   5.463 -0.0257  0.1882 -0.2876
20377W        W37224   6.957   0.520   1.630 -0.0234 -0.3006  0.3789
20378W        W37225   9.825   9.372  12.077 -0.0995 -0.1525  0.3532
20379W        W37226  15.697  18.134   0.359 -0.1200 -0.1393 -0.0784
20380W        W37227   8.523   1.021   4.814  0.1069 -0.2950 -0.1854
20381W        W37228   9.567   1.725  12.662 -0.2711  0.1045 -0.0563
20382W        W37229   8.174  17.715   2.584 -0.1498  0.2451  0.1971
20383W        W37230  15.243   3.550  16.388 -0.1433 -0.4432  0.0998
20384W        W37231   9.263  10.429  12.293  0.0821  0.0585  0.0711
20385W        W37232   5.372   4.621   0.240 -0.2538 -0.0224  0.1630
20386W        W37233  17.459  16.431   0.891  0.2016 -0.0264 -0.0312
20387W        W37234  10.472  13.871  11.769  0.3495 -0.0817 -0.3677
20388W        W37235   8.419  16.686   1.901  0.1103 -0.2113 -0.2143
20389W        W37236  15.316  17.830  13.973  0.2400 -0.2659  0.1360
20390W        W37237   9.725  15.201  12.001 -0.0495 -0.0075 -0.1552
20391W        W37238   5.016   6.302   3.212  0.0064  0.0515 -0.2030
20392W        W37239  13.830  13.357  16.181  0.2346  0.1630 -0.0626
20393W        W37240  10.724   5.237  15.323 -0.3288 -0.2155 -0.0469
20394W        W37241  14.755   8.613   2.433 -0.0493  0.1881  0.0770
20395W        W37242  15.043   1.591  11.057  0.3483  0.1951  0.0297
20396W        W37243   9.644   6.260   4.054 -0.2373  0.3078 -0.0942
20397W        W37244  14.158  15.938   1.337 -0.0729 -0.1592 -0.0129
20398W        W37245   4.371   2.586   3.133  0.2164 -0.4091  0.0302
20399W        W37246  14.880   6.683   1.048 -0.0777  0.0834 -0.5206
20400W        W37247   8.771   1.966   3.911  0.3204  0.1460 -0.0140
20401W        W37248  13.089  13.502  15.617 -0.0714  0.0640 -0.1568
20402W        W37249   2.954   1.136   4.533  0.1900  0.0762  0.1066
20403W        W37250   2.825   7.632  12.995  0.2515 -0.0217  0.0162
20404W        W37251  15.016   6.111  15.908  0.0900  0.0458 -0.1146
20405W        W37252   8.767   1.882  11.762 -0.0433  0.3188  0.1923
20406W        W37253   9.764  14.100   1.929  0.1101  0.0690  0.0676
20407W        W37254   3.161  12.010   4.482  0.0626  0.0634  0.3574
20408W        W37255   8.642   0.902  13.326 -0.2491 -0.2480 -0.2694
20409W        W37256  13.389   0.641  12.512 -0.0854  0.0073 -0.1157
20410W        W37257  10.190   7.655  16.048 -0.0278 -0.2627  0.2659
20411W        W37258  13.997  11.278  12.423 -0.3665 -0.0112 -0.1312
20412W        W37259  11.478  17.235   4.020 -0.1119 -0.0945  0.1207
20413W        W37260  10.261   2.589   3.947 -0.0244  0.1764  0.0571
20414W        W37261   2.831   0.547   2.813  0.2974 -0.1413  0.0267
20415W        W37262   0.073  12.700  13.682 -0.0191  0.0338 -0.3138
20416W        W37263   5.903  15.953  12.490  0.1850  0.3148 -0.0970
20417W        W37264  14.442   3.313  15.788  0.1349 -0.2485 -0.0107
20418W        W37265  13.118   7.321   0.842  0.1447 -0.0400  0.2170
20419W        W37266   8.731  13.473  13.388 -0.0920 -0.1090  0.1786
20420W        W37267   9.423  16.237   5.437  0.0955  0.0445 -0.1181
20421W        W37268   0.959  12.456   2.828 -0.3285 -0.2727 -0.3618
20422W        W37269   5.483  13.997   3.662 -0.1618  0.1837 -0.3117
20423W        W37270   0.821   7.175  12.998 -0.2146  0.1541 -0.1011
20424W        W37271   9.016   4.510   0.141  0.1132 -0.1689  0.1365
20425W        W37272   0.905  17.253   1.326 -0.2212  0.2489 -0.0192
20426W        W37273   7.769  14.351  15.612  0.0747 -0.1391  0.0016
20427W        W37274  15.231   5.370  10.776  0.0992 -0.2508 -0.0704
20428W        W37275  12.670   6.159  16.054  0.2203  0.3405  0.0420
20429W        W37276   3.280   5.089  15.981 -0.0957 -0.3078  0.0499
20430W        W37277  15.642  15.103  13.123  0.4856  0.1543 -0.1580
20431W        W37278   2.793  15.117  15.294  0.2375  0.2061 -0.0063
20432W        W37279  11.041   3.768  12.265 -0.1688 -0.0122 -0.2936
20433W        W37280  11.148  16.269   3.168 -0.0069  0.0465  0.0526
20434W        W37281  12.921  11.501  14.256 -0.0533  0.2103  0.0691
20435W        W37282  14.619   0.731  12.832  0.0333 -0.0034 -0.1203
20436W        W37283   8.079   5.425  16.376 -0.3311  0.0791 -0.0362
20437W        W37284  13.597   0.144  15.124 -0.0722 -0.0837 -0.0305
20438W        W37285   9.781  16.558  14.967 -0.0698  0.1125  0.3450
20439W        W37286   2.301  11.597   3.180 -0.0815  0.3028 -0.4500
20440W        W37287  17.413   3.963   5.018 -0.0081 -0.2147 -0.0754
20441W        W37288   0.508   7.541  14.482  0.0851 -0.4079 -0.1029
20442W        W37289  13.456   9.577   2.842 -0.1672 -0.2187  0.2929
20443W        W37290  10.486   5.224  15.765  0.1944 -0.0370 -0.1265
20444W        W37291  12.001   9.945  13.015 -0.2071 -0.1462  0.0478
20445W        W37292  16.063   2.324   1.436 -0.2614 -0.0050  0.1022
20446W        W37293  17.085  11.423   4.567  0.1610 -0.0292  0.1007
20447W        W37294   0.638   4.177   0.630  0.1331  0.0489  0.1454
20448W        W37295   4.324  13.094   5.234  0.1060 -0.0293 -0.1754
20449W        W37296   2.905   1.802  15.866 -0.1921  0.2724  0.0030
20450W        W37297   8.860  15.275  15.133  0.1506 -0.1328 -0.0924
20451W        W37298  10.924   5.062   2.897  0.0787  0.1012  0.2185
20452W        W37299   4.231   3.595  13.687  0.1844 -0.1336 -0.1079
20453W        W37300   1.021   7.568   1.086 -0.3263 -0.0597 -0.1445
20454W        W37301   2.819   2.832  11.453 -0.3089  0.0095  0.2115
20455W        W37302   8.834  13.199   2.247 -0.2466  0.0294 -0.0036
20456W        W37303   7.103  17.848  10.779 -0.1740  0.1377  0.1476
20457W        W37304  12.632  11.203   3.905  0.0693  0.1632  0.0558
20458W        W37305  16.579   5.350   0.571 -0.1467 -0.0530  0.0932
20459W        W37306   2.899  14.192  14.519  0.1153 -0.0182 -0.0316
20460W        W37307  15.319   0.097  13.623 -0.0067  0.0978 -0.0839
20461W        W37308   9.432  16.398  14.566 -0.0926  0.0702 -0.2564
20462W        W37309  18.022   2.755  11.649  0.1610 -0.0265  0.4774
20463W        W37310   5.135   8.076  12.319  0.2487 -0.0141 -0.0970
20464W        W37311   6.428   8.921  13.326 -0.0380 -0.0695 -0.1982
20465W        W37312   3.091  11.059  15.926 -0.3246  0.1758 -0.0960
20466W        W37313   8.398   4.905   4.388  0.3188 -0.0576  0.1619
20467W        W37314   8.346  15.429  12.544  0.1721 -0.2022  0.0755
20468W        W37315   9.471  17.749  13.885  0.2993  0.0945 -0.0366
20469W        W37316  16.473   6.891   2.414 -0.0824  0.2745  0.1312
20470W        W37317  12.068   6.591  14.453 -0.0913  0.1728  0.2039
20471W        W37318  10.154   4.122   4.843  0.2405  0.1263 -0.0201
20472W        W37319   0.373   5.009  12.361  0.0053  0.1327  0.2915
20473W        W37320   9.889  13.365   5.552 -0.0660 -0.1195  0.2531
20474W        W37321  11.137   5.486  13.618 -0.0351 -0.2173 -0.0733
20475W        W37322   3.564   7.699   3.578 -0.2103 -0.2711 -0.0377
20476W        W37323  16.195  17.586  14.543  0.0594  0.0681  0.1319
20477W        W37324  11.649   1.020  12.989  0.1858  0.0061 -0.0616
20478W        W37325   6.567   1.224  14.487  0.1092 -0.1970 -0.0328
20479W        W37326   6.116   4.863   0.343 -0.1431  0.2218  0.2466
20480W        W37327   4.913  14.756  16.059 -0.0389  0.5877  0.1111
20481W        W37328  15.896   0.162  14.505 -0.0511  0.0821  0.1158
20482W        W37329   8.534   6.459   2.859 -0.0150 -0.0726  0.1239
20483W        W37330   0.474  16.554   5.191  0.0785 -0.4022 -0.2099
20484W        W37331  14.737  10.380   2.304  0.1456  0.3868 -0.0409
20485W        W37332   4.001   8.367  13.957  0.0654  0.1690  0.1290
20486W        W37333   0.687   9.024   0.293 -0.1454  0.1379  0.1612
20487W        W37334   6.131   3.489   2.644  0.0837 -0.1960  0.1139
20488W        W37335   0.577   1.282   2.686  0.4574 -0.1442  0.1403
20489W        W37336  14.998  14.806   0.642 -0.1545  0.3583 -0.3162
20490W        W37337   4.872   3.999  16.452  0.1851  0.1153  0.0223
20491W        W37338   4.374  15.490  12.776  0.0819  0.1952  0.0011
20492W        W37339   5.785   1.065   4.696 -0.0454  0.1554 -0.0190
20493W        W37340  10.064  15.199  11.507 -0.2806 -0.0239  0.0976
20494W        W37341  15.104   5.188   4.203  0.4448 -0.0919  0.0750
20495W        W37342  13.798   6.028  15.792  0.2700 -0.0745 -0.1031
20496W        W37343   5.973   8.131   2.686 -0.0399 -0.2666 -0.1392
20497W        W37344   6.881   1.486   2.733  0.0688 -0.0873 -0.0450
20498W        W37345   0.153  17.353  12.509 -0.0574  0.0664  0.1578
20499W        W37346  16.348   4.722   4.342 -0.0333  0.2168  0.1246
20500W        W37347   1.781   2.821   2.838 -0.0053 -0.2533 -0.2092
20501W        W37348  11.551  10.244   0.230  0.0833 -0.1426  0.1490
20502W        W37349  14.744  11.454  12.953 -0.0403  0.1907  0.1307
20503W        W37350   8.577  13.994   3.185 -0.0872 -0.3235  0.0724
20504W        W37351   6.565   5.996   4.401 -0.2821 -0.0556 -0.2995
20505W        W37352   5.852  13.329   0.037  0.1864 -0.0690 -0.1223
20506W        W37353   0.067  12.703  12.025  0.2572  0.0798 -0.1625
20507W        W37354   0.907   1.612  13.951  0.0370 -0.0757 -0.1174
20508W        W37355   3.941   2.379   0.517  0.0004  0.1100  0.4138
20509W        W37356  15.811   5.239   2.327 -0.0888 -0.2347 -0.2674
20510W        W37357  18.125   4.301  13.321 -0.1977 -0.0764 -0.1725
20511W        W37358   4.675   2.404  13.356  0.1745  0.1166 -0.2353
20512W        W37359  11.718  10.061   2.078  0.2422 -0.1758 -0.0314
20513W        W37360  16.772   8.629  14.992 -0.2055  0.0373 -0.0252
20514W        W37361   7.083  16.258  16.500 -0.2667 -0.3599 -0.0970
20515W        W37362   8.026  17.414   3.415 -0.1811  0.2057 -0.0739
20516W        W37363   0.936   4.794   2.047 -0.0120  0.2295 -0.0785
20517W        W37364   5.216   3.055   4.369 -0.2754  0.0960  0.0918
20518W        W37365  12.813  17.546   2.006  0.0806  0.0470  0.1718
20519W        W37366   6.209   4.408  11.765 -0.3332 -0.0670  0.0453
20520W        W37367   7.221   3.906   4.740 -0.0292  0.0839  0.1624
20521W        W37368  12.546   9.820  11.701 -0.0246  0.0004  0.1453
20522W        W37369   1.457  14.615  12.439 -0.2825  0.1677  0.0434
20523W        W37370   8.928   5.109   2.680 -0.1169  0.1769 -0.0323
20524W        W37371  13.903   2.182  13.015  0.1177  0.5235 -0.1596
20525W        W37372   6.650  13.775   3.832 -0.1882  0.1480  0.1696
20526W        W37373  11.925   2.876   0.869 -0.1161  0.3237 -0.1255
20527W        W37374   6.503  11.469   2.232 -0.0252  0.1494  0.2771
20528W        W37375  16.905   4.859  12.704 -0.0953  0.1496 -0.2703
20529W        W37376  17.238   4.772  16.475 -0.0490  0.1734  0.0600
20530W        W37377  16.117  17.172   1.832  0.2626  0.1486 -0.0069
20531W        W37378  10.077   6.268  11.483 -0.0287 -0.1085  0.0366
20532W        W37379   7.156   9.907   3.729  0.3518  0.0652  0.0829
20533W        W37380  17.311   2.834  14.660 -0.3342  0.0674 -0.0832
20534W        W37381   7.223   4.110   0.872  0.2910  0.1648 -0.1332
20535W        W37382  16.590   5.116   2.905  0.2214  0.0096  0.3236
20536W        W37383  15.536  13.386  14.213  0.0295  0.0769 -0.1200
20537W        W37384  15.813   9.933  12.215  0.0422 -0.0309 -0.1975
20538W        W37385   4.177   7.000  15.633  0.2045  0.3117  0.1646
20539W        W37386   9.681  11.652  14.926  0.0368 -0.5303  0.0678
20540W        W37387  14.515  13.917   0.756  0.0516 -0.0658  0.3430
20541W        W37388  15.931   8.683  16.177 -0.0049 -0.1919  0.0649
20542W        W37389  12.525  15.643   1.355  0.1559 -0.0132 -0.1031
20543W        W37390  15.450   4.676   0.488  0.0090 -0.0283 -0.1706
20544W        W37391   4.456   1.322   3.095  0.2491  0.1442  0.3378
20545W        W37392   6.808   3.467  11.781 -0.3886 -0.2502 -0.2075
20546W        W37393   7.771  14.136   1.464 -0.2238 -0.2377  0.0546
20547W        W37394  13.141   2.165   2.323 -0.1122  0.0311 -0.4106
20548W        W37395  17.314  18.160   4.471 -0.2216 -0.1337  0.0621
20549W        W37396   0.025   9.266  13.401  0.2183  0.0461  0.3231
20550W        W37397  17.544  12.358  12.110 -0.1217 -0.0071  0.2236
20551W        W37398  16.929   9.107  15.604  0.0616  0.1937 -0.3267
20552W        W37399  11.892   9.002   3.014 -0.0822 -0.1259 -0.0998
20553W        W37400   7.051   4.566   2.228 -0.2348  0.2460  0.5329
20554W        W37401  16.976   8.159  13.511  0.0696  0.0568 -0.4228
20555W        W37402  10.074  14.605   0.072 -0.7146 -0.1048  0.0537
20556W        W37403   9.332   6.377   0.733 -0.0825 -0.1146  0.1107
20557W        W37404  12.764  10.163   3.577 -0.0913  0.1342 -0.0451
20558W        W37405   1.380  15.596  15.563 -0.3111 -0.2109 -0.1990
20559W        W37406   4.054   3.831   2.915 -0.0642 -0.0085 -0.1380
20560W        W37407   6.889   7.797   3.222  0.0453  0.1314 -0.1423
20561W        W37408   8.004   9.511   0.822  0.1817 -0.2103 -0.0805
20562W        W37409   6.936   2.388  12.724 -0.0349  0.0118  0.4763
20563W        W37410  12.013  18.033  14.249 -0.2016 -0.1329 -0.0758
20564W        W37411  16.669  14.155   2.302  0.0492 -0.2337  0.1149
20565W        W37412   6.612  16.424   4.623  0.0103 -0.0852  0.0882
20566W        W37413  16.822   1.771  11.725  0.2156 -0.4527 -0.1778
20567W        W37414  11.010  10.569   2.582 -0.1117 -0.1251  0.2355
20568W        W37415  17.528  18.006  11.754 -0.1506  0.0227 -0.2891
20569W        W37416   6.173   5.388   4.685 -0.1931 -0.0468 -0.2886
20570W        W37417   4.601  16.678   6.022 -0.2098  0.3021 -0.0123
20571W        W37418  15.158  17.965  16.082  0.2170  0.1979 -0.0353
20572W        W37419   7.667  15.398   0.491 -0.1357  0.0702 -0.2677
20573W        W37420  11.398  14.268   4.651 -0.0432 -0.1795 -0.1507
20574W        W37421  10.916   6.055  10.784 -0.0515 -0.1086 -0.0219
20575W        W37422   9.175   8.265  16.556  0.3313 -0.0842  0.2167
20576W        W37423  13.358   0.129  12.823  0.3770  0.0416  0.1995
20577W        W37424   0.212  13.117  13.482 -0.0156  0.1059 -0.1195
20578W        W37425  11.745   3.680  13.463 -0.1090  0.0773  0.0131
20579W        W37426   6.104   9.031  11.865 -0.0565  0.0063 -0.0028
20580W        W37427  17.450   0.423  15.260  0.0801  0.1753  0.1480
20581W        W37428  13.279   2.529  13.708 -0.1253  0.2104 -0.0054
20582W        W37429   7.871   8.952   2.516  0.0991 -0.2423 -0.2930
20583W        W37430  11.437   3.601  13.062  0.0255 -0.3950  0.0035
20584W        W37431   5.558  17.465   2.557 -0.0209  0.0490 -0.2635
20585W        W37432  14.528  10.888   3.012 -0.1336 -0.0829 -0.1923
20586W        W37433  11.323  15.482   4.651  0.0301 -0.0539 -0.2839
20587W        W37434   2.446   4.081   5.396 -0.0922  0.1846  0.1390
20588W        W37435  17.876  15.291   2.671  0.3519  0.1323  0.1567
20589W        W37436  14.291  13.691  14.871 -0.4370  0.0876  0.5044
20590W        W37437   3.981  12.708  15.222 -0.0890 -0.1803  0.1574
20591W        W37438   4.276   2.432   0.868 -0.0869 -0.0121  0.2084
20592W        W37439   6.185  15.347   6.172  0.0216 -0.2811 -0.3843
20593W        W37440   2.843   8.373  14.154 -0.0534 -0.2581  0.4577
20594W        W37441   9.121   5.018  15.285 -0.2515 -0.1329  0.1706
20595W        W37442  12.282  15.087  16.133  0.2033 -0.1825 -0.0194
20596W        W37443  11.221  15.104  11.580 -0.3142  0.0514  0.0943
20597W        W37444  11.308  11.615  11.927  0.1694  0.1430  0.1324
20598W        W37445  13.942  14.835  15.065 -0.2245 -0.0777  0.2756
20599W        W37446  15.816  12.233   2.622 -0.1937 -0.1750 -0.2808
20600W        W37447  13.173  10.300   0.694 -0.1752 -0.2070 -0.0564
20601W        W37448  15.178  14.473   5.845  0.0068 -0.1118  0.0296
20602W        W37449   8.862  12.929   0.683 -0.0244 -0.0308  0.1571
20603W        W37450   0.654   4.990  11.351 -0.0449  0.1913  0.0810
20604W        W37451  13.523  13.799  15.787  0.1825  0.0899  0.1285
20605W        W37452   0.249  10.387  14.618  0.0494  0.0412  0.2445
20606W        W37453   1.437   7.810   4.473  0.3117  0.0488 -0.1379
20607W        W37454   8.056   3.347   0.515 -0.2591 -0.1816  0.1141
20608W        W37455   4.175   3.955   3.410 -0.1754  0.0999  0.0472
20609W        W37456   2.064   2.678   1.212  0.1302  0.0136 -0.1171
20610W        W37457   6.012   5.779  16.081 -0.0636  0.2673 -0.1634
20611W        W37458  16.547  12.874   0.619  0.2146 -0.0405  0.1337
20612W        W37459   2.756  13.747   3.603 -0.3976 -0.2739 -0.0962
20613W        W37460  14.343   8.901  12.517  0.3253  0.2185  0.1083
20614W        W37461   9.152  10.171   2.039  0.2551 -0.3180  0.1380
20615W        W37462  16.133   8.258  12.828  0.4358  0.1365 -0.0230
20616W        W37463   8.234   6.825   3.640 -0.0445  0.3832 -0.1084
20617W        W37464  17.671  13.554  12.354  0.3070  0.0845  0.0750
20618W        W37465  12.991   3.545   0.571 -0.0601 -0.1198 -0.0112
20619W        W37466  11.147  12.382  16.142 -0.2046 -0.0171  0.0490
20620W        W37467   0.630  13.874   4.685  0.0950 -0.0753 -0.1443
20621W        W37468   1.076  12.507   2.260  0.3566  0.3026  0.0626
20622W        W37469  10.122  11.182  14.312 -0.0122  0.0238  0.2219
20623W        W37470   9.795   5.594  12.539  0.1248  0.2026 -0.2019
20624W        W37471  14.139   3.423  16.220 -0.0739 -0.0219  0.2741
20625W        W37472   5.923  15.092   3.039 -0.1141 -0.1089 -0.0768
20626W        W37473  15.373  11.668  14.457  0.1073  0.1887  0.1340
20627W        W37474   9.504   4.481   5.393  0.0486 -0.1474 -0.2230
20628W        W37475   4.947  13.891   2.413 -0.1432  0.0854 -0.1268
20629W        W37476   7.637   8.953  16.235  0.2838  0.2380 -0.1187
20630W        W37477   9.789   7.587   0.320 -0.1338  0.1200  0.2183
20631W        W37478   6.586  12.085  15.750  0.0301  0.0594  0.3319
20632W        W37479  11.983  11.137  16.366  0.2172 -0.0214 -0.0742
20633W        W37480  12.381   9.917  13.413 -0.3716 -0.2090 -0.0902
20634W        W37481   1.191   7.084   2.794  0.3760 -0.3080 -0.1193
20635W        W37482   5.438   1.407   2.948 -0.0360  0.1160 -0.0147
20636W        W37483  12.782  15.148  11.876 -0.0921  0.1440  0.2701
20637W        W37484  10.839  15.190  14.342  0.0959  0.1047 -0.3451
20638W        W37485  11.915  10.782  15.317  0.1907  0.0907 -0.0077
20639W        W37486   4.081  10.744   0.305 -0.0582  0.1608  0.1213
20640W        W37487   9.288   6.855   2.454  0.0676 -0.0481 -0.0233
20641W        W37488  16.495   0.034  11.505  0.0804 -0.1845 -0.2444
20642W        W37489  16.018  14.263   2.530 -0.1756 -0.0983 -0.1234
20643W        W37490  16.999   9.120   2.356 -0.0568  0.2720  0.3087
20644W        W37491  16.395  16.238  14.338  0.0204 -0.1342  0.2150
20645W        W37492   2.352  10.566   1.684 -0.2034  0.2366  0.0621
20646W        W37493   8.061   0.765  13.018 -0.0312  0.1249 -0.0682
20647W        W37494  13.598  11.219  14.745  0.0307 -0.1224 -0.2980
20648W        W37495   8.435  10.936  13.076 -0.2438 -0.2748 -0.2189
20649W        W37496   6.109   2.075   2.941 -0.2604  0.0048 -0.3862
20650W        W37497  13.553  12.756  12.542  0.1531  0.1946  0.2042
20651W        W37498   5.931  14.711  16.318  0.3533  0.1424 -0.0404
20652W        W37499   8.862   6.522  12.964  0.5033  0.0196 -0.3563
20653W        W37500  17.584   4.742  14.594  0.0934  0.2400  0.5058
20654W        W37501   4.861  18.014   3.877 -0.1083 -0.0133  0.0376
20655W        W37502   9.521   3.262   1.562 -0.0805 -0.1244  0.0116
20656W        W37503   8.321   7.719   0.097 -0.0312 -0.2688 -0.0296
20657W        W37504  16.235   3.147  16.351 -0.2160  0.1512  0.2181
20658W        W37505  13.474  14.906   3.325 -0.1110  0.1395 -0.1888
20659W        W37506   1.184  16.948   3.840 -0.1612 -0.0654  0.0290
20660W        W37507  17.668   3.543  16.006 -0.4211 -0.0078  0.1457
20661W        W37508   1.647  11.831  16.519  0.1752 -0.1884  0.1606
20662W        W37509   8.365  10.619   4.971 -0.1549 -0.1571  0.2046
20663W        W37510   3.601   2.522  15.713 -0.1151 -0.0774  0.1007
20664W        W37511   1.751  14.047   1.816  0.0036 -0.2645  0.1228
20665W        W37512   0.838  16.693   0.602 -0.1018 -0.3522  0.1754
20666W        W37513  12.303   7.358  13.492 -0.0131  0.0783  0.3220
20667W        W37514  17.830   1.170  13.981  0.1006 -0.1585  0.2288
20668W        W37515  12.844   4.382   2.427 -0.0357 -0.0191 -0.0414
20669W        W37516  14.730   4.199  13.273  0.1829 -0.0298  0.1755
20670W        W37517  14.685  13.917  11.597 -0.0700 -0.0204  0.2353
20671W        W37518   5.459   0.744  13.527  0.0884 -0.2210 -0.0773
20672W        W37519  15.822  16.593   0.278  0.1966 -0.2558 -0.1603
20673W        W37520   9.970   9.471   1.629  0.0133  0.0404  0.1545
20674W        W37521   4.977   1.272   4.679 -0.2114  0.0290 -0.2099
20675W        W37522   8.144  16.724  11.348 -0.1184  0.0992  0.0787
20676W        W37523   1.576   1.302   1.333  0.2268  0.1040 -0.0100
20677W        W37524  12.029   6.322   2.219 -0.1712 -0.1546 -0.0423
20678W        W37525   5.524   4.114  13.411 -0.3537  0.1463  0.1467
20679W        W37526   2.188  16.770   4.015  0.1097  0.1918  0.3032
20680W        W37527  17.165   9.847   1.018  0.0096 -0.0290 -0.0429
20681W        W37528  14.980   2.547  11.997 -0.0340  0.0326  0.2985
20682W        W37529  10.509   8.497  16.581 -0.1458  0.0022  0.1055
20683W        W37530   7.362  14.592   0.991  0.0077 -0.0276  0.0291
20684W        W37531  14.350   6.914   0.344 -0.0811 -0.0480  0.0511
20685W        W37532   2.409   5.870  12.782  0.0290 -0.0540  0.2729
20686W        W37533  16.449  16.467  13.398 -0.0560  0.2278 -0.1818
20687W        W37534   6.559  11.485   4.724 -0.0029  0.2704 -0.1645
20688W        W37535  15.902   3.632  14.069  0.4394 -0.3174  0.1457
20689W        W37536   6.591  16.331  14.515  0.1812  0.1966 -0.2273
20690W        W37537   1.014   4.315   5.468 -0.1686 -0.1976  0.0290
20691W        W37538   9.434  12.391   2.407 -0.1512 -0.0246  0.0126
20692W        W37539   1.202  15.144   1.965 -0.0344 -0.0530 -0.1484
20693W        W37540  17.931  16.449  12.400  0.2116  0.0111 -0.1531
20694W        W37541   3.718  13.205   2.614 -0.1513  0.0257 -0.2761
20695W        W37542   8.989  15.345  13.162  0.0809 -0.0011 -0.1973
20696W        W37543   5.513  17.922  15.989 -0.1389  0.1365 -0.3923
20697W        W37544   5.949  15.661   5.847  0.0687 -0.0449  0.3054
20698W        W37545  15.647  13.068  12.930 -0.0759 -0.0367  0.0945
20699W        W37546  15.110   0.516   0.874  0.0454 -0.0468 -0.1374
20700W        W37547   8.713  12.245  15.313 -0.2967  0.1581  0.0022
20701W        W37548  10.619   3.090  14.614  0.1068  0.0710 -0.0068
20702W        W37549   5.146   5.604   1.985  0.1470 -0.1923 -0.0003
20703W        W37550   6.051  13.383  11.337  0.1307 -0.1833 -0.0515
20704W        W37551  16.682   9.032  13.119 -0.0977  0.1644  0.0238
20705W        W37552  13.917  13.939   2.138 -0.1122  0.4846 -0.2485
20706W        W37553  17.718   1.403   4.190  0.0622  0.0943  0.0061
20707W        W37554   0.232  16.314   4.799 -0.1489 -0.3723 -0.2009
20708W        W37555   6.793   7.141  13.262  0.1516 -0.0732 -0.3282
20709W        W37556  11.613   7.284   3.124 -0.1405  0.0372 -0.1165
20710W        W37557   9.000   4.577   1.849  0.1009 -0.0124 -0.0072
20711W        W37558  13.100   4.987   3.222  0.2061  0.0251  0.0095
20712W        W37559   7.018   7.231  14.358  0.0427 -0.5188 -0.1063
20713W        W37560   8.017   8.607   0.451 -0.0140 -0.0483 -0.1461
20714W        W37561   5.576  11.332  15.534 -0.3105  0.3389 -0.2138
20715W        W37562   8.894   2.053  14.080  0.0591 -0.0917  0.0501
20716W        W37563   8.824  14.198  14.884 -0.1718  0.1503 -0.1054
20717W        W37564   6.525   7.369   5.233 -0.2053 -0.0409 -0.3500
20718W        W37565   6.416  17.891  11.933 -0.0163 -0.1286  0.2968
20719W        W37566   0.776  16.343   0.149 -0.0760  0.2615 -0.0022
20720W        W37567  12.030   2.920   2.662 -0.4164  0.1804  0.2566
20721W        W37568   1.844   9.603   4.168 -0.0009 -0.0168  0.0300
20722W        W37569  16.251  17.558  15.429  0.1111 -0.2238 -0.0458
20723W        W37570  12.057  11.093   0.439 -0.0793  0.1665  0.0287
20724W        W37571  11.707   5.629   1.869 -0.3844 -0.3501 -0.0241
20725W        W37572   1.246  11.017   5.790  0.0820 -0.1893  0.1394
20726W        W37573   5.482   0.190  13.235 -0.0076  0.0283 -0.1982
20727W        W37574  10.745  14.111  13.011 -0.1976 -0.3479 -0.1601
20728W        W37575  15.791   7.912   3.257 -0.1676 -0.0455 -0.0835
20729W        W37576  16.673   0.706   1.112 -0.0432 -0.1785 -0.4995
20730W        W37577  16.417   3.037   0.222  0.2675 -0.1895  0.1759
20731W        W37578   4.439  16.753   4.717  0.1163  0.1610  0.2432
20732W        W37579  15.540   6.418  13.268 -0.0857 -0.0557  0.0717
20733W        W37580  14.838   8.936  15.209  0.0182 -0.3521  0.3241
20734W        W37581   0.560   6.482  14.465  0.0023  0.0453 -0.0999
20735W        W37582   9.763   7.248   3.536 -0.2227 -0.1863 -0.0901
20736W        W37583   9.121  16.967   0.079 -0.0072  0.0152 -0.2473
20737W        W37584  12.694   8.481  12.373 -0.1826 -0.2321  0.0212
20738W        W37585   4.195  14.455  16.598  0.2500 -0.0362 -0.1081
20739W        W37586  14.040  15.481  12.518 -0.2746 -0.5599 -0.1400
20740W        W37587  18.103   8.809  12.562  0.0990 -0.0887 -0.1723
20741W        W37588  15.988   3.998  15.812  0.1513 -0.2181 -0.0084
20742W        W37589  17.316  13.092   4.141  0.0658  0.0338  0.1312
20743W        W37590   3.345  16.950   3.376 -0.1272  0.1535  0.1491
20744W        W37591  11.556  14.778   4.117  0.3096  0.4003  0.1279
20745W        W37592   5.356   3.372   5.107  0.1839  0.0821  0.0676
20746W        W37593  15.159  12.894   6.409 -0.2365  0.0647 -0.3224
20747W        W37594  13.825  17.054  15.370  0.0147 -0.1345 -0.2894
20748W        W37595   8.334  11.661   0.089  0.2985 -0.0266  0.1692
20749W        W37596  10.360  17.742  13.900  0.2706  0.1173 -0.2275
20750W        W37597  10.902   2.590   0.984 -0.2287  0.4316  0.3635
20751W        W37598   2.603   0.114   3.484 -0.1256  0.2569  0.0097
20752W        W37599   2.148   3.007   2.426 -0.1400  0.0695 -0.1046
20753W        W37600  14.178  14.441  13.681 -0.0329  0.0015 -0.2077
20754W        W37601   9.732   8.841  11.918 -0.2408 -0.1092 -0.3157
20755W        W37602   5.517  13.863  14.606  0.3044  0.1360 -0.3829
20756W        W37603  18.068  14.091  15.908  0.0557  0.2989  0.1270
20757W        W37604   8.684   8.769   3.742  0.2707 -0.0186 -0.2545
20758W        W37605   7.151   3.506   4.468  0.1203  0.3369  0.1843
20759W        W37606   3.752   3.872  14.935  0.1118 -0.0049  0.3554
20760W        W37607   6.591   2.896  13.841  0.1120 -0.1402  0.1467
20761W        W37608  15.138   6.833   2.818  0.1903 -0.2442  0.1598
20762W        W37609   2.495  10.950   0.765 -0.0576 -0.0681 -0.2825
20763W        W37610   7.227   8.425   3.035  0.2341 -0.0963  0.0652
20764W        W37611   2.547   3.533  15.915  0.1772 -0.3927  0.0964
20765W        W37612  14.653   9.602  12.133  0.0973  0.2461  0.1329
20766W        W37613   8.996   3.225   0.342 -0.1238  0.0652 -0.4719
20767W        W37614   2.581   6.905   1.252 -0.0761 -0.1119  0.1530
20768W        W37615  15.345  14.515   3.254  0.0286 -0.0744 -0.1042
20769W        W37616  12.466  18.158   0.263  0.0112 -0.2163 -0.1608
20770W        W37617   5.949  12.792   5.582 -0.2258  0.0798 -0.0337
20771W        W37618   2.622   9.700  12.092  0.0458 -0.1143  0.1946
20772W        W37619   6.281   0.775   4.369  0.0263 -0.1180  0.4378
20773W        W37620   9.625  17.600   0.622 -0.0502 -0.2359 -0.1331
20774W        W37621   0.949  11.595  14.499  0.0775  0.1138 -0.3451
20775W        W37622   3.035   1.680  14.768 -0.3291 -0.1661 -0.1915
20776W        W37623   4.916   7.296   3.711  0.2076  0.0854 -0.3387
20777W        W37624  14.235   8.622   2.705 -0.1403  0.0131  0.0575
20778W        W37625   6.866  17.299   1.535  0.0155  0.1916 -0.0807
20779W        W37626   5.733   6.441  14.878 -0.0779  0.2045  0.1276
20780W        W37627   7.546  17.057   0.364  0.0210  0.1823  0.0091
20781W        W37628   2.122  10.436  16.542 -0.1275  0.1840 -0.0359
20782W        W37629   1.275   4.948   0.763  0.1283  0.2025  0.1022
20783W        W37630   5.113   7.243  13.331 -0.0592 -0.3305  0.0147
20784W        W37631  17.421  18.128  14.899  0.0286  0.0024  0.2491
20785W        W37632   0.233   1.038   5.339 -0.2654 -0.0389 -0.2706
20786W        W37633   3.899  14.694   3.533  0.1072  0.1163  0.0528
20787W        W37634   7.512   4.163   1.625  0.0191  0.2881  0.2532
20788W        W37635  10.501  14.872   0.277 -0.0200  0.3908  0.2869
20789W        W37636   3.951  15.326   3.151 -0.0995 -0.2694  0.1164
20790W        W37637  11.040   2.133  15.660 -0.2459  0.2344  0.2641
20791W        W37638   1.266  15.844   3.041 -0.3172  0.2675  0.0544
20792W        W37639  13.333  15.121   2.752 -0.0114 -0.0904  0.0389
20793W        W37640   2.851   6.883  12.202  0.1572  0.0830 -0.1776
20794W        W37641  14.557  16.283  11.564 -0.0938  0.2251 -0.0237
20795W        W37642   2.490   1.333  16.550  0.0913  0.1616  0.0156
20796W        W37643   5.226   3.808  12.561 -0.1304  0.2828  0.2569
20797W        W37644   8.121   2.923   4.574  0.1542  0.0007  0.0561
20798W        W37645  11.594  10.119   3.131 -0.1737 -0.3114  0.0745
20799W        W37646   7.982   2.445   0.356  0.0948 -0.1623 -0.0051
20800W        W37647  14.915  15.286   1.444 -0.1575  0.1480 -0.2025
20801W        W37648  11.348   7.238  16.003 -0.0665  0.1205 -0.0557
20802W        W37649   4.842  12.244  15.279 -0.0476  0.0685 -0.4403
20803W        W37650   3.824  14.618   1.517 -0.1829  0.0553  0.0549
20804W        W37651   1.304  15.504   5.463  0.0045  0.2923 -0.1990
20805W        W37652   2.595  13.285   3.423 -0.1793 -0.3018  0.1164
20806W        W37653  15.028  10.379  15.288  0.0959 -0.1626 -0.0233
20807W        W37654  10.278   4.962  13.791 -0.1808 -0.0279  0.0146
20808W        W37655   9.113  17.352  13.846  0.1709  0.0720  0.1308
20809W        W37656   8.086  16.854  12.281 -0.0684 -0.0226  0.1972
20810W        W37657   7.934   1.676  13.356 -0.0023  0.1713 -0.0152
20811W        W37658  17.860   5.929   4.521 -0.2533  0.0035 -0.0370
20812W        W37659  13.698   3.752   1.775 -0.1182 -0.3502  0.2718
20813W        W37660   4.966  16.684  12.377 -0.0366 -0.2471 -0.0683
20814W        W37661   1.331   5.697   5.753 -0.2043  0.3486 -0.2052
20815W        W37662   1.601  17.295  13.860  0.0020 -0.0474 -0.1082
20816W        W37663   8.554   0.535   4.906 -0.0719  0.0579 -0.1531
20817W        W37664  16.834  16.135   3.938  0.1409  0.0359 -0.0104
20818W        W37665   3.460   9.580  11.609  0.1909  0.0733  0.2637
20819W        W37666   2.949   1.566   1.801  0.0482  0.2840 -0.0236
20820W        W37667   9.013  15.319   0.524  0.2117  0.0618 -0.2155
20821W        W37668  10.289  10.004   4.280 -0.2790 -0.0203  0.1908
20822W        W37669   8.660  17.951   0.794  0.2055 -0.1651  0.1778
20823W        W37670  12.138  17.934   1.545  0.0987  0.1020  0.1121
20824W        W37671  12.549   1.761  12.818 -0.0914 -0.0306 -0.0897
20825W        W37672   8.540   6.778   2.322 -0.0125  0.2399  0.1706
20826W        W37673  14.588   9.684  14.850  0.2142  0.0081 -0.0420
20827W        W37674   7.008   8.847   5.481 -0.0955  0.4840 -0.0430
20828W        W37675  10.211  15.822  14.779 -0.3360 -0.1464  0.1146
20829W        W37676   1.122  13.173  16.123  0.1211 -0.0143 -0.0292
20830W        W37677   4.731  10.825  15.528 -0.2211 -0.0684 -0.0635
20831W        W37678  11.224   2.290  12.800 -0.1945 -0.3174 -0.0995
20832W        W37679   6.330  16.199  12.731  0.1607 -0.0885  0.2436
20833W        W37680   0.393  15.672   2.627 -0.0540 -0.1507 -0.0593
20834W        W37681  15.187   6.357  11.174  0.2704  0.1757  0.2265
20835W        W37682   4.960   7.651  13.148  0.1290  0.2033  0.1866
20836W        W37683   3.638   3.714  13.049 -0.5022  0.2164  0.0034
20837W        W37684  11.978  14.867   3.071 -0.0844 -0.1549 -0.4576
20838W        W37685   4.197  14.968  13.691  0.2482  0.2611  0.0208
20839W        W37686   3.644  12.238  16.456 -0.2173  0.0511  0.0272
20840W        W37687  14.042  10.866   0.659 -0.4060 -0.0494  0.1812
20841W        W37688   8.310  12.483   4.636  0.1176  0.0994  0.0901
20842W        W37689  13.585  14.409  13.365 -0.0428 -0.0341  0.2894
20843W        W37690  16.736  14.544  16.527 -0.4424  0.2171  0.0325
20844W        W37691  13.919   9.480   4.721  0.0561 -0.2324 -0.0933
20845W        W37692   2.426   7.141   5.233  0.2893 -0.1056  0.0547
20846W        W37693   3.555   0.323   5.828  0.1234  0.0168  0.0956
20847W        W37694   4.216  15.764  13.850  0.2492 -0.1857  0.2242
20848W        W37695   6.843  12.358  14.206 -0.0750  0.0846 -0.1280
20849W        W37696   8.517  15.819   2.592  0.0092 -0.3403 -0.4170
20850W        W37697   4.301   2.805   1.289  0.3328 -0.2737  0.1400
20851W        W37698   4.346  13.849   1.207  0.0066  0.3072 -0.0711
20852W        W37699  15.890   2.184  14.643 -0.1185  0.0883 -0.0250
20853W        W37700  13.765  12.689  14.047  0.1166 -0.0816 -0.3740
20854W        W37701   7.269   8.626  16.416 -0.0407  0.3275  0.4279
20855W        W37702   3.198   4.370   3.155  0.0609 -0.2637  0.1340
20856W        W37703   1.884   0.956   2.958 -0.1047  0.1752 -0.1025
20857W        W37704   9.535   8.119   1.239  0.0310 -0.3278  0.2396
20858W        W37705   8.458   1.323  13.710 -0.2060  0.1455  0.0637
20859W        W37706  14.715  18.060   5.395 -0.2270 -0.2143 -0.6117
20860W        W37707   2.557  14.469   4.204 -0.0438 -0.0973  0.1200
20861W        W37708   5.861  16.119   5.944  0.0264  0.0197 -0.2613
20862W        W37709  15.965  10.317   2.936 -0.0777  0.2172 -0.1942
20863W        W37710  13.695  17.726  14.261  0.2805 -0.0447 -0.2525
20864W        W37711  15.559   5.505  11.572 -0.1203  0.0067 -0.0225
20865W        W37712  11.984  11.651  12.669 -0.1927 -0.2112  0.1167
20866W        W37713   3.010   6.317   1.680  0.1776  0.0854  0.0005
20867W        W37714  10.998  15.453   3.829  0.2452 -0.1394 -0.0194
20868W        W37715  14.201  14.710   2.761  0.0813 -0.3219  0.1913
20869W        W37716   8.466   6.206   2.207  0.2180  0.1808  0.0517
20870W        W37717  15.318   1.934  11.350  0.2306 -0.0590 -0.1475
20871W        W37718   1.989  12.693   0.251  0.1674  0.1130 -0.1942
20872W        W37719   1.563   7.580   3.965  0.3057  0.0830 -0.1352
20873W        W37720   0.097  14.023  14.422  0.1460 -0.0223  0.4101
20874W        W37721  16.287  11.242  13.450  0.1714  0.0711 -0.0308
20875W        W37722  17.982   5.618   1.900  0.0088 -0.3724  0.1597
20876W        W37723   1.554   2.082  11.755 -0.0209 -0.0606 -0.0413
20877W        W37724   4.567   7.751  12.880  0.0777  0.0299  0.2067
20878W        W37725  12.061   0.361   4.856  0.0664  0.1210 -0.0107
20879W        W37726   4.727  12.631   5.863  0.0023  0.2235  0.1860
20880W        W37727  12.464  13.511   1.531 -0.0731 -0.1168  0.1267
20881W        W37728  13.107   6.377   4.229  0.0379  0.1549  0.0920
20882W        W37729  17.058   4.241  11.694 -0.6424  0.0837  0.2206
20883W        W37730  15.202  12.786   0.518 -0.0350  0.1608 -0.0440
20884W        W37731  13.885   9.947   3.304  0.0519  0.1338 -0.0932
20885W        W37732   9.039   3.114  11.817  0.0280  0.1178  0.0452
20886W        W37733  16.157  15.307  14.090 -0.1588  0.1579  0.1985
20887W        W37734   3.025   1.788  15.373 -0.1037 -0.0734 -0.0427
20888W        W37735  10.005  14.042  14.394  0.1018  0.1237 -0.0499
20889W        W37736  15.930   7.084  12.766 -0.1366  0.2587 -0.1044
20890W        W37737  12.985  11.718   2.133  0.3113 -0.2113  0.0426
20891W        W37738  17.475   0.103  16.258  0.1367 -0.3252  0.1223
20892W        W37739  11.892  12.130   0.092  0.0106 -0.3257 -0.2915
20893W        W37740   1.842   0.907  12.447  0.2299 -0.1328 -0.2204
20894W        W37741  15.015   8.470  15.137 -0.1354 -0.0441 -0.3181
20895W        W37742   0.681  15.278   2.278 -0.2949 -0.1055  0.2913
20896W        W37743  14.367   9.115  12.965 -0.4745  0.0534 -0.0939
20897W        W37744   2.374   1.937  13.155  0.0765 -0.2258  0.0541
20898W        W37745   6.395  16.942   4.300  0.4947  0.2143 -0.2175
20899W        W37746  16.886   4.329   1.722  0.2099 -0.2503 -0.1289
20900W        W37747  15.572  14.599   2.521 -0.3253 -0.0976 -0.5194
20901W        W37748   8.458   7.215   4.760  0.0587 -0.1866 -0.6444
20902W        W37749  13.880  17.140  14.407  0.0602 -0.2400 -0.0513
20903W        W37750   1.082   4.687  12.231 -0.0007 -0.1532  0.3194
20904W        W37751   1.505  14.191   4.023  0.3955  0.2136  0.1026
20905W        W37752   1.510   2.463   4.388 -0.0330  0.2091  0.1253
20906W        W37753   5.940  11.941  14.867 -0.1089 -0.0528 -0.0092
20907W        W37754  17.561   2.673   5.729 -0.0342  0.3942 -0.3029
20908W        W37755   6.235  10.801   2.998 -0.3019 -0.2039  0.3273
20909W        W37756   0.717   3.242  12.963  0.1618 -0.4430 -0.1410
20910W        W37757   5.995   7.571   5.003 -0.2272  0.0173  0.0349
20911W        W37758  15.492   0.032  11.874 -0.2660  0.2922  0.1029
20912W        W37759   3.669  13.751  14.849 -0.1981  0.0709  0.2391
20913W        W37760  12.431   0.504  10.397  0.2737  0.1891  0.0117
20914W        W37761   0.870   7.364  15.253  0.1751  0.1353  0.1548
20915W        W37762   2.983  15.214   2.534  0.1160  0.0941 -0.1187
20916W        W37763  15.382   7.168  13.332  0.4447 -0.0160 -0.0801
20917W        W37764  16.441   9.302   4.788 -0.1289  0.3064  0.0520
20918W        W37765  11.709   0.989   5.088 -0.0014  0.2101  0.2770
20919W        W37766  10.863   9.225   2.988  0.1380  0.1444 -0.0650
20920W        W37767   4.509   7.121   0.026  0.0107 -0.1290  0.2323
20921W        W37768  15.841  11.441   1.410 -0.0546 -0.2559 -0.1647
20922W        W37769  15.993   9.622  15.801 -0.0902  0.2953  0.2489
20923W        W37770   8.381   2.543  15.366  0.1434  0.0220 -0.1768
20924W        W37771  13.766   4.381   5.432  0.2103 -0.0132 -0.0447
20925W        W37772   4.192   9.284   4.436  0.1159  0.0936 -0.1264
20926W        W37773  17.546   3.505  13.361 -0.2513  0.3153  0.1465
20927W        W37774  14.157   5.806   5.142  0.0735  0.2183  0.0712
20928W        W37775   4.088   8.073  13.326  0.1227 -0.0479 -0.1917
20929W        W37776   2.225  10.907  12.423  0.0355 -0.2661 -0.0003
20930W        W37777   7.605  16.197  12.748 -0.5051  0.0282  0.0251
20931W        W37778   0.770   0.393   2.442  0.0763 -0.0119  0.1262
20932W        W37779  13.246   6.572  12.019 -0.0130  0.0422  0.0006
20933W        W37780   8.461   4.798   2.679 -0.4120 -0.2496  0.1103
20934W        W37781   3.860   0.835  14.726 -0.1326  0.2328 -0.0634
20935W        W37782   1.060   3.929  14.405 -0.0497  0.3140  0.1197
20936W        W37783   7.453  10.767   2.478 -0.1468 -0.2421 -0.1928
20937W        W37784   2.478  15.935  15.219  0.0874 -0.0358 -0.1827
20938W        W37785   0.603   2.814   4.253  0.0446  0.2989  0.3101
20939W        W37786   5.863   8.783   0.751 -0.0265 -0.4302 -0.0337
20940W        W37787   1.229  13.192  14.568 -0.0238  0.2911 -0.1267
20941W        W37788   5.189   8.454  13.786  0.0111  0.3464 -0.1189
20942W        W37789   9.303   8.282  13.131  0.0942  0.0773 -0.1178
20943W        W37790  11.765  17.917  12.100 -0.2961  0.0188 -0.2234
20944W        W37791  12.439  13.278  13.831  0.0962  0.1206 -0.0466
20945W        W37792   8.286   7.121   0.210  0.1137 -0.0255  0.3032
20946W        W37793  10.128   6.293  10.916  0.0937  0.0880 -0.2115
20947W        W37794  17.980   4.222  13.995 -0.1236  0.1152  0.2857
20948W        W37795   4.627   6.061   3.760  0.0129 -0.1811  0.4164
20949W        W37796   6.183   9.095   4.800  0.1466  0.0939 -0.3052
20950W        W37797   1.942   1.474   0.929 -0.1445  0.0040  0.0591
20951W        W37798  15.383  15.166  13.584  0.4227 -0.1358 -0.1301
20952W        W37799   7.024   9.819  11.675 -0.1391 -0.0620 -0.0149
20953W        W37800  13.948  12.229   1.222  0.1020 -0.2051 -0.0575
20954W        W37801  13.518   8.820   1.995 -0.1337  0.2976 -0.1204
20955W        W37802   4.644  12.998  12.048 -0.0019 -0.0190  0.2931
20956W        W37803   2.835   9.456   6.495  0.3428 -0.0256 -0.2236
20957W        W37804   1.553   5.335  15.998 -0.0174 -0.3467 -0.0954
20958W        W37805  15.207   6.686  15.073 -0.1246  0.1029 -0.0020
20959W        W37806   3.139  16.805  11.763  0.0208 -0.0292 -0.1480
20960W        W37807  16.369   5.270   5.183 -0.0073 -0.0848 -0.0021
20961W        W37808   0.267   4.368  12.949  0.0790  0.1955  0.1928
20962W        W37809   5.960   7.462  16.603 -0.0743  0.0851  0.1292
20963W        W37810  10.938  16.773   2.327 -0.0000 -0.1307  0.1422
20964W        W37811  13.110  15.252  14.625 -0.0740 -0.4023 -0.0513
20965W        W37812  13.723  10.233  16.150  0.1021  0.0047 -0.1754
20966W        W37813   6.391  16.635   3.039  0.0600  0.1399 -0.0796
20967W        W37814   9.814  10.505  11.677  0.4121 -0.0255  0.1672
20968W        W37815  13.697  14.903  13.460  0.0920  0.3715 -0.0454
20969W        W37816   1.809  16.610   0.147 -0.0137  0.2842  0.1306
20970W        W37817  11.247  14.384  11.247 -0.1982 -0.0233 -0.1389
20971W        W37818   3.051   4.800  14.199 -0.0438 -0.1360  0.0069
20972W        W37819   0.608   0.911  12.873 -0.0256  0.3794 -0.0366
20973W        W37820  12.740   6.251   4.942 -0.0818  0.0223  0.0773
20974W        W37821   0.428   2.360   0.506  0.1513 -0.1896 -0.1786
20975W        W37822  15.671  15.394   1.830  0.1061 -0.0471  0.1179
20976W        W37823   1.337   8.530   0.854  0.0943  0.0710  0.0989
20977W        W37824   6.981   0.279  14.593 -0.1750  0.0156 -0.1470
20978W        W37825   1.184   2.051  11.408  0.0007 -0.3310  0.4894
20979W        W37826   2.162  14.694   0.076 -0.0819 -0.0434  0.0444
20980W        W37827   4.089   2.660  14.427 -0.2547 -0.0996  0.0730
20981W        W37828  17.549   6.519   6.153  0.0937 -0.2994 -0.1922
20982W        W37829   4.697   8.855   2.032 -0.1393  0.1848  0.0817
20983W        W37830   7.609   0.710   2.200 -0.0716  0.1657  0.1573
20984W        W37831   6.996   6.138  15.947  0.2258 -0.2144 -0.0135
20985W        W37832  15.404  16.595  15.099 -0.4813  0.0482 -0.1318
20986W        W37833   4.530   1.280   1.458 -0.3681 -0.1044  0.2270
20987W        W37834   5.843   1.183   5.154 -0.1751 -0.2390  0.4195
20988W        W37835  13.466   8.080   4.376 -0.1673  0.1063 -0.1512
20989W        W37836  15.250  11.710   4.541 -0.2131  0.2793  0.0934
20990W        W37837  12.604  10.361   0.516 -0.0051  0.1054  0.3799
20991W        W37838  13.153  15.564  14.193 -0.2585 -0.2212  0.0835
20992W        W37839   8.944   5.765   0.960  0.2146  0.4100  0.2790
20993W        W37840   3.027  12.150   3.114 -0.0596 -0.0764  0.0448
20994W        W37841   9.137  11.284   0.913  0.0527 -0.2594  0.3077
20995W        W37842  14.609   2.482   0.611 -0.2660  0.0679  0.1303
20996W        W37843   0.252  16.411  12.128  0.2357 -0.1537  0.1620
20997W        W37844  11.051  15.415   1.291 -0.1322 -0.1085 -0.1993
20998W        W37845  16.234  11.248  12.482  0.1999 -0.2066 -0.3194
20999W        W37846  15.348   2.319  11.693  0.0103 -0.1829  0.5099
21000W        W37847   3.736  13.387  14.441  0.1795 -0.1663  0.0689
21001W        W37848  10.908  12.963   3.009 -0.2361 -0.1397  0.2146
21002W        W37849   4.835   7.343   2.520 -0.1527 -0.0420  0.1558
21003W        W37850   7.862   1.597   0.428  0.1543  0.0123 -0.0666
21004W        W37851   3.000  13.469   0.823  0.0669  0.0856 -0.3465
21005W        W37852  16.128   1.509  15.680  0.0384  0.0510 -0.3282
21006W        W37853  17.046   3.026   5.283 -0.0233 -0.1970  0.0827
21007W        W37854   2.662   2.628  16.023  0.2983  0.0735 -0.3102
21008W        W37855   6.665   3.778   3.371  0.4416 -0.0053  0.3119
21009W        W37856   5.606   3.412  15.441 -0.2003  0.1473  0.0009
21010W        W37857   3.079  17.384   3.395  0.1141 -0.1703  0.0286
21011W        W37858   1.780  16.879  15.233 -0.0926  0.1964 -0.0163
21012W        W37859   3.064  13.550   1.800  0.2079 -0.1497 -0.2437
21013W        W37860   5.496  12.035   0.760 -0.1988  0.0981 -0.0787
21014W        W37861   1.484   7.375   0.869 -0.1036  0.2020  0.0722
21015W        W37862   8.022   8.439  15.975  0.0478  0.3770  0.2788
21016W        W37863   1.507   5.956   3.556 -0.1016  0.2101  0.4195
21017W        W37864  16.479  11.284  15.237 -0.3476  0.0669  0.0234
21018W        W37865  12.990  16.076  15.081 -0.3873 -0.1435 -0.4843
21019W        W37866  10.457  18.088   2.593 -0.0616 -0.0527  0.2377
21020W        W37867   2.367  17.358  16.220  0.2126 -0.0458  0.0561
21021W        W37868   7.314  10.260   2.433  0.0566 -0.2003  0.2085
21022W        W37869  17.996   3.816  11.296  0.0099  0.0843  0.1092
21023W        W37870  11.034   1.340  11.761 -0.2003  0.2232  0.3065
21024W        W37871  11.607  14.529   5.593 -0.1267  0.1059 -0.0397
21025W        W37872   4.164  17.448   6.166  0.0942  0.0895  0.0019
21026W        W37873   2.838  12.853  12.225 -0.0593  0.0695  0.0857
21027W        W37874  10.651  12.888   2.022 -0.1911  0.0216  0.1455
21028W        W37875  16.906   7.690   4.066 -0.0003 -0.1634  0.2095
21029W        W37876  11.239   5.913   0.006 -0.3638  0.0040  0.0167
21030W        W37877  15.036  10.415  14.143  0.2268  0.3406 -0.1818
21031W        W37878  11.537   6.052  14.766  0.1271 -0.4368 -0.2394
21032W        W37879  15.607  13.130   0.929  0.0287  0.0555 -0.0792
21033W        W37880  17.499   6.201  13.707  0.3001 -0.1440  0.0188
21034W        W37881  10.703  10.565  14.515  0.1663 -0.0170  0.0518
21035W        W37882  12.057  11.493  12.127  0.0114 -0.1915 -0.2214
21036W        W37883   7.818   9.219   3.840  0.3274  0.0373 -0.0042
21037W        W37884  17.009  16.394  13.662  0.0505  0.1997  0.1504
21038W        W37885   1.192   3.071  12.882 -0.0995 -0.3232  0.0484
21039W        W37886  10.736   6.036  14.342 -0.0583 -0.0457 -0.0751
21040W        W37887  12.436   0.291  11.972  0.0995 -0.1097  0.0561
21041W        W37888   5.375  15.970   1.561  0.0419  0.0295 -0.1790
21042W        W37889   9.938   9.893   0.148 -0.3551  0.0907  0.1596
21043W        W37890  14.374  14.834  14.740  0.1925  0.0333  0.4042
21044W        W37891   3.144   5.669   3.493  0.2214 -0.1125 -0.0304
21045W        W37892   8.695   6.470   1.335 -0.1791 -0.0629 -0.1216
21046W        W37893   7.825   6.583   3.904 -0.0015 -0.2003  0.0379
21047W        W37894   1.300   5.165  11.843 -0.1067  0.3529  0.2726
21048W        W37895  12.636  16.951   3.659 -0.0214  0.0802  0.2465
21049W        W37896  16.155   5.002   3.597  0.0746  0.1141  0.0896
21050W        W37897  12.735  13.476  14.361 -0.1312 -0.0356 -0.2029
21051W        W37898   7.688  16.465   3.999  0.1367  0.1901  0.1478
21052W        W37899  14.726   4.584  13.720  0.0501  0.0078 -0.1811
21053W        W37900   1.914   2.874   1.978  0.1389  0.1625 -0.1972
21054W        W37901   9.294  16.753  15.121 -0.0635 -0.2730 -0.1766
21055W        W37902   0.121   1.752  14.409  0.1416 -0.1280 -0.1416
21056W        W37903   2.800   2.654   1.660  0.0156 -0.0740 -0.1572
21057W        W37904   8.008   1.826  12.913  0.1448 -0.2138 -0.0727
21058W        W37905   0.625   0.153   4.116 -0.0743 -0.2201 -0.0123
21059W        W37906   8.772   1.315   5.174 -0.0218 -0.0149 -0.0173
21060W        W37907  16.167  11.404   5.536 -0.2639  0.0449  0.0655
21061W        W37908   4.022  14.274  15.360  0.0834 -0.3713 -0.1231
21062W        W37909  14.747   5.582  12.608  0.1635 -0.0405  0.0111
21063W        W37910  12.522  16.135  14.703  0.2044 -0.1445  0.1278
21064W        W37911  10.100  17.746   0.542 -0.2605  0.2603  0.3584
21065W        W37912   5.176   0.236  11.672  0.0818  0.3918  0.2451
21066W        W37913   3.385  15.813  12.342  0.0516  0.1404  0.0717
21067W        W37914  14.144  14.359  14.728 -0.0576 -0.0826  0.1111
21068W        W37915   7.514   7.962  12.830  0.0048  0.0098  0.0335
21069W        W37916   7.778  17.086   1.808  0.0882  0.0899  0.1842
21070W        W37917   4.735   2.397  15.016  0.2179  0.0552  0.1643
21071W        W37918  12.877   7.452   4.892 -0.2051 -0.3083 -0.1523
21072W        W37919   5.605  14.696  13.168 -0.1532  0.0388 -0.0845
21073W        W37920   0.642  16.278   1.991  0.0538 -0.1949 -0.0307
21074W        W37921   8.779  10.655   0.314  0.2531  0.1404 -0.1193
21075W        W37922   5.064   7.576  14.230 -0.0071 -0.0412 -0.0833
21076W        W37923   4.600   1.309   0.799  0.0281  0.0459 -0.0786
21077W        W37924   9.133  12.716   3.903  0.4928 -0.1083  0.2452
21078W        W37925   6.262   2.736  16.052  0.1508  0.3297  0.0438
21079W        W37926  14.029   4.287   0.951 -0.3487  0.2598  0.1295
21080W        W37927  14.770  15.494  14.279 -0.2849 -0.5615 -0.2630
21081W        W37928   4.655   1.510   4.443 -0.2214  0.0436  0.1383
21082W        W37929   0.923   7.081  13.841 -0.0834  0.3617  0.1066
21083W        W37930   9.128   3.432   2.436  0.1274 -0.1787  0.0881
21084W        W37931   2.429   6.543  12.237  0.0862  0.0333 -0.1321
21085W        W37932  15.852   1.672  15.275 -0.1979  0.0451  0.1411
21086W        W37933   7.734  14.331  13.014  0.3412  0.0977  0.2271
21087W        W37934   7.630  10.727   5.233 -0.0473  0.0456  0.2286
21088W        W37935  10.085  14.111   1.131 -0.2214  0.0223  0.1329
21089W        W37936   1.825  16.170   0.539 -0.1384  0.1852  0.2692
21090W        W37937  10.411   3.961  10.004  0.2079  0.2493 -0.3143
21091W        W37938   4.777  10.950  13.566 -0.0142 -0.1313  0.0453
21092W        W37939   7.035   9.359   0.263 -0.1165  0.2478 -0.1812
21093W        W37940   5.163   0.664   0.245 -0.0263 -0.0567  0.1673
21094W        W37941   7.831   9.357   1.847  0.1343  0.0919 -0.1074
21095W        W37942   6.683  11.769   5.162  0.1504 -0.0211 -0.0620
21096W        W37943  17.632  10.860   3.345  0.0389  0.0089  0.4602
21097W        W37944   9.053   0.055  12.408 -0.0863  0.0756 -0.4415
21098W        W37945  11.433   1.718  12.759 -0.1933 -0.1690  0.0904
21099W        W37946  17.607  15.994   3.597  0.0252  0.0936  0.1967
21100W        W37947   5.625   1.808  13.794 -0.1672 -0.1901  0.0542
21101W        W37948  14.607   0.565   1.828 -0.0039  0.0436 -0.0659
21102W        W37949   9.671  12.763   4.086 -0.1813 -0.1124  0.0863
21103W        W37950   2.141  15.767   0.376  0.2974  0.0251  0.0075
21104W        W37951   0.157   9.370  15.306 -0.0317 -0.2627  0.0215
21105W        W37952   5.469   5.450  13.750 -0.0266 -0.4505 -0.3234
21106W        W37953  17.839   0.929  11.851 -0.1063  0.1068  0.1460
21107W        W37954   2.985   2.870   2.043  0.2753  0.0528  0.0639
21108W        W37955  15.958   4.520   1.069 -0.1368  0.0653 -0.0624
21109W        W37956  11.507  10.014  14.373  0.2161  0.1189  0.1142
21110W        W37957  16.489   0.891  15.056 -0.0123 -0.1584  0.2770
21111W        W37958   9.660  17.645   4.779  0.2530 -0.2186 -0.1724
21112W        W37959  10.520   1.348   1.415  0.0067 -0.1494  0.2598
21113W        W37960   3.262  13.693  13.742 -0.0473  0.2828  0.4428
21114W        W37961   2.675  11.074  13.953  0.0562  0.2567 -0.2079
21115W        W37962   1.344  14.982  16.158  0.1653 -0.1938 -0.4102
21116W        W37963  16.272  17.267  16.449 -0.0484 -0.0371  0.1210
21117W        W37964  12.303  16.213   1.944  0.1463  0.2418 -0.1394
21118W        W37965   1.373   2.850   4.644  0.0407 -0.4298 -0.3005
21119W        W37966  10.660   8.807  15.780 -0.1404 -0.1395  0.1221
21120W        W37967   6.443  15.257   2.944 -0.0972 -0.2201  0.1250
21121W        W37968  12.772  10.586   2.800 -0.2798  0.2660 -0.1769
21122W        W37969   5.736  15.407   2.364 -0.1064  0.2101 -0.1156
21123W        W37970   0.807  10.606  13.634  0.1168 -0.1762  0.1620
21124W        W37971  11.875  15.930  14.189  0.0638  0.1941 -0.3866
21125W        W37972   1.905   0.902   6.220  0.0387 -0.1026 -0.2201
21126W        W37973  12.434  13.733  13.489  0.0391  0.0810  0.1612
21127W        W37974  15.060  14.440   4.751  0.1234  0.2597 -0.2261
21128W        W37975  16.831  10.878  16.622  0.3336  0.3455 -0.3056
21129W        W37976   9.266  17.916  15.122  0.1373  0.0725 -0.1742
21130W        W37977  15.419   9.862  11.942 -0.3446 -0.2035  0.0482
21131W        W37978   4.747   1.944   0.300 -0.0538  0.1958  0.0660
21132W        W37979   6.621  16.524   5.152  0.1065  0.1500 -0.3302
21133W        W37980   6.289  14.264   5.742  0.2301  0.0670  0.0123
21134W        W37981  11.052   2.782   4.943 -0.1280  0.3200  0.1598
21135W        W37982   3.378  17.739  14.250 -0.0973  0.2671  0.0883
21136W        W37983   0.501   0.933   2.131  0.0992 -0.3803  0.0066
21137W        W37984  14.732  17.013  10.851  0.0648  0.2985 -0.0973
21138W        W37985  15.167   5.084  14.989  0.1599 -0.3589  0.0053
21139W        W37986   5.690  16.607  11.583 -0.0337 -0.0378  0.0478
21140W        W37987  15.614   2.675  13.527 -0.2362  0.0589 -0.2714
21141W        W37988   7.453   0.194  14.795  0.0205  0.2948  0.0901
21142W        W37989  10.834   2.926   0.085  0.2387  0.1249  0.1141
21143W        W37990   5.144   1.922  13.766 -0.0116 -0.0015  0.1172
21144W        W37991   7.282   5.382   0.702 -0.0098  0.1321  0.2816
21145W        W37992  17.789   1.385  13.495 -0.0779 -0.0836  0.0524
21146W        W37993   3.901   4.952   0.135  0.4390  0.0050 -0.0558
21147W        W37994   2.980  10.421   4.542  0.0149 -0.0302  0.1048
21148W        W37995  13.883   2.708   4.393  0.0015 -0.1712 -0.1069
21149W        W37996  13.672  13.800   5.776  0.0783  0.2333  0.1207
21150W        W37997  17.282  15.502   4.600  0.0960  0.0607 -0.0327
21151W        W37998  13.937   9.355  12.957  0.2364  0.0873 -0.0013
21152W        W37999  15.398   9.811   4.311  0.0402 -0.1886 -0.0882
21153W        W38000  16.888  15.754  15.401  0.0947 -0.1652  0.1462
21154W        W38001   9.896   8.587  12.533  0.1347 -0.1911  0.0217
21155W        W38002   0.227  10.766   4.718 -0.1709  0.1487  0.0548
21156W        W38003  15.873   0.685  11.427 -0.0127  0.4498  0.0838
21157W        W38004  13.782   7.357  15.747 -0.1008  0.3548  0.2800
21158W        W38005   9.354   4.709  14.608 -0.1826  0.1548 -0.0345
21159W        W38006  15.405  16.385  11.662 -0.2449  0.1112  0.3922
21160W        W38007  17.384   3.910   4.301 -0.0394 -0.2064  0.1486
21161W        W38008   7.981   2.476   3.808 -0.2049  0.3596 -0.1052
21162W        W38009   1.753   3.604  15.734  0.1461  0.0999 -0.2336
21163W        W38010  17.925  15.857   5.293  0.0947 -0.1029 -0.1358
21164W        W38011   4.474  17.076   4.331 -0.1278  0.2359 -0.1069
21165W        W38012  17.022  12.821  12.837 -0.3558 -0.3671  0.1781
21166W        W38013  12.993  13.760  10.261 -0.0090 -0.2703 -0.1147
21167W        W38014   3.210   5.179   5.120 -0.2077  0.3353  0.2661
21168W        W38015   9.304   6.092   2.483  0.1781  0.2513 -0.1111
21169W        W38016   3.396  13.565  13.182  0.2344  0.1656  0.0002
21170W        W38017   0.598  13.617  12.216  0.0093  0.0571 -0.0120
21171W        W38018   6.689  12.619   1.492  0.0535 -0.0446 -0.0431
21172W        W38019  12.910  15.829   3.112  0.0956 -0.0231 -0.4213
21173W        W38020   7.601   2.346  15.893  0.0685  0.1178 -0.0047
21174W        W38021  14.482   6.025   3.633 -0.0250 -0.0983 -0.1972
21175W        W38022  15.113  17.563   1.586  0.1065 -0.1650  0.1118
21176W        W38023  17.646   8.975   4.062  0.1109 -0.0639  0.0805
21177W        W38024  14.915  10.821   5.512 -0.1525 -0.1518  0.1776
21178W        W38025  16.415  14.878   3.892  0.1197  0.1752  0.1016
21179W        W38026  11.883   9.867   0.237 -0.0370 -0.0975  0.2224
21180W        W38027   2.425  17.887   2.099  0.0591  0.0421  0.0097
21181W        W38028  10.674   7.492   5.620 -0.1842 -0.2851 -0.1682
21182W        W38029  17.721   4.461  16.471  0.0940  0.0972  0.1140
21183W        W38030  16.470   9.475  13.402 -0.0000 -0.3664  0.1199
21184W        W38031   9.270   0.448   5.498  0.0745  0.1868  0.3011
21185W        W38032   4.116   2.977  14.817 -0.3152  0.1426  0.3568
21186W        W38033   4.747   4.790  15.357 -0.0610 -0.2192 -0.0502
21187W        W38034   2.749   2.043  14.312 -0.3857  0.0453  0.5133
21188W        W38035  18.007  14.910  15.403 -0.1121 -0.0473 -0.1513
21189W        W38036   2.976  10.106   1.940 -0.0041 -0.0202  0.1182
21190W        W38037  10.496   1.426  12.992  0.0335  0.2192  0.0971
21191W        W38038  15.887   7.224   4.949  0.0381 -0.1215 -0.1921
21192W        W38039  10.180   8.934  14.979 -0.1549 -0.0119  0.0622
21193W        W38040   2.641   7.031  14.725 -0.1326  0.2341  0.2754
21194W        W38041  12.295   6.221  14.187 -0.3025 -0.1972  0.0220
21195W        W38042  15.944  10.005  14.453 -0.0524 -0.0852  0.0501
21196W        W38043  11.358   0.171   1.338 -0.3248  0.3969 -0.0283
21197W        W38044  10.015   8.753   5.013 -0.1690 -0.0610 -0.1118
21198W        W38045   7.378   5.829   4.879  0.0003  0.2932  0.1253
21199W        W38046   1.311  14.967   4.637  0.0754 -0.1585 -0.1186
21200W        W38047   5.191   9.355  11.724  0.0375 -0.1129  0.0339
21201W        W38048   7.805  10.475  15.459 -0.4285  0.1153  0.0228
21202W        W38049  14.234   9.444  16.398 -0.0830  0.0243  0.0691
21203W        W38050  11.733  17.730   2.905  0.0615 -0.0302  0.0828
21204W        W38051  12.076  13.943  12.269 -0.2090 -0.0915 -0.0817
21205W        W38052  13.740  15.159   0.930  0.2489 -0.0983 -0.3580
21206W        W38053   5.130  15.085  13.244 -0.3943  0.0327 -0.2246
21207W        W38054  11.568  15.626  13.982 -0.0818 -0.0726  0.0862
21208W        W38055   9.355  15.914  14.615  0.1043  0.0087  0.1574
21209W        W38056   0.647   3.902   1.969  0.3141 -0.4727  0.0903
21210W        W38057  16.913  10.708  14.221 -0.0143  0.2278 -0.0910
21211W        W38058   2.748  12.130  12.932  0.1791 -0.0322 -0.1111
21212W        W38059   0.466   8.846   0.912 -0.2196 -0.0868  0.1669
21213W        W38060  10.716   0.652  12.471  0.0640  0.1272 -0.2174
21214W        W38061   0.490   9.884  11.969 -0.0102  0.0250 -0.0792
21215W        W38062  13.327   2.556  14.288  0.1082  0.0090  0.0038
21216W        W38063  16.311  17.556   3.382 -0.0237  0.2380  0.3809
21217W        W38064   5.535   2.366   0.384  0.1674 -0.0514 -0.0360
21218W        W38065  16.372  10.928   2.620  0.0855 -0.0503 -0.4468
21219W        W38066  10.799  16.686  11.576  0.0635  0.1502 -0.0814
21220W        W38067   6.937  13.377  13.828 -0.0145  0.2718 -0.0209
21221W        W38068   8.792   8.387  14.228  0.3010 -0.0792  0.3078
21222W        W38069   4.526   6.572  11.922 -0.1033 -0.2706  0.1258
21223W        W38070   8.492   5.961   3.126 -0.1024 -0.1631 -0.0237
21224W        W38071  18.021  14.154  11.954 -0.3114 -0.1706 -0.2638
21225W        W38072  15.092   7.454  15.622 -0.0092  0.0344  0.0127
21226W        W38073   1.825   9.081   6.012  0.0170 -0.1755  0.1697
21227W        W38074  16.238   8.922  13.541 -0.1552  0.1300 -0.2865
21228W        W38075  13.279  10.804   4.560 -0.2883  0.0459  0.1049
21229W        W38076  10.903   9.935   3.651 -0.0185 -0.1481  0.1332
21230W        W38077   3.710  12.509  12.207 -0.1603 -0.2838  0.1256
21231W        W38078  12.676  11.998   2.447  0.1216 -0.0660  0.0982
21232W        W38079  11.916  10.817  11.588  0.0450  0.0782  0.1566
21233W        W38080  10.968   2.399   0.103  0.1106  0.0865  0.0680
21234W        W38081  13.816  11.651   1.145  0.2059 -0.1312  0.1051
21235W        W38082   2.363   5.092   2.102 -0.2325 -0.0247  0.1649
21236W        W38083  13.842   3.441   3.525  0.4909 -0.1435 -0.0587
21237W        W38084   4.911  16.905   4.554 -0.2603 -0.2033 -0.0901
21238W        W38085   4.565   0.060  15.008  0.3956 -0.0615 -0.0263
21239W        W38086  16.484   4.429   3.509  0.1714 -0.2235 -0.2658
21240W        W38087  13.837   8.333   2.280 -0.2129  0.1133 -0.1177
21241W        W38088   5.415  16.757  14.445  0.1062 -0.1860 -0.0386
21242W        W38089  11.397   1.000   3.295  0.0729 -0.1133 -0.0509
21243W        W38090   9.231  14.940   3.524 -0.0612 -0.1407  0.1243
21244W        W38091   6.662   3.119  15.405  0.2923 -0.0898 -0.0497
21245W        W38092   3.074  13.217   3.316  0.0866  0.1918  0.2202
21246W        W38093   9.362   8.273   3.430 -0.1046 -0.2510  0.1030
21247W        W38094  11.175   0.181   5.182 -0.1038  0.0461  0.1306
21248W        W38095   7.797  17.652  13.201  0.2992  0.2662 -0.0806
21249W        W38096   6.888   4.696  12.115  0.1407  0.2023 -0.2397
21250W        W38097  17.499  11.045  14.143 -0.1805 -0.1100  0.0491
21251W        W38098  12.970   7.800   4.423 -0.2483  0.0816 -0.0188
21252W        W38099   2.819   6.510  12.528  0.0818 -0.0078 -0.2951
21253W        W38100  16.804   2.853   5.761 -0.0214  0.2344  0.0613
21254W        W38101  11.855   1.094   0.020 -0.3567  0.1237  0.5715
21255W        W38102  14.919   0.436   4.887 -0.2904  0.3284 -0.1358
21256W        W38103   6.024  11.690   4.114 -0.0848 -0.3968 -0.2423
21257W        W38104   9.063   2.402   0.341  0.2150 -0.0033 -0.2445
21258W        W38105   9.993  14.839   2.470 -0.1616 -0.0333  0.1804
21259W        W38106  17.165  14.170   6.269  0.1237 -0.3185  0.1204
21260W        W38107   4.562  14.521   0.510  0.0953  0.3110  0.0495
21261W        W38108   5.932  15.566  16.317  0.0740 -0.1828  0.2120
21262W        W38109   1.896   3.369  15.334  0.3345  0.0583 -0.1053
21263W        W38110   2.695  15.646   5.246  0.0627 -0.2915 -0.0275
21264W        W38111  12.478   9.100  13.995 -0.1667 -0.0338  0.0171
21265W        W38112   4.564   0.109  12.784  0.0241 -0.2319  0.1263
21266W        W38113   5.093   8.244  15.311 -0.0828 -0.0158 -0.1351
21267W        W38114  10.679   0.097  12.524 -0.0696  0.0069 -0.0628
21268W        W38115   3.221  15.670   5.150 -0.1995 -0.1769  0.1313
21269W        W38116   0.792   2.782  11.770  0.1400  0.2202  0.1672
21270W        W38117   4.448   6.425   5.653  0.2042  0.0127 -0.0270
21271W        W38118   8.243   2.856  13.337 -0.2219  0.0028 -0.1070
21272W        W38119   8.608  12.969  11.577  0.2599  0.1682  0.0741
21273W        W38120  17.927  16.663  13.591 -0.0601  0.0146 -0.0525
21274W        W38121   6.609  17.069  15.631  0.0660 -0.3455  0.0257
21275W        W38122  14.575  17.384   1.544  0.4566 -0.1528 -0.0301
21276W        W38123   3.689  11.400  12.974  0.0078 -0.0443 -0.1655
21277W        W38124   9.825   7.310  11.321 -0.0843  0.1697 -0.2006
21278W        W38125   3.677   0.806   6.318  0.1348  0.2092 -0.1536
21279W        W38126   4.796  10.240   0.443  0.0972 -0.4118  0.0484
21280W        W38127   3.243   6.809   2.741 -0.0370  0.1139 -0.0108
21281W        W38128  13.245   0.893   4.299  0.1738  0.0094  0.0151
21282W        W38129   5.057   4.072   1.707  0.1600 -0.0639 -0.0761
21283W        W38130  11.708  17.407   3.319 -0.0045 -0.2621 -0.0422
21284W        W38131  14.472  11.557   2.511  0.2121 -0.1608  0.1134
21285W        W38132   8.914  15.031   1.634 -0.0965  0.1710  0.0914
21286W        W38133  17.849   9.324   0.367  0.0095 -0.2074  0.1057
21287W        W38134  10.435  10.321   0.030 -0.1197 -0.0238  0.4233
21288W        W38135   8.049  11.965  14.402 -0.0562  0.1823 -0.0581
21289W        W38136  11.114   3.939  13.446 -0.1972 -0.0990  0.0206
21290W        W38137  14.405   9.629   3.462  0.1129  0.2966 -0.0816
21291W        W38138   1.434  15.820  16.278  0.0041 -0.0448 -0.1779
21292W        W38139   9.090  14.521  13.212 -0.2111 -0.0167  0.1479
21293W        W38140   0.136   9.689   1.089 -0.0384 -0.0960  0.0841
21294W        W38141  12.227  15.290   4.649  0.2445 -0.1566 -0.1497
21295W        W38142   5.320  17.909   0.871 -0.1654 -0.0064 -0.1040
21296W        W38143  10.229   3.499  15.273 -0.0982 -0.3565 -0.1892
21297W        W38144   0.442  12.881  14.248 -0.1785  0.0007  0.0920
21298W        W38145   5.363  11.116   5.569 -0.0061 -0.2167 -0.0784
21299W        W38146   6.378  12.458   2.472 -0.3510 -0.1395  0.1990
21300W        W38147   0.031   2.594  15.908  0.1507  0.2932  0.1577
21301W        W38148  16.984  14.168   1.888 -0.0752 -0.2052 -0.2143
21302W        W38149  14.492   4.465   1.743  0.1190  0.0276 -0.0966
21303W        W38150   4.207  12.698   6.090 -0.1713 -0.0056  0.0544
21304W        W38151   8.791  16.742   5.799 -0.1546  0.0223  0.0606
21305W        W38152   7.773   7.999  14.537  0.0104  0.3609  0.1523
21306W        W38153   3.188   0.236   0.986  0.1769  0.1312  0.0964
21307W        W38154   8.290  15.149   4.019  0.1349 -0.2551  0.1538
21308W        W38155   8.395  14.937   0.200  0.2452 -0.3565  0.4147
21309W        W38156   3.401   4.979   4.702 -0.0349 -0.1426  0.0458
21310W        W38157   6.784  14.593   3.148  0.0903  0.0898 -0.2074
21311W        W38158  13.885  11.647   0.225 -0.2290  0.1402  0.1065
21312W        W38159   4.551  17.340   3.499 -0.1858 -0.3020  0.1260
21313W        W38160   0.444  16.508   0.906  0.1671 -0.2189 -0.1988
21314W        W38161  10.541   4.596   2.009 -0.4191 -0.1708  0.2990
21315W        W38162   7.190   2.506   1.969 -0.1992 -0.0866  0.0387
21316W        W38163  14.052   9.850   5.201  0.1002 -0.2577  0.0456
21317W        W38164   6.748  10.314   3.122 -0.0231  0.3713 -0.1141
21318W        W38165   0.806   1.613   4.937 -0.0587 -0.0321  0.1194
21319W        W38166   5.119  17.205  13.455  0.0249 -0.1984  0.1510
21320W        W38167  10.291   3.029   5.563 -0.1187 -0.0672  0.0528
21321W        W38168  10.343   7.300  11.638 -0.2784  0.0292  0.1845
21322W        W38169   9.319   2.789  13.362  0.2885  0.0097 -0.1549
21323W        W38170  13.084   2.821   4.638 -0.0735  0.0326  0.2589
21324W        W38171   3.901   5.442   0.504 -0.1126  0.1275  0.1825
21325W        W38172  17.406  11.255   5.373  0.0905  0.0955 -0.2452
21326W        W38173  10.261  15.648  11.785  0.0565 -0.1740 -0.0040
21327W        W38174   3.403   6.087   1.955  0.0509  0.1868  0.1488
21328W        W38175   4.265   6.365   0.594  0.1957 -0.0640 -0.0248
21329W        W38176  10.616   0.032   3.173 -0.2286 -0.0807 -0.1736
21330W        W38177   3.480   0.622   3.723 -0.0267 -0.0173 -0.3964
21331W        W38178   1.753  10.268  16.151  0.1138 -0.1337  0.0763
21332W        W38179   6.701  15.084   4.909  0.3188 -0.3418  0.4599
21333W        W38180  16.590   3.337  11.498  0.1252 -0.2627 -0.0167
21334W        W38181   9.605   8.594  11.490  0.1152  0.1124  0.1326
21335W        W38182   7.757  10.250  11.318  0.1430 -0.0497  0.0561
21336W        W38183   2.035  11.611   4.987  0.0776  0.0565 -0.0835
21337W        W38184  11.884  17.382   0.597 -0.1239  0.1196 -0.0807
21338W        W38185   4.026   5.972  14.084 -0.1288  0.2512  0.2831
21339W        W38186  14.124  16.329   2.708  0.3360  0.1605  0.2808
21340W        W38187   9.518  12.161   3.162 -0.3821 -0.0975 -0.3900
21341W        W38188  10.840   7.114   1.454 -0.0224  0.0269  0.1060
21342W        W38189   0.739   2.465  13.466  0.0454  0.0848 -0.0643
21343W        W38190  12.615   9.006   0.421  0.0692 -0.0845  0.3766
21344W        W38191  16.261   1.572   5.286  0.1111  0.0108 -0.0393
21345W        W38192  15.967   5.871   6.043  0.3241 -0.1731 -0.0037
21346W        W38193  13.311   2.919  16.573  0.3188  0.2958  0.1732
21347W        W38194   5.295  10.195   3.683  0.0460 -0.0212  0.1478
21348W        W38195   1.357   8.114   2.276 -0.2750 -0.3027 -0.3285
21349W        W38196   0.200   0.728   2.502  0.0420 -0.1462 -0.0106
21350W        W38197   9.590  11.582   2.890 -0.1722 -0.0571 -0.0282
21351W        W38198   7.826  16.677  15.979  0.2625 -0.0970  0.1009
21352W        W38199   4.339   8.689   4.411  0.0978  0.0011  0.0939
21353W        W38200   8.401   7.495  10.766 -0.0100 -0.2713  0.0880
21354W        W38201   3.787   2.043   0.096 -0.1222  0.0422  0.2392
21355W        W38202   1.032  13.048   3.542  0.0735  0.0372  0.2719
21356W        W38203  14.186   6.136   0.459  0.0115  0.0164  0.0495
21357W        W38204   5.052   3.872   2.900  0.2323 -0.0354 -0.0615
21358W        W38205  17.507   9.870   3.847 -0.0004 -0.3767 -0.2107
21359W        W38206   1.918   7.499   1.228  0.0148  0.1721 -0.0998
21360W        W38207  12.002   2.114  12.195  0.2379 -0.1896  0.0893
21361W        W38208   4.181  15.292  16.099 -0.0545 -0.0182 -0.1152
21362W        W38209   6.018  11.005  16.386 -0.2701  0.1297  0.0641
21363W        W38210   3.844  15.530  13.611  0.0407 -0.2006  0.2585
21364W        W38211  17.617  17.870  15.804  0.0367 -0.2909 -0.0312
21365W        W38212   2.625  14.650  16.571  0.2994 -0.3061 -0.1567
21366W        W38213  17.570  15.636   2.031  0.1352  0.0420  0.0424
21367W        W38214  11.083  13.888  13.387  0.4476  0.0973  0.1542
21368W        W38215   3.166   7.652   3.301 -0.2041 -0.0172 -0.0976
21369W        W38216   7.158   0.690   5.469  0.1014 -0.2757  0.0816
21370W        W38217  14.390   3.230   3.036  0.0652  0.2288 -0.0370
21371W        W38218  17.723  11.425  13.234  0.1269 -0.3124  0.0007
21372W        W38219   9.499   5.807   3.389 -0.1592  0.2979  0.0843
21373W        W38220   7.748   6.407   1.056  0.1340  0.3615  0.2290
21374W        W38221   6.440  17.336  14.124  0.1870  0.1142 -0.5184
21375W        W38222  18.073   6.673  16.557 -0.0773  0.4003  0.0201
21376W        W38223  14.272  12.203   0.352 -0.1195 -0.0715  0.0416
21377W        W38224  13.289  17.401   5.095  0.0749  0.0244  0.0968
21378W        W38225  12.525  14.214   0.439  0.0042 -0.0386  0.0029
21379W        W38226   4.340  11.100   3.146  0.1148  0.0040 -0.1042
21380W        W38227  16.803  10.709   3.978  0.1134  0.3282 -0.1678
21381W        W38228  11.813   7.601   1.318 -0.2366  0.1655  0.1360
21382W        W38229  15.599   8.107   5.597 -0.0215  0.1364 -0.2550
21383W        W38230  17.647  17.368   5.857  0.1369  0.1529 -0.1644
21384W        W38231   4.306   2.703  11.795  0.1941  0.0917  0.0517
21385W        W38232   5.437   1.176  15.443 -0.0359  0.0431  0.1493
21386W        W38233  13.695   8.825  11.793  0.0435 -0.0464  0.1302
21387W        W38234   1.240   0.566   4.555  0.2534 -0.2164  0.1108
21388W        W38235  11.014   3.227   2.991  0.3964  0.2204  0.1946
21389W        W38236   7.809   8.948  11.241  0.2092 -0.3400  0.2906
21390W        W38237  16.688   7.945   2.634  0.2482 -0.0240  0.0188
21391W        W38238  12.342   2.539  15.659 -0.0673 -0.1852 -0.0577
21392W        W38239  10.219  14.278  11.279 -0.1649 -0.2793  0.0142
21393W        W38240   0.147   9.447  12.183 -0.1444  0.2580  0.1029
21394W        W38241  16.196   1.081   1.959  0.1394 -0.1727 -0.3397
21395W        W38242  10.050   1.069  14.405 -0.3019  0.1562 -0.1310
21396W        W38243   7.648   4.039  13.547  0.0512 -0.3329  0.0295
21397W        W38244   2.124   6.806  13.959 -0.0716 -0.3031  0.1683
21398W        W38245  16.681  10.619   2.803  0.2279  0.1571  0.0477
21399W        W38246  12.561   9.713  16.326  0.1219 -0.1111  0.2769
21400W        W38247   7.433   9.062  15.790 -0.1196  0.2956 -0.0488
21401W        W38248   8.876   6.048   4.730 -0.0664  0.1605 -0.0194
21402W        W38249   0.916  10.923  16.518 -0.1742  0.3122  0.2495
21403W        W38250  10.001   7.375  15.642 -0.0710  0.0511 -0.1874
21404W        W38251  16.541  13.773   4.779 -0.0736 -0.0653 -0.1280
21405W        W38252  17.350   1.106   3.413 -0.0355 -0.1322  0.1342
21406W        W38253   5.138   2.394  13.586  0.2762  0.1117  0.2398
21407W        W38254  17.398  10.464   3.493  0.2967  0.1024 -0.1027
21408W        W38255   6.080   3.408  12.113 -0.0047 -0.0187 -0.0629
21409W        W38256   7.084  16.938  15.675 -0.1117  0.0858  0.1284
21410W        W38257  10.083   7.562  16.581  0.3586 -0.1809  0.0839
21411W        W38258   6.837  13.325   6.431 -0.2232 -0.0844 -0.1812
21412W        W38259   9.731   3.118  11.813  0.1002 -0.1881 -0.1121
21413W        W38260   1.763   9.476  12.554 -0.0851  0.5004  0.1981
21414W        W38261  13.111  13.879  12.949 -0.0970 -0.1107  0.2178
21415W        W38262  12.987  13.069   3.999 -0.0818 -0.0475 -0.0690
21416W        W38263   2.427  14.549   2.837 -0.0515 -0.1385 -0.3152
21417W        W38264  11.563   6.361   1.268 -0.1337  0.0151 -0.0236
21418W        W38265  10.702  14.182  16.185  0.3086 -0.0995 -0.1821
21419W        W38266   0.303   1.329  15.527 -0.1055  0.1280 -0.0829
21420W        W38267  13.323  11.808   3.855  0.1526  0.0379  0.0885
21421W        W38268   7.346  10.838  13.507 -0.2092  0.2512  0.3720
21422W        W38269   1.628   2.673   5.304 -0.1770  0.0805  0.0161
21423W        W38270   7.906  13.444   0.979  0.1423  0.0241  0.1332
21424W        W38271   7.763  17.711  15.216  0.1120  0.0188  0.0553
21425W        W38272   3.507  14.192   0.313  0.4227  0.2959 -0.1079
21426W        W38273   4.372   7.891   5.304 -0.1984  0.2178 -0.0038
21427W        W38274   8.923   2.105   2.172  0.1562  0.1295  0.0351
21428W        W38275   3.967  15.917  12.909  0.0652  0.3280 -0.1079
21429W        W38276  11.242  16.982  13.815 -0.1028 -0.0773 -0.1666
21430W        W38277   6.381  18.055  12.424 -0.2686  0.0878  0.1334
21431W        W38278   6.833   5.385   0.432 -0.1015  0.1630  0.1375
21432W        W38279  13.046  15.111  14.110 -0.1915  0.1353  0.3471
21433W        W38280  14.192   7.913   2.109 -0.1432 -0.2500 -0.1317
21434W        W38281   4.193   9.412   2.231 -0.3068 -0.0478  0.0827
21435W        W38282  15.891   2.169  15.714  0.1044  0.1946  0.2812
21436W        W38283   3.523   7.434   4.537 -0.0451 -0.0042  0.3569
21437W        W38284   2.916   6.048   3.259  0.0062 -0.3644 -0.0168
21438W        W38285  16.649   0.705   1.680 -0.2197  0.6367  0.0301
21439W        W38286  16.630   9.988  15.155 -0.0677 -0.1741  0.0930
21440W        W38287  15.035  11.208  14.480  0.2279  0.0339 -0.0954
21441W        W38288   5.488   2.676   2.443 -0.1999  0.0031 -0.2021
21442W        W38289   8.700   4.132  10.412  0.0288 -0.0334  0.0092
21443W        W38290  11.279   9.337  16.469 -0.0205 -0.1214  0.1579
21444W        W38291   4.122  12.880  10.978 -0.0936 -0.0697 -0.2224
21445W        W38292   0.986   3.517  16.295 -0.1373  0.1640  0.3001
21446W        W38293  12.779   6.326  11.882  0.0946  0.0471 -0.0509
21447W        W38294  17.696   4.663  15.993  0.1442  0.3671 -0.1470
21448W        W38295  10.685  15.992   1.767 -0.1191 -0.1093 -0.0161
21449W        W38296  14.845  13.251  16.081  0.1712  0.0354 -0.0177
21450W        W38297   4.472   4.289  16.153 -0.0113 -0.5206  0.0909
21451W        W38298  12.363  10.573   4.558  0.0535  0.1686 -0.0139
21452W        W38299   9.271   7.671   1.286  0.2582  0.1241 -0.1536
21453W        W38300   0.012   8.784   3.398 -0.0776 -0.0763  0.2733
21454W        W38301  12.257   8.194   4.592  0.0919  0.1832 -0.1510
21455W        W38302   6.725   1.527  13.148 -0.2330  0.2316 -0.2503
21456W        W38303   1.548  13.796  14.343  0.0068  0.2841  0.4235
21457W        W38304   3.668   0.703  15.412  0.1919 -0.2760  0.0502
21458W        W38305   5.983  12.322   0.819 -0.3724 -0.0749 -0.0072
21459W        W38306   2.842   1.071   0.314 -0.2529 -0.2004 -0.4017
21460W        W38307  12.142   7.914  14.580 -0.0208  0.4781 -0.0325
21461W        W38308  16.065  13.740   3.956  0.0506 -0.1733 -0.1588
21462W        W38309   0.554   1.365  13.699  0.0435 -0.0159 -0.2167
21463W        W38310  16.282  17.198  15.944 -0.0967  0.2337  0.1929
21464W        W38311   0.849   6.812   3.088 -0.0231 -0.2415 -0.1370
21465W        W38312   9.109   3.582   1.563  0.1380 -0.0286  0.1060
21466W        W38313   0.907  16.656   5.635 -0.0732 -0.1445 -0.1074
21467W        W38314  16.150   5.074   6.041  0.1153  0.1593 -0.0907
21468W        W38315  11.305  14.239   5.215 -0.0398  0.1908  0.4089
21469W        W38316   6.199  12.944   2.211 -0.4531  0.3385  0.1628
21470W        W38317   7.487  15.283   0.933 -0.0474  0.0167 -0.2464
21471W        W38318  17.069  14.142  12.474 -0.1390 -0.0414 -0.1987
21472W        W38319   0.785   0.265  14.542  0.1036 -0.0031 -0.0330
21473W        W38320   7.797  11.931   1.786  0.0608  0.0857 -0.0253
21474W        W38321  14.830   8.540  15.600 -0.1331 -0.0304  0.1770
21475W        W38322  14.383   3.223   1.317  0.1456  0.1479 -0.1763
21476W        W38323  17.537   1.345   1.925  0.0996  0.3421  0.0593
21477W        W38324  13.654  13.504  12.244 -0.1465  0.2237  0.3427
21478W        W38325   7.185   3.857   3.429  0.1239 -0.0764  0.2412
21479W        W38326  16.935  10.256   3.066 -0.0197 -0.3083  0.3035
21480W        W38327  10.393  11.378  15.676  0.2520 -0.0102 -0.1147
21481W        W38328   0.263   5.128  15.641  0.0494  0.0481 -0.3324
21482W        W38329  13.479  12.644   5.114  0.1260  0.4131 -0.0165
21483W        W38330  17.605   5.511  11.564  0.1153 -0.1171  0.0680
21484W        W38331  15.577  18.146   5.066  0.1585 -0.0978  0.0615
21485W        W38332   1.794  10.633   3.963 -0.0302 -0.2264 -0.1293
21486W        W38333  12.935   2.703   4.093  0.1022 -0.0682  0.0781
21487W        W38334  17.057   6.380  12.544 -0.0435 -0.2785  0.1191
21488W        W38335   8.831   7.632   0.019 -0.1198 -0.2441  0.0106
21489W        W38336   9.633   7.316   5.630 -0.0030  0.0813 -0.2049
21490W        W38337   5.237   2.013   0.532 -0.0672 -0.0284  0.3701
21491W        W38338  16.261  13.233  11.695  0.1652 -0.1154 -0.1449
21492W        W38339  13.008   4.095  13.399  0.0286  0.2000  0.0729
21493W        W38340  13.897  18.097  13.966 -0.0324  0.0173  0.0964
21494W        W38341  14.285  16.492   0.892 -0.1211 -0.0219  0.1945
21495W        W38342   9.543  12.173   4.257 -0.1462  0.0138  0.1773
21496W        W38343   1.323  17.289  11.668  0.0306  0.1175  0.3679
21497W        W38344  10.231   4.179  11.252  0.0263  0.0761  0.0344
21498W        W38345  12.475  17.698   0.099  0.0640 -0.1736 -0.1207
21499W        W38346   7.884  12.051   5.393 -0.1247  0.1050 -0.0675
21500W        W38347  10.119   7.219   2.181 -0.1134  0.0581  0.3436
21501W        W38348  17.346  10.610  11.563 -0.1282 -0.0508  0.1947
21502W        W38349  10.185   2.634  15.289  0.0673  0.1431 -0.0311
21503W        W38350   1.521  11.612   1.906 -0.4812 -0.3103  0.0667
21504W        W38351   7.644   0.110   1.124  0.1173 -0.0145 -0.0914
21505W        W38352  12.125   9.066  15.709  0.1512  0.1052 -0.3352
21506W        W38353   8.720  11.163   2.576  0.0582 -0.0400  0.0547
21507W        W38354   6.981  15.129   3.973 -0.0309 -0.0730  0.0169
21508W        W38355  16.581   7.307   1.550  0.2655  0.1093  0.0427
21509W        W38356   9.893   8.004  14.921 -0.1426 -0.0081  0.2902
21510W        W38357  17.825   4.806  13.197 -0.0796  0.3301  0.1759
21511W        W38358   4.918   9.913  11.467  0.0510 -0.1587  0.0511
21512W        W38359   3.101   7.469  16.492 -0.1580  0.0635  0.1757
21513W        W38360  14.902   2.938   0.567  0.0016 -0.4017  0.0583
21514W        W38361   3.847  12.475  14.198 -0.3226  0.0821 -0.0168
21515W        W38362   3.988   5.744  15.088 -0.1249  0.1565  0.0024
21516W        W38363   8.454   2.734   0.918  0.0843 -0.2550 -0.2972
21517W        W38364   3.820   1.749  15.783  0.0755 -0.2791 -0.1101
21518W        W38365   5.228   0.897   5.303  0.1847 -0.5413  0.1796
21519W        W38366  12.075   3.015  14.012  0.0868  0.0246  0.4003
21520W        W38367  11.573   1.545   4.178 -0.0510  0.0401 -0.1156
21521W        W38368   5.118   7.464  15.527  0.3530  0.1007  0.1266
21522W        W38369   6.842   8.087   2.761 -0.3380 -0.0448  0.0122
21523W        W38370  12.329   9.011   1.599 -0.1116  0.0698  0.0797
21524W        W38371   1.399  15.603   3.467 -0.4481  0.1587 -0.0485
21525W        W38372  10.677  15.568   0.938  0.0588 -0.5156 -0.2846
21526W        W38373  10.416   6.964   1.239  0.2069 -0.0469 -0.0308
21527W        W38374   5.733   4.362  12.013 -0.0898 -0.0760 -0.1436
21528W        W38375   1.342   9.069   5.577  0.0111 -0.0310 -0.2993
21529W        W38376   8.767   2.726  12.731 -0.2055 -0.0550 -0.0351
21530W        W38377   9.819   4.930  14.653 -0.2184  0.2764  0.0371
21531W        W38378   9.898   7.803   2.897 -0.0997 -0.1017  0.1952
21532W        W38379   6.157  16.324   2.349 -0.0220 -0.0941 -0.0012
21533W        W38380   5.988   1.651  14.142 -0.0084 -0.3455 -0.0719
21534W        W38381  14.227   0.648  11.462  0.2795  0.2132  0.0860
21535W        W38382   5.448   2.623   2.944  0.2087  0.3363 -0.1977
21536W        W38383  11.567   9.022  12.089 -0.0098 -0.0723  0.2294
21537W        W38384   7.518   4.515   1.174  0.0564 -0.0208 -0.0961
21538W        W38385   1.978   0.160  13.587  0.2280 -0.0851  0.2328
21539W        W38386  15.098  12.596  11.684 -0.0651 -0.0690  0.0500
21540W        W38387   6.221   2.049   2.482  0.1827  0.0663  0.2482
21541W        W38388  11.540  15.766   0.318  0.1108  0.2164  0.0107
21542W        W38389  10.363   7.901  14.190 -0.1423 -0.3563 -0.0171
21543W        W38390   9.595  15.233   3.926 -0.1278  0.1554 -0.1989
21544W        W38391   7.267  17.422  13.929 -0.1749  0.0908  0.0700
21545W        W38392   7.686  15.935  12.326  0.0378 -0.0983 -0.1838
21546W        W38393  14.055   7.793   3.219 -0.0516  0.0971  0.1810
21547W        W38394  17.417   4.919   2.839  0.1298  0.2510  0.0641
21548W        W38395  10.388  15.075  12.911  0.0193 -0.2355 -0.0322
21549W        W38396   7.490  11.644  15.688  0.2105  0.0551 -0.0317
21550W        W38397   1.943  11.644   1.179 -0.1024  0.0346 -0.0076
21551W        W38398   3.092   5.662   2.109 -0.0662 -0.1390 -0.0800
21552W        W38399  17.193   7.348  13.195  0.2163  0.1033 -0.3112
21553W        W38400  12.612  17.085   1.245 -0.1214  0.1528  0.1827
21554W        W38401  13.465  17.715  15.083 -0.5066  0.0985 -0.2266
21555W        W38402  14.997   3.785  13.051 -0.3499 -0.1352  0.2889
21556W        W38403  13.102   3.909  11.330 -0.2763 -0.0295  0.2228
21557W        W38404  14.761  15.929   3.382 -0.0034 -0.0437 -0.3943
21558W        W38405  16.090   9.281  13.082 -0.0417 -0.0523  0.2006
21559W        W38406   9.826   6.214   3.608  0.0522  0.4133 -0.0544
21560W        W38407  13.740   1.783   0.516  0.1561  0.1811 -0.2134
21561W        W38408  14.673   7.805   4.305  0.1430  0.0308  0.0498
21562W        W38409  16.057  14.983   3.421  0.0638 -0.0227 -0.0776
21563W        W38410   8.080  15.616   6.356 -0.1240  0.0394  0.1151
21564W        W38411   7.416   6.280  13.463 -0.0027  0.1313  0.0307
21565W        W38412   2.441  13.693  13.361 -0.1123 -0.1338  0.1498
21566W        W38413   8.617  16.085  15.097 -0.0153 -0.1473 -0.0192
21567W        W38414  16.306   2.523  14.299  0.1289 -0.3915  0.2672
21568W        W38415   5.486   5.498  12.925  0.1374  0.2429  0.2409
21569W        W38416   7.402  16.142  13.319 -0.2859 -0.0872  0.1926
21570W        W38417   9.625  13.617   1.978  0.1862 -0.1834 -0.3434
21571W        W38418   2.016   6.218  13.134 -0.0205 -0.0239  0.3620
21572W        W38419   5.639  16.662   0.532  0.0056 -0.2211 -0.0106
21573W        W38420   8.726   1.678   1.213  0.1470 -0.0997 -0.0825
21574W        W38421  17.236   7.277   5.629 -0.0890  0.1089  0.0366
21575W        W38422   3.619   9.953   4.298 -0.0109 -0.0514 -0.1872
21576W        W38423  11.461   6.546  12.534  0.0923 -0.0266 -0.3932
21577W        W38424   9.949  11.884  13.467 -0.0356  0.1772  0.2095
21578W        W38425  12.130  14.236  15.761  0.1253 -0.3284 -0.4264
21579W        W38426   5.268   6.634  16.567  0.2006  0.3376 -0.4031
21580W        W38427   4.682  10.751   5.114 -0.3715  0.3663 -0.0718
21581W        W38428   7.548   4.777  15.123  0.1909  0.1788 -0.2853
21582W        W38429  10.712   9.688   4.052  0.5626  0.0479 -0.0494
21583W        W38430   2.296  12.617  12.215 -0.0670 -0.2269 -0.3115
21584W        W38431   7.639   6.025   2.869 -0.0757 -0.2683  0.2892
21585W        W38432  15.246  13.697  16.270 -0.1887 -0.3115 -0.0711
21586W        W38433   7.770  17.631   1.779  0.1494  0.1175 -0.3395
21587W        W38434  17.989   0.200  12.425 -0.1017  0.0788 -0.1587
21588W        W38435   1.793   9.779   1.067 -0.2446 -0.3484 -0.0718
21589W        W38436   4.010  11.458   4.957 -0.0455 -0.0715 -0.1518
21590W        W38437  11.354   4.701   3.426  0.1032 -0.1035  0.0760
21591W        W38438   1.638   2.354  14.291  0.0783  0.1808  0.1407
21592W        W38439   2.935   8.045   1.950  0.1918  0.1698  0.0322
21593W        W38440  17.668  13.298   2.030  0.0501 -0.3886 -0.0441
21594W        W38441   5.001  14.651   0.297  0.0414 -0.1174 -0.3907
21595W        W38442  13.034  15.498   5.293  0.1332  0.1417 -0.1981
21596W        W38443  16.202   3.499   2.124 -0.1533 -0.1956 -0.2915
21597W        W38444  12.915   0.087  11.904  0.0506  0.1926 -0.1621
21598W        W38445   4.233  10.468  15.035 -0.0682  0.0938  0.0917
21599W        W38446  13.913  13.994   3.440  0.0862 -0.1167  0.1759
21600W        W38447   3.538   1.918  13.571 -0.1475  0.2811 -0.0218
21601W        W38448  13.328   3.704   2.371  0.0834  0.2688  0.4404
21602W        W38449   4.449   5.046  11.768 -0.1214 -0.0723  0.0811
21603W        W38450   0.707   1.794  13.395  0.1090  0.4707  0.0369
21604W        W38451   0.313  17.127  16.060 -0.0362  0.2039 -0.1935
21605W        W38452   9.380   7.494  16.624  0.0708 -0.1982 -0.2399
21606W        W38453  12.752   0.434   0.049 -0.0845 -0.1810  0.3520
21607W        W38454   7.722   5.681   3.559  0.3154  0.2955  0.2266
21608W        W38455  15.754   3.024   3.250 -0.1374  0.1572  0.0540
21609W        W38456  17.194   3.302  12.970 -0.1771  0.0090 -0.3285
21610W        W38457  15.685  12.352   3.947  0.0657  0.2409  0.0957
21611W        W38458  15.968   1.678   0.610 -0.2104 -0.0138 -0.1712
21612W        W38459   9.174  10.028   4.463 -0.1727  0.1691  0.0202
21613W        W38460   7.875   9.091   0.266  0.2421 -0.2030 -0.1507
21614W        W38461  15.573   6.084   5.144 -0.1624 -0.1212 -0.3026
21615W        W38462  14.513   4.072  13.713 -0.1042 -0.2419  0.0042
21616W        W38463   8.163   2.558  14.781 -0.1752 -0.0380  0.0884
21617W        W38464   9.901  11.163   2.792 -0.5025  0.1604  0.2906
21618W        W38465   1.069   6.056  12.005  0.1310  0.4029  0.0532
21619W        W38466   5.731  13.466  12.158  0.0448  0.1178 -0.1838
21620W        W38467   1.260   7.677   2.020 -0.2768  0.1207  0.1382
21621W        W38468   0.007  12.966  12.670  0.2112 -0.2395 -0.0091
21622W        W38469   5.710   5.063  12.833 -0.1050  0.1750  0.1372
21623W        W38470  17.955   0.166  16.397 -0.1916  0.1106 -0.2159
21624W        W38471  11.197  15.143  13.886 -0.4065  0.2976  0.0226
21625W        W38472  13.528  12.217  15.429 -0.1697 -0.1526  0.0781
21626W        W38473  17.634   2.394   3.513  0.1688  0.0290  0.1250
21627W        W38474   8.936   1.238   1.179  0.2621 -0.0787  0.1936
21628W        W38475  17.525  17.954   0.017  0.1195  0.1215 -0.0529
21629W        W38476   4.371   2.401   4.921 -0.1334 -0.4341 -0.0071
21630W        W38477   9.962   4.993  16.432 -0.2049 -0.0788 -0.0454
21631W        W38478   1.815  14.897  12.143 -0.1726  0.0344  0.0937
21632W        W38479   9.973  18.082   4.030  0.0385  0.0305 -0.2512
21633W        W38480   4.539   7.410   3.305  0.1636  0.1010 -0.0288
21634W        W38481   1.606  12.634  16.540 -0.4373 -0.4422  0.1294
21635W        W38482   6.731  16.216   1.340 -0.0632 -0.3213 -0.1746
21636W        W38483   6.453   0.893  16.307 -0.1471 -0.0418 -0.1733
21637W        W38484   5.298  16.310   4.567 -0.0066 -0.1233 -0.2841
21638W        W38485  15.917  17.597  13.807  0.4153 -0.2685 -0.3292
21639W        W38486   3.830   5.345  12.401  0.1621 -0.1492 -0.0613
21640W        W38487  16.390  17.160  11.494 -0.1081 -0.3741 -0.1248
21641W        W38488   3.485  17.144  15.269  0.0377 -0.0933  0.0888
21642W        W38489  14.187  17.422  14.662  0.1428 -0.0539 -0.1902
21643W        W38490   2.932  11.077  13.050 -0.1620  0.0806  0.0254
21644W        W38491   4.514   5.849  15.934 -0.1960 -0.1303 -0.0689
21645W        W38492   8.613  16.828   0.145  0.2925 -0.0245  0.2186
21646W        W38493   9.948  14.671  13.549 -0.4445  0.2842 -0.3368
21647W        W38494   4.070  17.209   2.098  0.3329  0.1867  0.3309
21648W        W38495   9.118   6.800   0.630 -0.0548 -0.1040  0.4212
21649W        W38496   8.353  15.078  13.482  0.1131  0.2428 -0.0588
21650W        W38497  15.487   3.510   0.211 -0.0040  0.1436  0.1413
21651W        W38498   2.917   2.503  15.002  0.2516 -0.1876 -0.1763
21652W        W38499   0.273   5.274   4.905  0.3948 -0.0768 -0.0300
21653W        W38500   7.516   9.773  11.379  0.0112  0.0288 -0.0227
21654W        W38501   7.978   3.979   3.521  0.0089  0.2169  0.0720
21655W        W38502   4.459  10.559  13.628  0.0102 -0.2955  0.0924
21656W        W38503   1.035   3.462   5.442 -0.1761 -0.0197 -0.2389
21657W        W38504  11.134  10.084   1.063  0.3135  0.2078  0.1490
21658W        W38505   6.261  16.505   3.486  0.3635 -0.4048  0.0498
21659W        W38506   1.409  17.008   0.104  0.3788 -0.0796 -0.2863
21660W        W38507   7.432   6.866   4.166  0.0357 -0.0238 -0.2334
21661W        W38508   5.347   3.893  15.726 -0.0750  0.4256 -0.0138
21662W        W38509   6.693   0.318   4.380 -0.0759 -0.3362 -0.2090
21663W        W38510   4.767  17.482  11.503  0.1802 -0.0405  0.0609
21664W        W38511   6.931  14.642  12.480  0.1569  0.0211  0.2786
21665W        W38512   3.465  12.288   3.338  0.3665  0.1336  0.2826
21666W        W38513   1.533   3.698  14.067 -0.3404 -0.1096  0.0276
21667W        W38514  10.177  14.116   3.171 -0.1291  0.3285  0.0723
21668W        W38515   1.383   7.082   3.732  0.1758 -0.0458 -0.0551
21669W        W38516  11.615   9.145   5.863 -0.1030  0.1943  0.0084
21670W        W38517  11.260   4.672   0.330  0.1471 -0.2614 -0.0584
21671W        W38518   6.682  13.316   2.182  0.1642 -0.0229  0.1660
21672W        W38519   7.400  14.018   4.527 -0.0554  0.0391 -0.1167
21673W        W38520   3.765  14.231   4.675  0.3864  0.0219  0.0509
21674W        W38521  12.957  16.062  13.452  0.0459 -0.0849 -0.1429
21675W        W38522  16.572   5.271   4.277  0.1905 -0.0419 -0.1274
21676W        W38523  16.679   8.351  15.499 -0.0823 -0.0976  0.1662
21677W        W38524   1.039  12.942   2.614  0.0215 -0.0958  0.0790
21678W        W38525   2.368  13.090   2.046 -0.0228  0.1232  0.3928
21679W        W38526   9.856   7.657   3.884  0.0580  0.1649  0.0980
21680W        W38527   4.066  10.220   1.672 -0.1627  0.1873  0.0578
21681W        W38528   0.581   8.465  11.883 -0.0079 -0.2658 -0.0664
21682W        W38529  10.559  15.741   3.600  0.2081 -0.2578 -0.4448
21683W        W38530   9.822  12.672   0.981  0.0759 -0.1232 -0.0478
21684W        W38531   1.163  11.177  13.329  0.3128  0.3192  0.0528
21685W        W38532  11.822   0.872  14.044 -0.0956 -0.1226 -0.0462
21686W        W38533   2.805   5.997   2.736  0.1488 -0.0246 -0.0559
21687W        W38534   4.138   7.648   0.379  0.2888 -0.0437  0.1012
21688W        W38535   3.139  12.760   5.910  0.0113 -0.1625  0.0915
21689W        W38536   9.193  15.657   3.157 -0.0053 -0.0481  0.0155
21690W        W38537   1.937  16.879  12.201  0.1933 -0.1409  0.0937
21691W        W38538   2.321  15.512  15.316 -0.1856  0.1052 -0.0723
21692W        W38539  13.471  14.672   0.678  0.2522  0.0638 -0.1434
21693W        W38540  18.014   3.409   2.560 -0.3197 -0.0128 -0.1075
21694W        W38541  10.882  14.341  13.676 -0.2357 -0.1445 -0.1296
21695W        W38542   7.145   6.121   1.127 -0.0689 -0.1793 -0.0280
21696W        W38543  10.691  12.195  12.449 -0.0272 -0.3400 -0.2223
21697W        W38544  13.653  14.384  13.868 -0.1894 -0.0476  0.1221
21698W        W38545   5.380   5.306  16.563  0.1924 -0.2522  0.1583
21699W        W38546  12.045   7.225   0.113  0.0597  0.0727  0.0909
21700W        W38547  10.624  16.047  14.981 -0.1219 -0.2003 -0.0620
21701W        W38548   2.399   6.761   0.754 -0.2612 -0.0360  0.1276
21702W        W38549  16.892   7.747   1.794  0.0980 -0.3082  0.0963
21703W        W38550  16.281  11.108  12.954  0.0215  0.0743 -0.1693
21704W        W38551  12.165  12.717  16.288 -0.2567  0.0605  0.1901
21705W        W38552   2.913  18.069  12.671  0.1331 -0.2392  0.1350
21706W        W38553   5.059  12.084   0.116  0.1957  0.3387  0.1485
21707W        W38554   4.832   7.586  13.748 -0.1442 -0.0756 -0.0085
21708W        W38555   8.603  15.058   5.758  0.2307 -0.0455 -0.0137
21709W        W38556   8.728  12.026   0.202 -0.0510  0.0864 -0.3068
21710W        W38557   7.025  17.563   2.359 -0.0210 -0.0169 -0.2682
21711W        W38558  11.453  15.828  14.444  0.0301 -0.1902 -0.0729
21712W        W38559  17.461   7.668  11.680  0.0937  0.2129 -0.2551
21713W        W38560  10.731  17.126  14.959  0.4846 -0.1075 -0.0558
21714W        W38561  10.129  16.568  11.471  0.0599  0.1466 -0.2019
21715W        W38562   0.386   3.661   1.205  0.1196  0.3546 -0.2792
21716W        W38563  13.880  15.675  14.531  0.2236  0.0038 -0.3851
21717W        W38564  15.005  14.392  13.261 -0.0119  0.0786  0.1646
21718W        W38565   5.044  10.227   5.427 -0.1001  0.1007 -0.1409
21719W        W38566   3.607   7.544  14.033 -0.0196 -0.2302  0.1105
21720W        W38567   4.268   0.135  16.562  0.1094 -0.0394  0.2681
21721W        W38568   6.820  14.719   0.694  0.1353  0.0341 -0.0582
21722W        W38569  10.165   3.050  15.510  0.2419  0.0371  0.2872
21723W        W38570   5.894  14.968   4.952  0.0202  0.3110 -0.1290
21724W        W38571   9.303  16.441   1.791  0.0230 -0.1156  0.2706
21725W        W38572   4.740  14.613  11.241  0.2137 -0.4965 -0.4127
21726W        W38573  12.444  12.770   2.798  0.1032 -0.3948 -0.0547
21727W        W38574  12.057   3.255  15.222  0.0564  0.2270 -0.0516
21728W        W38575   9.769  16.215   2.027 -0.1648 -0.3450 -0.0449
21729W        W38576   6.442   0.937  15.805 -0.0596 -0.1922 -0.0753
21730W        W38577   8.599   8.811  13.204  0.1056  0.4273  0.1879
21731W        W38578  17.598  15.292  11.246  0.1733 -0.0823  0.1319
21732W        W38579  15.418  17.801   3.286  0.0881 -0.0090 -0.1854
21733W        W38580   1.565   6.177  16.108 -0.0192 -0.3856  0.1108
21734W        W38581  10.506   4.351  16.009  0.1862  0.2472  0.1418
21735W        W38582   6.934   3.398   3.261 -0.0726  0.0656 -0.5756
21736W        W38583   8.377   7.145   1.203  0.0678 -0.0560 -0.3610
21737W        W38584  15.207   7.770  15.263  0.5007 -0.3934 -0.0908
21738W        W38585  16.012   4.077  15.320  0.1387 -0.3591 -0.2718
21739W        W38586   8.287   4.153  11.241 -0.0676  0.2241 -0.1375
21740W        W38587   9.043   3.081   1.725 -0.0749 -0.0641 -0.0647
21741W        W38588   0.968  13.512  14.852 -0.0465 -0.2038  0.0829
21742W        W38589   9.004   6.067   3.834 -0.0418 -0.2521  0.0960
21743W        W38590   1.684   1.107  13.780  0.2776 -0.1914  0.1258
21744W        W38591  10.964   7.720   5.312  0.0412  0.2241 -0.0347
21745W        W38592  13.072  17.414  12.440 -0.0224  0.0194  0.0845
21746W        W38593   3.299   7.807   1.639  0.1891  0.0401  0.3032
21747W        W38594  10.650   1.643  14.388  0.4575  0.2356 -0.1263
21748W        W38595   3.881  11.690  13.813  0.2730  0.0270 -0.1208
21749W        W38596  15.692  16.072  16.286  0.0863 -0.1879  0.1415
21750W        W38597   1.597   2.197  11.164 -0.3660 -0.0010 -0.2038
21751W        W38598   9.440  11.635   2.432 -0.2473 -0.0888 -0.2904
21752W        W38599   6.948  11.415   1.932 -0.0126  0.2653 -0.1669
21753W        W38600   7.178   0.422   4.973  0.1201 -0.0474  0.0714
21754W        W38601   5.334  11.719   0.378 -0.2356 -0.1623  0.2877
21755W        W38602   9.881   5.836   0.532  0.1401 -0.3147 -0.0629
21756W        W38603  17.101  18.020   1.439 -0.2737  0.0006 -0.0678
21757W        W38604  13.225  13.263   6.310  0.2634  0.3524  0.1865
21758W        W38605  11.760  15.300  13.672 -0.3240 -0.1898 -0.0868
21759W        W38606   6.477  15.320   1.881 -0.0483 -0.1585  0.1014
21760W        W38607  14.847  11.002   1.807 -0.1935  0.0794  0.2402
21761W        W38608  16.596  14.232  14.763  0.0874  0.0377 -0.2640
21762W        W38609  17.583   5.133   6.263 -0.4768  0.2771 -0.0411
21763W        W38610   4.668  14.341  15.979  0.0776  0.0295 -0.2139
21764W        W38611   1.039   9.461   5.206  0.4995 -0.0511  0.0584
21765W        W38612   1.023   5.927   3.793 -0.2989 -0.0578 -0.1545
21766W        W38613   8.564   7.332   2.816 -0.0919  0.1413 -0.1532
21767W        W38614   4.553   8.948   6.367  0.0922  0.2679 -0.0096
21768W        W38615   2.563   3.762  16.376  0.1064  0.3288 -0.0173
21769W        W38616  16.384  10.523   4.322  0.0885  0.0552 -0.1646
21770W        W38617   7.567  17.920  14.511 -0.0312  0.3855  0.1158
21771W        W38618  16.973   0.730   0.613 -0.1938  0.3029  0.0725
21772W        W38619   4.940  16.062  13.182 -0.3423  0.0636  0.0908
21773W        W38620  15.211   1.554   2.939  0.0403  0.1532 -0.1500
21774W        W38621   9.603   4.554  16.550 -0.0492  0.0021  0.2684
21775W        W38622  16.892   0.079   3.476 -0.0879  0.1953  0.2118
21776W        W38623  10.811   9.053   0.007  0.1106 -0.1031 -0.0968
21777W        W38624  13.738  12.333   5.447 -0.1548 -0.1781  0.2028
21778W        W38625   8.562  16.754   3.071 -0.1960  0.2914  0.0807
21779W        W38626   8.220   6.515  12.573 -0.1916  0.1579  0.2072
21780W        W38627  11.042   6.168  12.280 -0.0433  0.1539 -0.0235
21781W        W38628   6.419   2.954   0.902  0.1676  0.1947  0.0108
21782W        W38629  10.219   3.528   5.890 -0.0695  0.0660 -0.2080
21783W        W38630   4.777   4.185   1.307  0.0614 -0.3090 -0.0106
21784W        W38631  11.070   0.692   2.363  0.0693 -0.2950 -0.0013
21785W        W38632   9.070  12.916  13.086  0.1411  0.0648  0.0285
21786W        W38633   1.474  10.262  16.615  0.4870  0.0204  0.1367
21787W        W38634  15.808  14.579   3.031 -0.0873 -0.2184  0.0882
21788W        W38635  11.778  10.675   3.406  0.2810 -0.1698 -0.0712
21789W        W38636   1.859  10.973  14.011  0.0859  0.1982  0.0647
21790W        W38637   3.377  10.260   0.065  0.1526 -0.0544 -0.0271
21791W        W38638   7.380   4.141  14.418  0.0293  0.0057  0.1799
21792W        W38639  10.315   9.038  11.229  0.1104 -0.1891 -0.1052
21793W        W38640   8.369  16.039  15.647  0.1818 -0.1308  0.0528
21794W        W38641  17.812  13.764  15.163 -0.2446  0.0052  0.1363
21795W        W38642   5.611  10.001   0.024  0.1321  0.0259 -0.0047
21796W        W38643   7.136  17.363   1.050  0.1037 -0.0964 -0.0591
21797W        W38644   6.762   1.000   2.646  0.1562 -0.1861  0.1821
21798W        W38645   3.066   4.865  11.912 -0.0211 -0.0133 -0.0337
21799W        W38646   6.444   6.899  13.512 -0.0087  0.0546  0.1868
21800W        W38647  16.551   3.879   1.415  0.3000  0.1474  0.1932
21801W        W38648  12.991   5.462  15.580 -0.2723  0.1987  0.0210
21802W        W38649   5.541   3.284  12.922  0.3005 -0.1464  0.0922
21803W        W38650  17.091  13.468   1.241  0.0050  0.2082 -0.0475
21804W        W38651   9.502  14.686   1.057  0.0499 -0.0330 -0.0927
21805W        W38652   1.362   6.310  13.973 -0.1691  0.3432  0.1216
21806W        W38653   2.154   1.763  13.681  0.1978  0.2234  0.0360
21807W        W38654   8.881   4.125   0.406 -0.0952  0.2466 -0.2426
21808W        W38655  18.071   7.615  12.091 -0.2169 -0.2849  0.1728
21809W        W38656  14.941   2.532   5.209 -0.2280  0.1247  0.0396
21810W        W38657  12.647  10.614  13.419  0.1505  0.0501 -0.0254
21811W        W38658   5.957   9.516   1.883 -0.3474  0.1930  0.1780
21812W        W38659   9.765  10.821  16.499 -0.0661  0.1359 -0.1271
21813W        W38660   8.526   3.657  12.014 -0.0903 -0.2607  0.0225
21814W        W38661  13.349   4.229  15.086 -0.1067 -0.0424  0.0611
21815W        W38662  18.065  17.179   1.047 -0.0167 -0.1319  0.2429
21816W        W38663  10.892   7.374   0.837 -0.1057  0.2253  0.0809
21817W        W38664   0.900   1.276  15.093  0.2437  0.0325 -0.2295
21818W        W38665   2.611   4.894  13.905 -0.0005 -0.2020 -0.0989
21819W        W38666  12.045   3.503  13.077  0.0820 -0.1638  0.1636
21820W        W38667  13.414  12.949  13.879  0.0829  0.0815  0.2041
21821W        W38668   1.601  10.202  14.219 -0.0540 -0.1044 -0.1153
21822W        W38669   8.023  15.934  14.547 -0.0893  0.2806  0.3131
21823W        W38670   6.770   4.094   0.909 -0.1583 -0.1951 -0.0384
21824W        W38671   5.422  15.775  14.295 -0.1239  0.0129  0.3281
21825W        W38672   5.796   0.129   2.071 -0.0958  0.2513  0.3057
21826W        W38673   6.788  13.125   0.643  0.2537 -0.2102 -0.0893
21827W        W38674  12.389  12.191  15.616  0.0384 -0.4362  0.1208
21828W        W38675  11.764   7.797  13.265 -0.1116  0.0286  0.0361
21829W        W38676   9.835   3.109  16.545  0.2025  0.0550  0.2146
21830W        W38677   2.152   0.515   2.997  0.0991  0.0263  0.0144
21831W        W38678   1.940   9.754  11.850 -0.1018  0.0045 -0.4213
21832W        W38679   5.906   2.599  14.998 -0.0453  0.2838 -0.2191
21833W        W38680   4.362   7.763  15.064  0.1352  0.0983  0.0615
21834W        W38681  10.063   5.196   3.728 -0.1824  0.0997  0.0603
21835W        W38682   4.832  15.864   1.010 -0.1855 -0.1158 -0.2005
21836W        W38683   1.661   2.977  12.652 -0.0791  0.0776  0.1649
21837W        W38684   4.219  16.593   2.303  0.2953  0.1640  0.2801
21838W        W38685   3.222   4.438  16.483 -0.2318 -0.0457 -0.3429
21839W        W38686   9.023   0.076  11.628  0.2181 -0.2669 -0.0126
21840W        W38687   8.455   2.270   3.586 -0.2928 -0.1493 -0.0059
21841W        W38688  10.417   1.601  12.170 -0.0236  0.0613 -0.1941
21842W        W38689  12.204  11.240  11.674  0.0467  0.2911 -0.1202
21843W        W38690   0.314   3.558   1.696 -0.0466 -0.3870  0.4042
21844W        W38691  11.526  11.282   1.522 -0.1078  0.1767 -0.0144
21845W        W38692  17.052  15.841  16.345 -0.1439  0.0655  0.0630
21846W        W38693  15.572   8.696   3.777 -0.0921 -0.1918 -0.0640
21847W        W38694   1.064  16.445   5.163 -0.1649  0.2430  0.0175
21848W        W38695  17.398   1.160   1.503  0.0885  0.0156 -0.2271
21849W        W38696  10.895  14.123   4.529 -0.0861 -0.0204 -0.1545
21850W        W38697   2.357  11.943   1.268  0.2824 -0.0842  0.1019
21851W        W38698   8.880   6.706   4.057  0.0970 -0.4342 -0.0116
21852W        W38699  18.155  13.539  14.820 -0.0354  0.3812  0.2369
21853W        W38700  17.640  10.026  14.271 -0.3582  0.1143  0.1149
21854W        W38701   8.515  12.047   4.526  0.1192  0.2028  0.0673
21855W        W38702  11.490  15.946   2.311 -0.1546  0.0211  0.3787
21856W        W38703  14.218   6.413  12.970 -0.3189  0.2944  0.1556
21857W        W38704   0.330   1.654   2.841  0.2213  0.0678  0.0015
21858W        W38705   0.073   2.353  12.239  0.1483 -0.0127  0.0459
21859W        W38706   6.824  17.366   5.499 -0.6028 -0.0085  0.1807
21860W        W38707  11.179  17.015   1.573 -0.0930  0.2101 -0.2033
21861W        W38708  16.343  15.444  13.629  0.0575 -0.4760 -0.0173
21862W        W38709  15.262   1.705  12.584 -0.0712 -0.0565  0.1436
21863W        W38710  14.243  13.364   2.278 -0.3160  0.0188  0.2058
21864W        W38711   8.526   8.421   4.588  0.0623  0.0527 -0.2660
21865W        W38712  17.865   1.289   1.483 -0.1863  0.2899 -0.2733
21866W        W38713   0.837   5.130   0.929  0.2804  0.0581  0.0719
21867W        W38714   5.451  14.004   5.058  0.1238 -0.4255  0.0962
21868W        W38715  11.988  16.646   4.677  0.0606 -0.2150 -0.1675
21869W        W38716  14.412  15.611   5.454 -0.1453 -0.0947 -0.0731
21870W        W38717   5.978   9.513   3.804  0.0710  0.0705 -0.0827
21871W        W38718   6.470  13.884  11.770  0.2454  0.0005  0.1159
21872W        W38719   6.442  10.614  14.343 -0.2984 -0.0774  0.3159
21873W        W38720  13.630   2.908  11.393  0.0230  0.1304  0.2304
21874W        W38721  17.568   3.679   2.933  0.1581  0.1337 -0.0761
21875W        W38722   5.686  14.883   5.404  0.0157 -0.1226 -0.1500
21876W        W38723   7.100   4.273   1.340 -0.0674 -0.2760 -0.1964
21877W        W38724   7.015   2.419   4.388  0.0336  0.0950 -0.1662
21878W        W38725   2.884  16.200   0.846  0.3252 -0.2626 -0.0856
21879W        W38726   6.985   3.614  13.367  0.2047  0.1337  0.1365
21880W        W38727  14.428   0.244  16.160  0.0710  0.4504  0.0914
21881W        W38728  11.069   7.236   0.347 -0.2243  0.0776  0.0911
21882W        W38729  10.668   9.231   4.360  0.0162 -0.0175  0.2254
21883W        W38730  13.976  14.193   5.400  0.2284  0.0726 -0.1326
21884W        W38731  16.287  11.699   1.328 -0.0327 -0.0984  0.2762
21885W        W38732  16.285  14.601  14.734  0.0452 -0.0678  0.1075
21886W        W38733  17.885  13.325   5.690 -0.1165  0.1945 -0.0557
21887W        W38734   2.487   3.206  13.518  0.1345  0.0654  0.1060
21888W        W38735   4.906   6.991  16.344 -0.0248 -0.0661  0.0457
21889W        W38736  11.634  16.436  14.087  0.0895 -0.1513  0.1450
21890W        W38737  15.321   6.006  12.304 -0.3086  0.0151  0.1303
21891W        W38738  16.968  14.620  13.312 -0.3538 -0.2856  0.2368
21892W        W38739   7.983   5.894   3.182  0.0102  0.0107 -0.4760
21893W        W38740   9.007  16.698  15.645  0.1537 -0.0721 -0.0107
21894W        W38741  16.733   3.361  15.603  0.1449  0.2922  0.2390
21895W        W38742  13.775   3.175  14.606  0.2598 -0.0692  0.2421
21896W        W38743  13.907  16.426   1.299 -0.3826  0.2074 -0.1434
21897W        W38744  10.139   9.740  14.259  0.0388  0.0633  0.2653
21898W        W38745   7.576   6.329  11.889 -0.1726 -0.1769 -0.2862
21899W        W38746  13.643   6.812  15.854 -0.3807  0.1921  0.0215
21900W        W38747   5.319   3.935   3.674 -0.2290 -0.1098 -0.0797
21901W        W38748   3.102  14.957  12.618 -0.2363  0.1399  0.0166
21902W        W38749   5.898   3.208  14.337  0.0263 -0.2064  0.0672
21903W        W38750  11.191   8.637  15.828  0.1006  0.0156 -0.0104
21904W        W38751  16.288  16.778   0.185  0.1553  0.2711 -0.0588
21905W        W38752  18.061  16.990   2.110 -0.0152  0.3262  0.1152
21906W        W38753  18.138  13.258  13.072 -0.0607 -0.0881  0.0428
21907W        W38754  12.284   4.411  16.000 -0.0553  0.1605 -0.2195
21908W        W38755  11.469  14.107  14.361  0.1297  0.0735 -0.0188
21909W        W38756  15.907   0.554  14.189 -0.0378 -0.0548  0.1687
21910W        W38757   1.263  16.546  14.040  0.1323  0.1187 -0.2410
21911W        W38758   0.319  11.181   0.575  0.2390  0.0712 -0.1976
21912W        W38759  16.737  11.096  13.986  0.0313 -0.0640 -0.1823
21913W        W38760   6.624   8.350   5.430 -0.3245  0.1673 -0.0046
21914W        W38761   8.372   9.400  15.050  0.2397 -0.0314  0.0438
21915W        W38762  13.979   9.882  16.528 -0.0401  0.0391  0.2767
21916W        W38763   3.193   6.235  14.443  0.1549 -0.2097  0.0101
21917W        W38764   5.147  14.801   5.387  0.0057  0.1986 -0.0680
21918W        W38765  15.132  15.250   4.484  0.2012  0.0719  0.2139
21919W        W38766  16.947   9.435  13.180 -0.2141  0.0572  0.0517
21920W        W38767   1.148   1.393  13.532  0.1504  0.2616 -0.2952
21921W        W38768   6.065  15.069  13.969 -0.1339  0.1866 -0.0453
21922W        W38769   5.827  14.985   4.419  0.0853  0.0952  0.1736
21923W        W38770  14.971  17.191  13.444  0.1020  0.2870  0.0862
21924W        W38771   8.212  14.428  15.400  0.0259  0.2244  0.1535
21925W        W38772  14.351   1.014   4.740 -0.0184 -0.3215  0.3498
21926W        W38773  12.071  13.623  12.661  0.2164 -0.0543 -0.1168
21927W        W38774  14.287  10.126   2.145  0.2015  0.0830  0.1168
21928W        W38775   6.854   7.829  14.774  0.0037  0.0281 -0.1837
21929W        W38776  14.276   1.281   0.127 -0.0429  0.1609  0.2946
21930W        W38777   4.483   6.621  15.696 -0.0344  0.0057  0.2143
21931W        W38778   5.766  13.347  13.400 -0.3488  0.2878  0.0661
21932W        W38779  14.934  16.191   1.232  0.0997  0.1966 -0.0533
21933W        W38780  14.194   3.627   1.050  0.0819  0.0428 -0.1167
21934W        W38781   4.699  17.167  12.337  0.0442  0.1764 -0.1971
21935W        W38782   9.964  17.248   6.095 -0.0389 -0.0486  0.0951
21936W        W38783  12.446  15.740  15.630 -0.1891 -0.0827 -0.1612
21937W        W38784   7.446   0.898   4.276 -0.2016  0.0593  0.1338
21938W        W38785  18.037   3.428  15.711  0.1038  0.3918 -0.0550
21939W        W38786   4.583   8.503   4.045  0.0930 -0.1076 -0.0770
21940W        W38787  17.857   4.346   1.609 -0.2508  0.0071 -0.1590
21941W        W38788   6.006   7.388  15.672  0.1315  0.2799  0.3048
21942W        W38789  15.235   7.468  11.814 -0.4315  0.1145 -0.1317
21943W        W38790   8.181   9.575  14.587 -0.2326  0.0602  0.0034
21944W        W38791  13.890   0.666   5.780 -0.2323 -0.0314  0.1647
21945W        W38792   2.136   1.671   4.014 -0.0992 -0.0958 -0.0809
21946W        W38793  13.001  10.084   1.424  0.1787 -0.1712  0.1149
21947W        W38794  11.730  11.768   1.316 -0.1296  0.1505 -0.3735
21948W        W38795  17.111   3.455  15.294 -0.0067  0.4198 -0.1933
21949W        W38796   9.808   1.878   0.392  0.3909 -0.1489 -0.1550
21950W        W38797  11.734   1.548   0.208  0.1541 -0.4993 -0.1938
21951W        W38798   2.892   1.570   0.172 -0.3790  0.1583  0.0762
21952W        W38799  12.507   6.278   2.313  0.5528  0.1868  0.1629
21953W        W38800   7.354  15.860   3.044  0.1783  0.0455  0.0715
21954W        W38801  11.843   0.089   0.640  0.3249 -0.0059  0.3979
21955W        W38802  12.492  11.154   1.520  0.2457  0.0402  0.4097
21956W        W38803   8.401  14.293   4.706  0.1606  0.2072  0.3019
21957W        W38804   2.873  17.573   3.793 -0.2725 -0.2433 -0.1295
21958W        W38805   1.922  13.155  14.972  0.3128 -0.0827  0.2012
21959W        W38806  14.755   0.084  12.762  0.0011  0.1949 -0.0161
21960W        W38807  17.535   2.195   5.904 -0.1959  0.1045 -0.0224
21961W        W38808   4.878   2.901  14.256 -0.0766  0.0420 -0.0862
21962W        W38809  11.663   4.463   3.083  0.0267 -0.0403  0.2045
21963W        W38810   6.422   2.825   4.933  0.2575 -0.1077 -0.1545
21964W        W38811   1.043   9.396  14.971  0.0099  0.0407  0.3101
21965W        W38812  14.744   4.322   3.300  0.0128 -0.0449  0.0969
21966W        W38813   3.022  14.547  16.258 -0.1729  0.4482 -0.1473
21967W        W38814  11.088   6.336  16.147 -0.0778  0.0458 -0.0428
21968W        W38815   1.544   1.577  13.770  0.1853 -0.1512  0.2229
21969W        W38816  14.102  17.836   4.376  0.1842  0.0675 -0.0092
21970W        W38817  10.057  17.232   2.834 -0.1889  0.1066  0.0771
21971W        W38818   1.256   0.110  14.466 -0.1047 -0.3203 -0.2373
21972W        W38819  17.844  10.144  13.191  0.0777 -0.0777 -0.2355
21973W        W38820  14.889  17.902   0.630  0.2567  0.0575  0.1688
21974W        W38821   1.374   5.274   4.586  0.0614  0.0305 -0.0291
21975W        W38822   3.550   2.011   1.267  0.2741 -0.2743  0.1585
21976W        W38823   9.911  13.521   0.656  0.1097  0.1573  0.1448
21977W        W38824  13.580  18.163  11.765 -0.1136 -0.0741 -0.0496
21978W        W38825   6.402  12.253  16.201  0.1472 -0.0865 -0.1962
21979W        W38826   6.707  17.604  12.289 -0.1508 -0.0364 -0.4683
21980W        W38827   6.560   1.250   0.674  0.0289 -0.0329  0.1682
21981W        W38828   1.550   3.458   5.458 -0.1626 -0.0009 -0.1637
21982W        W38829   4.222   7.640  16.113 -0.2116  0.2873  0.0997
21983W        W38830   7.847   7.967   2.270  0.0425  0.0064 -0.2518
21984W        W38831   4.222  12.238  12.936  0.1176  0.0043 -0.2227
21985W        W38832   5.180   5.740   1.291 -0.1995  0.0656  0.3549
21986W        W38833   0.090   6.998  15.747 -0.1012  0.1952  0.2438
21987W        W38834   3.018   5.867  14.043  0.0573 -0.2391 -0.1596
21988W        W38835  13.291  13.046   5.303 -0.0164  0.0969  0.0055
21989W        W38836   0.052  14.933   1.477 -0.0421 -0.0887  0.0863
21990W        W38837   0.893   2.912   3.823 -0.1867 -0.0957  0.2722
21991W        W38838   8.559  13.302  12.893  0.3624  0.1320  0.1635
21992W        W38839   0.170   6.655   2.603  0.1854  0.4058  0.1741
21993W        W38840   0.236   2.603   5.861  0.1296  0.0876 -0.1590
21994W        W38841   3.794   9.355  14.062  0.2055  0.1000  0.2125
21995W        W38842   6.337   6.403   4.183  0.1016 -0.2393 -0.0726
21996W        W38843   2.179  12.334   1.617  0.0203  0.0090  0.0324
21997W        W38844  14.817  17.042   4.083 -0.1790  0.1258  0.0405
21998W        W38845  10.684   3.548  16.002  0.2162 -0.1315 -0.0807
21999W        W38846   0.936  17.419   5.004  0.3943  0.3262  0.1521
22000W        W38847   1.628   3.701   0.292  0.1732  0.1194 -0.0014
22001W        W38848   3.032  16.405   1.372 -0.4102 -0.1260  0.3470
22002W        W38849  12.775  14.627   1.187 -0.0767  0.0639 -0.0323
22003W        W38850   1.500  14.295  13.551 -0.0291  0.1421  0.2092
22004W        W38851   9.045   4.291  15.842  0.2576  0.2377 -0.1170
22005W        W38852  13.744   8.326  13.808  0.2982  0.0878 -0.1279
22006W        W38853  10.633  16.541   4.819  0.3289  0.0180 -0.0385
22007W        W38854  15.791   8.561   2.122 -0.0849 -0.1306 -0.2173
22008W        W38855   7.559   4.925  12.356 -0.0126  0.1163 -0.0269
22009W        W38856   1.171  13.624   4.914  0.1108  0.1971  0.0544
22010W        W38857  10.843  14.587  12.332  0.1068 -0.0734 -0.0403
22011W        W38858  13.775   7.177  16.205 -0.2150 -0.0852  0.0485
22012W        W38859  15.677   2.867   4.773 -0.1067  0.1396 -0.1244
22013W        W38860   2.436  11.078   1.852 -0.1685  0.1583  0.1260
22014W        W38861  12.951   1.455  12.305 -0.5630 -0.1490 -0.0632
22015W        W38862   2.627  13.387  12.977 -0.0924 -0.2136  0.1430
22016W        W38863   6.663  12.553  13.019 -0.0464  0.2271  0.1397
22017W        W38864   2.590  14.119   4.666 -0.0435  0.0477  0.2298
22018W        W38865  10.256  10.406  13.978 -0.0418 -0.1152  0.0583
22019W        W38866  16.458  14.469   2.692 -0.0215  0.1377 -0.0830
22020W        W38867   0.497   6.620  15.865 -0.0087 -0.0531  0.0522
22021W        W38868   4.146  10.993   2.269 -0.3049  0.2046  0.1933
22022W        W38869   6.206  10.305   6.075 -0.2578 -0.1755  0.3562
22023W        W38870   7.188  17.706  12.531 -0.0051  0.1668  0.0422
22024W        W38871   7.954   5.571  11.813 -0.0537 -0.2193  0.0286
22025W        W38872  14.335   3.013  13.144  0.0704 -0.2436  0.0160
22026W        W38873   0.201  16.669  15.862  0.2792  0.0551  0.1023
22027W        W38874  16.827   9.824   5.140  0.0735 -0.1536 -0.3688
22028W        W38875  17.320   7.141  16.133  0.0453  0.0822 -0.3406
22029W        W38876   2.167   5.744  13.994 -0.2372  0.2362  0.1637
22030W        W38877  13.916  13.969  13.433  0.1681 -0.0352  0.1058
22031W        W38878   3.451  16.573   1.719 -0.1814  0.1156 -0.0118
22032W        W38879   7.361   8.900  13.719  0.3013  0.1528  0.0493
22033W        W38880  16.619  11.334   5.291  0.4022 -0.0642  0.1466
22034W        W38881   4.511   0.255   3.709 -0.3632 -0.2531 -0.0044
22035W        W38882   2.917  13.772  13.221 -0.0275  0.0637 -0.3609
22036W        W38883  15.348   9.399   3.900 -0.1652  0.1560  0.2969
22037W        W38884  14.785   3.436   4.851 -0.1439 -0.0381 -0.0619
22038W        W38885   6.405   5.370   0.987  0.0508  0.0106 -0.2593
22039W        W38886   5.727   8.530  13.939 -0.0054  0.5156 -0.0796
22040W        W38887   1.006   5.026  16.482 -0.1243  0.2535 -0.1594
22041W        W38888  12.705   5.188   1.971 -0.1487  0.0514  0.0106
22042W        W38889   9.028   7.632   2.881  0.2655  0.2770  0.4235
22043W        W38890  13.252   9.932   3.668 -0.0301  0.3217  0.0579
22044W        W38891  13.153   6.660   2.770 -0.2489 -0.2873  0.0740
22045W        W38892  11.243   0.867   2.801 -0.2859  0.2196  0.3178
22046W        W38893   1.899  10.997  16.541 -0.0449 -0.3650 -0.2107
22047W        W38894  16.154  12.998   2.112 -0.0830  0.1508 -0.3518
22048W        W38895  14.137   3.082   6.552  0.2389  0.0003 -0.2538
22049W        W38896   9.639   5.414   1.425  0.0330  0.0846 -0.0818
22050W        W38897  13.550   4.241   0.861  0.0285  0.2489  0.0924
22051W        W38898  12.916  13.029  14.057 -0.1480 -0.0685  0.2320
22052W        W38899  16.272  10.450   2.538  0.1420 -0.2444 -0.0146
22053W        W38900  13.814  10.816  13.270 -0.2669  0.0245 -0.0640
22054W        W38901  14.120  11.718  12.259  0.0881  0.1006  0.1139
22055W        W38902  12.960  11.947   2.984 -0.2272  0.2547  0.1387
22056W        W38903  11.353  16.738  16.610  0.0901  0.4673  0.0237
22057W        W38904  14.282  14.000   3.015 -0.0681 -0.0017 -0.0680
22058W        W38905   0.562   8.851  16.155 -0.1124 -0.2293 -0.0119
22059W        W38906  17.443   3.425  12.088  0.1458  0.2379 -0.0058
22060W        W38907  14.505  15.002   1.606  0.1063 -0.3896 -0.1255
22061W        W38908   5.274   1.702   2.622  0.0131  0.1736 -0.1265
22062W        W38909  17.387   7.743   2.193  0.0558 -0.0431  0.1270
22063W        W38910   7.881   4.582   1.723 -0.0537 -0.0465 -0.1577
22064W        W38911   7.094  12.017  12.204  0.0598 -0.2589 -0.0313
22065W        W38912  10.462  11.161   4.032 -0.3028  0.1684  0.2774
22066W        W38913   9.279   4.594  12.153 -0.0004  0.0778  0.2748
22067W        W38914   5.828  13.034   5.174 -0.3164  0.1328  0.1553
22068W        W38915  12.503   6.877   1.542 -0.0048 -0.0371  0.1772
22069W        W38916  11.088  15.902   2.630 -0.1306 -0.1336  0.0844
22070W        W38917  16.465   2.678  16.562  0.0048  0.1408  0.0996
22071W        W38918  15.006   2.626   0.919  0.0122 -0.1486 -0.1274
22072W        W38919   2.610  14.592  15.295 -0.2686 -0.0567 -0.1536
22073W        W38920   7.692   6.043  15.984  0.0704 -0.2310 -0.0378
22074W        W38921  13.274  13.450  13.178  0.3806 -0.0621 -0.0778
22075W        W38922  14.558  10.372   1.756  0.2612 -0.0474 -0.4057
22076W        W38923   4.540  17.861   4.938  0.0545 -0.0839  0.1858
22077W        W38924   3.616   4.682  16.240 -0.0244  0.0667  0.2085
22078W        W38925   4.371  14.249   6.366  0.2303 -0.1945 -0.4189
22079W        W38926   2.922  13.893  11.933 -0.1720  0.1000  0.1579
22080W        W38927   1.605   6.358   1.922  0.2508  0.2384  0.0508
22081W        W38928  11.080   2.253  10.361  0.0868 -0.2467  0.0274
22082W        W38929  15.347  17.618  11.999 -0.0084  0.0844  0.1264
22083W        W38930  12.528   1.997   0.102  0.1116 -0.3130  0.2342
22084W        W38931   9.753   5.774   2.601 -0.0668 -0.2066 -0.0310
22085W        W38932   5.909  16.225  15.595 -0.0992 -0.0804 -0.3446
22086W        W38933  12.116  15.517   1.676 -0.0885  0.1112  0.1729
22087W        W38934  10.204  11.651   4.327 -0.0852 -0.3059 -0.1122
22088W        W38935  17.331  12.309  14.186  0.2580 -0.1378  0.1470
22089W        W38936  12.324  14.384   1.077  0.2385  0.0779  0.0353
22090W        W38937  14.775  14.873   4.371  0.1345 -0.2869  0.2667
22091W        W38938   2.533   3.468  14.954 -0.1970 -0.0723 -0.0015
22092W        W38939   4.225   8.900   2.405 -0.1082 -0.0381  0.2211
22093W        W38940   4.585  17.283  15.253  0.2542 -0.0320 -0.2111
22094W        W38941   1.890   2.738   4.779  0.0523 -0.1468 -0.0685
22095W        W38942  11.785   1.376   4.664 -0.2766  0.1454 -0.0879
22096W        W38943   7.784   7.767  14.119  0.1095  0.2204  0.0340
22097W        W38944   1.997   2.629   4.305  0.0740  0.1124 -0.0233
22098W        W38945  10.208  12.349  14.229 -0.0274 -0.0465 -0.0697
22099W        W38946   6.973  11.145  12.092  0.2010  0.0129 -0.0282
22100W        W38947   2.291  14.872  12.654  0.0262  0.1866  0.1590
22101W        W38948   8.545   5.969   3.596 -0.1508 -0.0339 -0.3656
22102W        W38949   7.978   2.618   1.165 -0.2535  0.2176 -0.1967
22103W        W38950  14.479  14.832  11.229 -0.0460  0.1843 -0.2580
22104W        W38951   1.254   8.095  15.106  0.4354  0.1413 -0.0066
22105W        W38952  13.017   2.509   0.015  0.0753 -0.3112  0.1085
22106W        W38953   0.773  16.092  12.291  0.2264  0.2572 -0.0348
22107W        W38954   2.566   2.384   0.821  0.0239  0.0482 -0.0889
22108W        W38955   0.555  14.175  14.319  0.0618 -0.0849  0.1177
22109W        W38956  12.197   8.514   3.028 -0.0957  0.2275 -0.3146
22110W        W38957   5.805  13.080   1.351 -0.0400  0.2036 -0.1375
22111W        W38958  10.623   9.633   5.857  0.2598  0.3190 -0.1250
22112W        W38959   5.231  16.847   0.770  0.1301 -0.0085  0.1533
22113W        W38960  14.236   8.423  13.032  0.0048 -0.1658  0.3889
22114W        W38961   3.933  17.545  15.362 -0.2322 -0.1228  0.2517
22115W        W38962   1.492   9.787  12.798 -0.0564 -0.2354  0.1667
22116W        W38963   1.753  10.576   4.997 -0.1346 -0.1229 -0.0110
22117W        W38964  17.025  17.665  16.536  0.0003 -0.1309  0.0614
22118W        W38965  17.108  14.941   2.675 -0.1630  0.0144  0.1311
22119W        W38966   3.899  14.054   0.039  0.1162  0.0951 -0.2194
22120W        W38967  15.533   2.406   4.509  0.1264 -0.1389 -0.1583
22121W        W38968   7.871   9.394  16.502 -0.1546  0.0919  0.4216
22122W        W38969  14.728  10.818  14.189  0.1082 -0.2103 -0.1513
22123W        W38970  16.167   0.147   2.912 -0.0807 -0.0468 -0.2260
22124W        W38971   4.296   2.705   1.830 -0.2914  0.1574 -0.0269
22125W        W38972  16.025  17.883   5.319 -0.0099 -0.0832  0.2389
22126W        W38973  14.252   4.470   0.385  0.0193 -0.2202  0.1789
22127W        W38974   9.843   5.734  15.269  0.1417 -0.0289  0.1715
22128W        W38975  10.098  14.488   4.713 -0.1416  0.1192  0.0704
22129W        W38976   4.875   1.650   3.359 -0.0417 -0.0173  0.0018
22130W        W38977   8.160  10.504  14.032 -0.1486 -0.1771  0.3037
22131W        W38978  10.414   6.559  15.018 -0.0841  0.2764  0.0299
22132W        W38979  14.132   3.668   1.543  0.0893 -0.3871  0.2897
22133W        W38980   6.154  14.359   2.441  0.0460  0.2425  0.0922
22134W        W38981  12.163  15.430   5.146 -0.1395 -0.1039  0.0552
22135W        W38982   8.819   5.530   2.972 -0.0950  0.0660  0.0325
22136W        W38983   4.789  10.124  13.942 -0.3440 -0.3976  0.1182
22137W        W38984   5.249   8.278  14.761 -0.0174 -0.0935  0.0667
22138W        W38985   2.845  11.700   2.257 -0.1348  0.0145  0.2512
22139W        W38986   6.521   1.991  15.527 -0.1801 -0.0967  0.2535
22140W        W38987  13.515   2.987  13.388 -0.1834  0.1701  0.1949
22141W        W38988   6.756  12.625  12.130 -0.0086  0.1013 -0.0503
22142W        W38989  11.012   5.577   4.426  0.0835 -0.4923 -0.0314
22143W        W38990  12.136  14.053   0.736  0.0053 -0.1186 -0.4110
22144W        W38991   9.873  10.543   1.734  0.1480 -0.2988 -0.2177
22145W        W38992  10.865  18.041   3.676  0.0118 -0.3256 -0.1133
22146W        W38993  13.836   6.146   4.797  0.0514 -0.1732  0.1743
22147W        W38994  14.165  16.295  14.716 -0.0856  0.0055  0.2376
22148W        W38995  11.167   6.978   2.961  0.1694 -0.0721  0.0557
22149W        W38996   7.604   9.656   0.535 -0.1283  0.0074  0.0185
22150W        W38997  13.779  10.298   2.313  0.0875 -0.1389  0.2726
22151W        W38998  11.559   3.525   4.316 -0.1612 -0.1910  0.1437
22152W        W38999   1.547   6.667   2.909 -0.0731  0.2850 -0.1787
22153W        W39000  10.275   8.669   0.997  0.0380 -0.0521  0.1152
22154W        W39001   8.604   7.270  14.337 -0.0834  0.2376  0.0140
22155W        W39002   5.701  11.024  14.552 -0.2127 -0.0553 -0.1427
22156W        W39003   1.313   8.883  14.836  0.0962  0.0658 -0.1928
22157W        W39004   5.498   3.726   4.161  0.1739  0.2115 -0.1549
22158W        W39005   2.781   8.085  12.762 -0.1278 -0.0093 -0.1866
22159W        W39006   5.737   6.313   0.698 -0.0627  0.0044  0.0868
22160W        W39007  13.745   1.682   4.252  0.0122 -0.3783 -0.1067
22161W        W39008   4.527   1.631   2.092  0.1397 -0.1719 -0.0755
22162W        W39009  17.681   7.727   5.545  0.0122  0.1432  0.1305
22163W        W39010  13.550   6.380  16.086 -0.1263  0.3619  0.2874
22164W        W39011   1.053   2.038  13.087  0.0360  0.0760 -0.4877
22165W        W39012  11.102  11.872   1.216 -0.0420  0.1784  0.0861
22166W        W39013   8.864   2.832  13.205  0.0232 -0.1686  0.4543
22167W        W39014  16.303   4.767   0.153  0.2504 -0.2678 -0.1625
22168W        W39015   0.025  15.259   4.756 -0.2526 -0.1256 -0.3967
22169W        W39016   2.115   9.406  16.267  0.3459 -0.0387  0.0648
22170W        W39017   5.552   7.249  12.536 -0.0249  0.3294  0.2313
22171W        W39018   6.596   9.113  14.378 -0.1560  0.1262  0.0804
22172W        W39019   0.206  14.958   1.965 -0.1953  0.0924  0.2919
22173W        W39020   2.674   7.303   0.108 -0.2514 -0.0260  0.2699
22174W        W39021  10.696   9.766  12.701 -0.0347  0.2877 -0.0014
22175W        W39022   6.699  12.126   2.792 -0.0940 -0.2141  0.1980
22176W        W39023  10.768  15.823  13.631 -0.1315 -0.2294 -0.1735
22177W        W39024   3.655   0.889   1.372 -0.0338  0.0413  0.0604
22178W        W39025  18.029   3.131  13.504 -0.2085  0.5322 -0.1588
22179W        W39026   4.130  14.834   5.165  0.1971  0.0183  0.1896
22180W        W39027  17.754   2.382  12.068 -0.2950  0.0866  0.2138
22181W        W39028  12.374   0.770  14.268  0.0246 -0.1917 -0.0793
22182W        W39029   8.498  18.007   3.883  0.3290 -0.2175  0.0293
22183W        W39030   9.278  13.318  16.050 -0.1178 -0.0192 -0.2144
22184W        W39031  11.894  17.421   4.216  0.1924  0.2445  0.0155
22185W        W39032   1.601   0.435   4.956 -0.2943  0.1097  0.0145
22186W        W39033   2.681  11.387   3.487 -0.1280  0.0160  0.4536
22187W        W39034   9.149   3.709  16.043 -0.2115  0.0637 -0.2234
22188W        W39035   1.324   1.551  14.954 -0.0982 -0.1028 -0.0191
22189W        W39036   7.634   5.415  11.327 -0.1656 -0.2723 -0.3524
22190W        W39037  11.610   5.519  16.407 -0.1150  0.3307 -0.1372
22191W        W39038   2.220  18.069   3.285 -0.3651  0.0507  0.0609
22192W        W39039  10.723   4.736  13.811 -0.2931 -0.1556  0.0595
22193W        W39040  14.639  17.820   4.461 -0.0456  0.0474  0.1706
22194W        W39041   8.845   1.198   1.888 -0.0788  0.0689 -0.0734
22195W        W39042   1.948   1.822  15.305 -0.0952 -0.2366 -0.1325
22196W        W39043   3.622   6.543   5.312 -0.3011 -0.1562  0.2030
22197W        W39044   4.479  14.816   3.643  0.1184  0.1399  0.3733
22198W        W39045   8.830  12.762  13.738  0.1510  0.1601  0.2186
22199W        W39046  12.843   7.397   0.074  0.2689  0.2161 -0.3608
22200W        W39047   9.313   3.458   0.617 -0.0245 -0.0007 -0.0322
22201W        W39048   6.606  16.724  14.174 -0.2390 -0.0318 -0.0554
22202W        W39049  11.219  18.147   3.360 -0.0666  0.1703  0.2596
22203W        W39050   1.074  11.688   4.380  0.1580 -0.1259 -0.1211
22204W        W39051   2.995  16.014  15.310 -0.0237 -0.1001  0.1521
22205W        W39052  16.663   4.867   3.379 -0.0866  0.1160 -0.2414
22206W        W39053  13.576   1.736   3.292  0.2632  0.1069 -0.1104
22207W        W39054   0.761   3.839   3.331 -0.0805 -0.0096 -0.2499
22208W        W39055   8.112  12.456   5.254  0.1655 -0.2502 -0.4335
22209W        W39056   3.726   6.947   3.930 -0.1526  0.0090 -0.1813
22210W        W39057  14.023   1.198  15.445 -0.1156  0.0394 -0.1948
22211W        W39058   5.436  12.763   3.928 -0.2719  0.1310  0.0042
22212W        W39059  15.158   4.014   5.349  0.0970 -0.1755 -0.0695
22213W        W39060   6.228   4.657   2.175 -0.2619 -0.3750  0.0172
22214W        W39061   7.251  12.120  15.878  0.0389 -0.0963 -0.3882
22215W        W39062  12.486   4.192   0.921  0.0201  0.1965  0.4030
22216W        W39063   7.117   9.693  15.406  0.2739  0.1312  0.2234
22217W        W39064   1.962   2.757  15.317 -0.0118 -0.2784  0.2492
22218W        W39065  12.253   1.648  14.429 -0.2565 -0.1488 -0.0755
22219W        W39066  10.743  14.169  15.421  0.1401 -0.1240  0.3114
22220W        W39067  14.146  12.986  14.277 -0.1804  0.3754 -0.2906
22221W        W39068  11.528   4.073  15.121  0.0556 -0.0219  0.0168
22222W        W39069   3.001   2.457  14.202  0.0984  0.0621  0.1118
22223W        W39070   9.618   1.775   4.328  0.0878  0.1760 -0.2359
22224W        W39071  12.382   9.937   4.645  0.0298 -0.0838  0.0437
22225W        W39072   0.470  10.027   0.296 -0.2335  0.1534  0.0992
22226W        W39073   6.536  15.057  15.156  0.0383 -0.0427  0.0667
22227W        W39074   9.170  10.567  13.298 -0.0359 -0.0936  0.2149
22228W        W39075  16.146  16.133   4.218  0.0883 -0.1739  0.2708
22229W        W39076  17.504  17.493   3.806  0.3139  0.0932 -0.1328
22230W        W39077  10.841  11.125  13.538 -0.2472  0.2814  0.0508
22231W        W39078  16.014  15.767   3.705  0.0906  0.1550 -0.2149
22232W        W39079   9.258  14.356   3.630  0.1129  0.1734  0.4725
22233W        W39080   8.915   1.919   4.592  0.1559  0.0654 -0.2787
22234W        W39081  14.468   3.912  11.571 -0.2168  0.2063 -0.1758
22235W        W39082   7.632  11.685   3.708 -0.2043  0.1835 -0.0565
22236W        W39083   6.308  14.804   2.760 -0.2748  0.0565  0.0500
22237W        W39084  17.054  12.397   3.312  0.0153 -0.1573  0.1725
22238W        W39085   4.791   8.821   0.555 -0.1317  0.0113 -0.0476
22239W        W39086   7.611  16.640  13.126 -0.0526 -0.2116  0.4091
22240W        W39087   3.020  16.994   3.769  0.4375  0.0213 -0.1566
22241W        W39088  17.847   9.384  14.424 -0.1022  0.0683 -0.0940
22242W        W39089   7.558  14.762  16.294  0.1614 -0.1422  0.0882
22243W        W39090   0.738  15.169   2.904  0.2666 -0.0858  0.2639
22244W        W39091  12.568   4.011   4.165 -0.2115  0.0294 -0.1352
22245W        W39092  12.850  11.054  12.265  0.3436 -0.0265 -0.0350
22246W        W39093  18.173   6.551  15.975 -0.0630 -0.0681  0.0916
22247W        W39094  11.246   6.820   1.526 -0.1335 -0.1297  0.0564
22248W        W39095   4.788  11.490  16.157 -0.2725  0.3444 -0.0498
22249W        W39096  10.755   8.939  14.947  0.0229  0.4520  0.1911
22250W        W39097  16.478  12.329  14.347 -0.1350  0.1217 -0.2707
22251W        W39098  10.299  12.833   0.848  0.2224 -0.0984  0.0994
22252W        W39099  14.294  15.351  14.495  0.3076  0.0205  0.2072
22253W        W39100   4.279   9.059  13.395  0.0271  0.0389 -0.1006
22254W        W39101   6.825   8.679   4.069 -0.0360 -0.2154  0.2300
22255W        W39102   8.005   4.137  12.680  0.3371  0.4320 -0.0362
22256W        W39103   8.128  13.221  13.988 -0.0716  0.0858  0.2244
22257W        W39104   9.196   4.516   4.500 -0.0832 -0.0823  0.0144
22258W        W39105   3.211   3.361   2.375  0.1697  0.3035  0.0927
22259W        W39106   1.129  12.554   3.328 -0.0040 -0.0337  0.0449
22260W        W39107  14.677  10.112  13.043  0.1867  0.0471  0.1572
22261W        W39108   8.703   6.535  11.389 -0.0714  0.1149 -0.1546
22262W        W39109   6.409   8.069   2.961  0.2417 -0.4389  0.1737
22263W        W39110  16.440   7.615   1.192  0.4337 -0.0137  0.1848
22264W        W39111   7.501  12.173   1.054  0.1065  0.2296  0.2727
22265W        W39112   4.306  15.927   3.967 -0.4419 -0.0376 -0.0248
22266W        W39113   7.970  10.344  11.828 -0.0826  0.1048 -0.0392
22267W        W39114   5.872  17.471   5.600  0.0001  0.2224  0.1564
22268W        W39115  16.496   3.022   0.798 -0.1492  0.4402  0.0220
22269W        W39116   4.240  13.038   1.993  0.0399 -0.1586  0.0982
22270W        W39117   8.547  17.090   3.501 -0.0296  0.1029  0.1230
22271W        W39118   0.255  10.646  15.321  0.0819  0.1070 -0.0129
22272W        W39119   0.399  16.003   6.396 -0.1066  0.1410 -0.1872
22273W        W39120   3.474   4.230   1.834 -0.3691  0.2150 -0.0978
22274W        W39121  16.413   9.518  16.001 -0.1485  0.2267  0.2170
22275W        W39122  10.183  13.550  14.757  0.1585 -0.1157 -0.1256
22276W        W39123  12.410  16.377  13.398 -0.1466 -0.2027  0.1526
22277W        W39124  14.565   7.465  16.404 -0.2256 -0.0638  0.0833
22278W        W39125   2.866   4.906  16.243 -0.0051  0.0235 -0.0236
22279W        W39126  10.367   5.504  13.887  0.3169 -0.0511 -0.0439
22280W        W39127  10.415   9.420  12.477  0.1627 -0.3568 -0.4794
22281W        W39128   8.261  12.247  12.070  0.0358  0.0184  0.1108
22282W        W39129  14.757  13.531   2.215 -0.4322  0.0974 -0.1608
22283W        W39130   8.946   3.707   0.008  0.0982  0.1999  0.3313
22284W        W39131  10.276  18.142  13.613 -0.1504 -0.1232 -0.0541
22285W        W39132   2.280  12.238  14.582 -0.0444  0.1939  0.1443
22286W        W39133   2.493   6.438  16.115 -0.1643  0.2720 -0.1309
22287W        W39134   0.501   9.873   0.782 -0.0340  0.2299  0.1355
22288W        W39135   9.580  14.215   4.046  0.0688  0.0145  0.0271
22289W        W39136   3.110   4.595  12.299  0.1400 -0.1135  0.2501
22290W        W39137   1.483   4.860   2.013 -0.1032 -0.4376  0.0407
22291W        W39138  10.102   1.768   3.346  0.0964  0.2126 -0.3600
22292W        W39139  11.779  10.820   1.284  0.0274 -0.1023  0.0755
22293W        W39140   4.201   2.749  13.250 -0.2440 -0.0756  0.2066
22294W        W39141   4.743  12.923   1.158  0.0190 -0.1612  0.0369
22295W        W39142   4.758   3.652   2.412  0.3686  0.2759  0.2637
22296W        W39143   7.781   6.648  12.343  0.1164  0.1909 -0.2189
22297W        W39144  16.998  18.155  11.602  0.0130 -0.0554 -0.2954
22298W        W39145   9.534  12.905   3.625 -0.2396 -0.0403 -0.0043
22299W        W39146   1.832   7.967   1.448 -0.0953 -0.0838 -0.0631
22300W        W39147  15.591  14.762  16.380 -0.0870 -0.2440 -0.2930
22301W        W39148  15.138   3.792  15.194 -0.0279  0.3638  0.0030
22302W        W39149   2.585   8.537   2.490  0.1844 -0.0150  0.2400
22303W        W39150  12.783  11.685   3.964  0.1304 -0.2554 -0.2138
22304W        W39151   4.064   5.763   3.174  0.1435 -0.2103 -0.4230
22305W        W39152   7.571  14.752   3.322  0.3096  0.2907  0.2089
22306W        W39153   4.920   1.026  11.349 -0.0415  0.0856  0.0191
22307W        W39154   6.494  12.566  12.593 -0.1936  0.0599  0.0417
22308W        W39155  12.491  12.254   3.896 -0.2104  0.2591 -0.1534
22309W        W39156   8.882   9.504  15.001 -0.1997 -0.0622  0.0889
22310W        W39157   7.284   0.050   6.630  0.2616  0.1473  0.3252
22311W        W39158  16.707   6.125   2.588 -0.2278  0.0355  0.0823
22312W        W39159   2.982  17.841   6.039  0.1352 -0.0372  0.1280
22313W        W39160  12.271   0.397  11.544 -0.1486  0.1498  0.0260
22314W        W39161  15.137   8.338  14.179  0.0676 -0.3200  0.0234
22315W        W39162  10.723   3.145  12.960 -0.0824 -0.2413 -0.1759
22316W        W39163  12.837  10.309  15.177 -0.2625 -0.0862  0.0549
22317W        W39164   4.960   0.986   2.543 -0.2117  0.1651  0.2247
22318W        W39165  17.281  16.897   5.704  0.0177  0.3352  0.1631
22319W        W39166  14.482   1.765  15.767  0.0447 -0.4793  0.3521
22320W        W39167  12.294   8.537   4.172  0.0119 -0.1257 -0.0297
22321W        W39168   3.702  16.229   3.779 -0.0638  0.1164 -0.0484
22322W        W39169   3.051   5.184  13.190  0.0543 -0.3922  0.1095
22323W        W39170  17.214  16.984  15.754  0.1415  0.0176  0.2011
22324W        W39171   2.266   2.580   1.659 -0.5447  0.3746 -0.5684
22325W        W39172  13.969   0.876   5.004 -0.1744 -0.4499 -0.3327
22326W        W39173  14.762  12.378  14.929 -0.0802 -0.1091 -0.1894
22327W        W39174  12.626   8.528   2.427 -0.0761  0.0796  0.0592
22328W        W39175  12.627   1.445   1.247 -0.0142 -0.2756 -0.0072
22329W        W39176   9.599   9.722  13.416  0.2875  0.1201  0.2467
22330W        W39177   2.319   9.108  13.998 -0.0771 -0.1246 -0.1499
22331W        W39178  17.212  17.902  12.209 -0.1776 -0.0296 -0.0648
22332W        W39179  15.866   4.746   2.275  0.0507  0.0272 -0.1121
22333W        W39180  12.471   8.331  16.393 -0.1140  0.0830  0.2311
22334W        W39181  11.342  14.634  13.599  0.0243  0.1146 -0.0933
22335W        W39182  14.532  10.955  12.439  0.2545 -0.0380  0.2128
22336W        W39183   8.570   6.065   0.975 -0.3472 -0.2753 -0.0450
22337W        W39184   5.015   6.907   5.415 -0.1070 -0.0307  0.3485
22338W        W39185  10.676  15.912  12.573  0.1640 -0.0792  0.2368
22339W        W39186   2.450  14.831  14.900  0.1823 -0.1610 -0.3240
22340W        W39187   7.333   2.010  12.735 -0.0893 -0.1354  0.0648
22341W        W39188  16.387   0.570   2.728  0.2369 -0.0273 -0.1372
22342W        W39189   5.554   0.240  12.748  0.4243  0.1325  0.4601
22343W        W39190  11.901  14.943  15.386  0.2375 -0.0608 -0.1216
22344W        W39191   2.671  15.773  15.650 -0.1009 -0.1792 -0.0799
22345W        W39192   3.145   9.252   6.001  0.2522 -0.0990 -0.2386
22346W        W39193   7.663   2.873  14.241  0.1031  0.2554 -0.0755
22347W        W39194  10.357   0.770  14.985  0.0429 -0.1602  0.2900
22348W        W39195   1.649   7.991  14.106 -0.0157  0.3659  0.1384
22349W        W39196   5.091  14.212  14.457 -0.0560 -0.2509  0.0583
22350W        W39197  11.641  16.613   1.002  0.1120 -0.1125 -0.1104
22351W        W39198   3.584   6.898   1.610 -0.4439 -0.1017 -0.3411
22352W        W39199   1.119   2.335  15.023 -0.1094  0.2081 -0.3375
22353W        W39200   9.915  17.460   1.051 -0.1106 -0.3035 -0.1858
22354W        W39201   6.291   9.081   0.999  0.2752 -0.2932 -0.1941
22355W        W39202   7.919   9.596   2.528  0.4639 -0.0514 -0.1398
22356W        W39203   8.060   9.549   0.347  0.0749  0.0225 -0.2788
22357W        W39204  15.400  15.089   1.450 -0.1186  0.3535 -0.0165
22358W        W39205  17.179  10.665  13.328  0.2690  0.0739  0.2007
22359W        W39206  12.040   8.140   1.129  0.0156  0.0478  0.1103
22360W        W39207   9.778   6.220   0.267  0.0088 -0.1315 -0.0894
22361W        W39208  12.079   8.537   0.065  0.0666 -0.1408 -0.4299
22362W        W39209  10.283   4.378  13.968  0.3954 -0.1380  0.0563
22363W        W39210   5.147   5.549   0.355  0.0241 -0.2448 -0.0518
22364W        W39211   2.560   3.700   2.890  0.1142  0.0129 -0.0604
22365W        W39212   6.817  15.223  13.306 -0.2195 -0.2053 -0.1460
22366W        W39213  15.937  16.724  15.059  0.1571 -0.0121  0.3128
22367W        W39214   3.548  17.341   2.063 -0.1100 -0.2977  0.1209
22368W        W39215   7.877   0.648  11.960  0.0930  0.0174  0.0979
22369W        W39216  16.723  10.554  16.205  0.0632 -0.1764  0.0761
22370W        W39217   9.089   0.214   2.961 -0.2141  0.0719 -0.0915
22371W        W39218   8.136   9.715   1.946 -0.0916  0.0614 -0.2002
22372W        W39219  13.057  13.510   5.019 -0.2949 -0.0797 -0.0187
22373W        W39220  12.421   4.636   1.603 -0.2065 -0.0392  0.2238
22374W        W39221   6.997   9.213  14.672  0.0463  0.1593 -0.1143
22375W        W39222  13.345   3.853   0.450 -0.2603 -0.0555  0.2193
22376W        W39223   3.308  14.236   5.615 -0.1238  0.0362  0.0359
22377W        W39224   9.985  17.081  11.536 -0.2854 -0.1141  0.0515
22378W        W39225  10.630   3.177  15.585  0.0160  0.2915 -0.2776
22379W        W39226  17.420  14.777   5.817 -0.1157 -0.1086 -0.0383
22380W        W39227  12.432   8.851  14.413 -0.2738  0.1957  0.0285
22381W        W39228  17.686   8.304  15.907 -0.0032 -0.0281 -0.1480
22382W        W39229  14.667   4.226  10.892  0.3327 -0.1161  0.0004
22383W        W39230  17.398   8.048   4.999 -0.1309  0.3320 -0.1228
22384W        W39231  12.321   1.979   1.974  0.0548  0.2398 -0.0572
22385W        W39232   2.144   7.832   5.401  0.1908 -0.1634 -0.1398
22386W        W39233  12.354  17.524  13.663  0.0179  0.0706 -0.1661
22387W        W39234   7.655  13.651   0.571 -0.0447 -0.0349  0.2489
22388W        W39235  16.574  16.309  13.857 -0.2851  0.1415 -0.1519
22389W        W39236  16.693   8.510   0.887 -0.0800  0.2977 -0.1238
22390W        W39237  11.163  12.766  12.722  0.1117  0.0980  0.0125
22391W        W39238   1.519   3.472  11.766 -0.0120 -0.1234 -0.5186
22392W        W39239  14.107  12.493   4.641 -0.0937 -0.0073  0.0643
22393W        W39240   4.818  14.904   2.649  0.0743  0.1189 -0.0933
22394W        W39241   5.705  17.164   0.349 -0.0912 -0.2530 -0.0446
22395W        W39242  15.710   4.684   3.110  0.0907 -0.0125  0.0539
22396W        W39243   2.985   8.829  12.067  0.0998 -0.1931 -0.3380
22397W        W39244  15.128  12.864  16.117 -0.0279 -0.0053  0.0040
22398W        W39245   2.369  15.128   6.286 -0.0379 -0.0803 -0.0706
22399W        W39246  14.577   6.116   3.149  0.2311 -0.0472 -0.0545
22400W        W39247   6.181  16.878   5.190 -0.0378 -0.1253 -0.1134
22401W        W39248   6.753   1.648   3.190 -0.2679  0.1613 -0.0008
22402W        W39249   1.806  16.928   4.921 -0.0817  0.1188  0.1443
22403W        W39250   7.538   7.077   3.613  0.1981  0.0005  0.1922
22404W        W39251   4.481   7.367  14.715 -0.0776  0.2052  0.4925
22405W        W39252   8.546  15.360   1.851  0.3040 -0.1285 -0.2858
22406W        W39253  17.148  10.615  12.269  0.2498 -0.3971  0.2915
22407W        W39254   5.350   3.205  13.361 -0.2110 -0.0915  0.3365
22408W        W39255   3.412   2.457  12.968  0.1935 -0.1451  0.0015
22409W        W39256  10.260   3.309   2.812  0.0683 -0.3087  0.0673
22410W        W39257   6.969  13.147   2.959 -0.1789 -0.1765 -0.1619
22411W        W39258   5.055  15.666  16.032  0.0021  0.2206  0.0332
22412W        W39259  14.803   3.908   5.814  0.0235  0.1624  0.1838
22413W        W39260  17.109  12.221   5.755  0.0394 -0.0882  0.2048
22414W        W39261  13.173  16.730  16.503 -0.1132  0.1372  0.6269
22415W        W39262   5.458   7.098  15.654 -0.1757 -0.1018 -0.1161
22416W        W39263   8.636   9.378  11.346 -0.2407  0.2034  0.0165
22417W        W39264  11.602   1.391  14.623  0.2509  0.1020 -0.1848
22418W        W39265   7.729   0.119   3.655  0.2409 -0.3186  0.0098
22419W        W39266   5.377  11.082   0.609 -0.3042  0.2890 -0.0082
22420W        W39267   3.475   9.698  14.783  0.0463  0.4286 -0.0289
22421W        W39268  14.972   3.094   4.352  0.0829 -0.3215 -0.3239
22422W        W39269   4.729  17.854  15.976 -0.0701 -0.0508 -0.0406
22423W        W39270  16.264  10.901   0.017 -0.1682  0.4394 -0.0484
22424W        W39271  13.891  15.461  11.071  0.2613 -0.1187 -0.3088
22425W        W39272  10.322   9.879  16.112  0.0127 -0.1074 -0.0073
22426W        W39273  16.537  12.643   3.053 -0.2693  0.2455 -0.1703
22427W        W39274  10.220  16.903   4.154 -0.0422  0.0697  0.1894
22428W        W39275   9.259   5.639  16.114 -0.1719  0.4903 -0.1649
22429W        W39276  14.732  15.582   0.954 -0.1116 -0.0035  0.1857
22430W        W39277  17.678  15.333  11.712  0.2884  0.2535 -0.0550
22431W        W39278  16.912   7.045  11.788 -0.1709  0.0169  0.0856
22432W        W39279  12.536  12.646  15.833  0.1743 -0.0744 -0.4060
22433W        W39280   1.245  16.501   4.311  0.2383  0.2327 -0.0789
22434W        W39281   8.715  16.348   4.876  0.1389  0.2157  0.0745
22435W        W39282   5.848  12.914   1.827 -0.0273  0.2673  0.0262
22436W        W39283   1.982  17.139   0.891  0.3209  0.1170 -0.2686
22437W        W39284   3.184   9.078   0.856  0.1285  0.0694  0.3130
22438W        W39285  10.185   3.236  12.325 -0.0203  0.1355  0.0886
22439W        W39286   7.930   7.241   3.341  0.0167  0.1363  0.0336
22440W        W39287  12.817  14.452  14.149 -0.3766  0.1689 -0.2512
22441W        W39288  14.103   4.270  16.029 -0.2225 -0.1513  0.2533
22442W        W39289  16.212   5.026   2.047 -0.1389  0.1405  0.1779
22443W        W39290   2.064   8.853  11.205 -0.0170 -0.0149 -0.0168
22444W        W39291   2.192  16.047  12.075 -0.0174 -0.0428 -0.2119
22445W        W39292   1.813   9.182   4.528 -0.1446  0.0475  0.2170
22446W        W39293   7.462   5.042   1.101 -0.0804  0.1940  0.1484
22447W        W39294  12.614   9.136  13.131  0.0532 -0.0442 -0.4696
22448W        W39295  17.263  14.989   0.946  0.1468  0.1160  0.2627
22449W        W39296  11.465  13.219  14.209  0.0295  0.0218 -0.1553
22450W        W39297   0.358  18.177   4.566  0.1220  0.0820 -0.4138
22451W        W39298   5.372   2.334   3.342  0.1693 -0.2327 -0.0016
22452W        W39299   7.085  16.460  15.406  0.1094  0.0580  0.0906
22453W        W39300  10.904   1.666  12.113  0.0869 -0.0370  0.0320
22454W        W39301   3.422  11.426  12.536 -0.1242  0.0234  0.1945
22455W        W39302   2.870  14.051  16.252  0.3461 -0.3126  0.1910
22456W        W39303  14.477  15.916   4.712  0.1158  0.1719  0.3175
22457W        W39304   3.909  11.794   5.812 -0.0673  0.2757 -0.0968
22458W        W39305   1.389  17.282   0.971 -0.0615 -0.1121  0.0139
22459W        W39306   9.646   6.326  12.593  0.3371 -0.1601 -0.0113
22460W        W39307   8.394   2.357   1.331  0.0619 -0.1851 -0.0179
22461W        W39308   6.787   3.439   1.528  0.1856  0.2443  0.1671
22462W        W39309   2.782   6.646   2.594  0.2790  0.0717  0.2695
22463W        W39310  13.780   8.256   3.328 -0.1408  0.1725  0.1017
22464W        W39311  12.235   8.783   2.587 -0.1296 -0.0121 -0.1059
22465W        W39312  13.743   3.925   3.307  0.2662  0.1443  0.1033
22466W        W39313   2.466   4.560   1.931  0.2909  0.2022  0.0108
22467W        W39314   2.376   7.394  12.888 -0.0175 -0.3272 -0.2319
22468W        W39315  16.537   1.432  14.186 -0.2953  0.1458 -0.1201
22469W        W39316   7.273   3.080  11.609 -0.0055  0.4493  0.1663
22470W        W39317   8.142  14.971  16.361  0.3284  0.2511 -0.1334
22471W        W39318   3.908  13.204  13.383 -0.2050 -0.0255 -0.2476
22472W        W39319  12.683   6.867   2.690  0.1447 -0.2903 -0.2860
22473W        W39320   9.225   5.155  16.239 -0.1500  0.1731  0.2472
22474W        W39321   1.093   5.577   0.794 -0.1272 -0.2864  0.0143
22475W        W39322  15.424  11.147  14.206  0.0792  0.0289  0.2270
22476W        W39323   7.826  12.375  14.509  0.0453 -0.1206 -0.0739
22477W        W39324   0.710   3.112   3.385  0.1158  0.0783  0.2009
22478W        W39325   6.570  13.443   4.911  0.0898 -0.0648  0.4012
22479W        W39326   4.803   1.862  15.847  0.3269  0.1837  0.0614
22480W        W39327   0.385  15.432   0.603 -0.2239 -0.2920  0.2372
22481W        W39328  12.534   6.097   1.823 -0.1540 -0.1944 -0.2341
22482W        W39329  17.969   3.647   1.840  0.2003 -0.2396  0.1428
22483W        W39330   3.719   9.968  14.454  0.3421  0.0268  0.1458
22484W        W39331  12.212   1.500  15.426 -0.0744  0.1351  0.2562
22485W        W39332   6.152   8.011  12.746  0.3161  0.0536  0.0237
22486W        W39333   3.978  16.758  12.237 -0.1487 -0.1142 -0.0991
22487W        W39334   9.099  15.669  13.581 -0.1959  0.1731  0.0173
22488W        W39335  16.498  14.386  12.028  0.2281 -0.2031 -0.1952
22489W        W39336  12.589  15.232  13.862 -0.0213 -0.0947  0.0821
22490W        W39337   3.680   8.761  13.351  0.1259  0.1636  0.0485
22491W        W39338  12.969   7.849  14.739 -0.0759 -0.0269  0.0541
22492W        W39339  13.631  10.586   1.315 -0.0806  0.2963  0.4100
22493W        W39340  11.562   8.042   0.790 -0.0373 -0.0290 -0.0278
22494W        W39341   9.542   2.844  13.811  0.4529  0.0274  0.1331
22495W        W39342  14.505   5.414   1.906  0.0142  0.1269  0.1556
22496W        W39343  14.155  15.911  12.210  0.0540  0.2905  0.1511
22497W        W39344  13.680  10.671   3.153 -0.2606  0.0594  0.1859
22498W        W39345   1.687   4.416  15.373 -0.0277  0.1204  0.1147
22499W        W39346  15.813  12.693  12.156  0.2696  0.0781 -0.0343
22500W        W39347   1.552  16.172   4.007  0.1506  0.2058 -0.0911
22501W        W39348   7.483  13.443   2.021  0.0012  0.0990 -0.0647
22502W        W39349  11.578   2.356  15.746  0.0300 -0.1101  0.0462
22503W        W39350   1.079   4.439  13.206 -0.0120  0.0383  0.1013
22504W        W39351  11.972   9.813  16.308  0.0201  0.0838  0.3436
22505W        W39352   2.661   4.420   1.460 -0.0539  0.1668  0.1817
22506W        W39353   8.719   8.808  12.728  0.2235  0.2374  0.0065
22507W        W39354  16.578   4.082  10.703 -0.0363 -0.1417  0.0390
22508W        W39355  15.917   5.623   5.196 -0.1169  0.1635 -0.0028
22509W        W39356   8.175   5.747   5.958  0.4824  0.2133 -0.1216
22510W        W39357  16.515  14.522   1.890 -0.2689 -0.3073 -0.2079
22511W        W39358   8.248   8.006  12.387  0.1286 -0.4021 -0.0234
22512W        W39359  14.564  17.575  15.882  0.2007 -0.0522  0.0325
22513W        W39360  13.934   4.250   4.134 -0.2137 -0.1034 -0.1358
22514W        W39361   0.575   0.141  15.003 -0.0427  0.1465 -0.4198
22515W        W39362   5.157  11.925  15.493 -0.0711  0.0453 -0.0337
22516W        W39363  13.216  13.800  12.201 -0.3048 -0.0170  0.1631
22517W        W39364  13.739   7.841   3.673  0.1795 -0.0259 -0.0185
22518W        W39365  14.381  17.548   4.065 -0.0426  0.2116  0.3085
22519W        W39366   1.636   7.677  13.020  0.0129 -0.0121 -0.0673
22520W        W39367   8.176   9.367  12.513  0.2101 -0.1474 -0.1099
22521W        W39368   0.676   9.189  15.290 -0.1237 -0.2953 -0.0422
22522W        W39369  14.784   1.462  12.672  0.0117  0.0815 -0.0588
22523W        W39370   4.147  11.972   4.904  0.1981 -0.2417  0.3306
22524W        W39371  16.650  10.436  13.867 -0.2539  0.0124  0.0363
22525W        W39372   3.879   9.784   0.645 -0.1065  0.2307 -0.1360
22526W        W39373   8.728   9.160   0.171  0.0833  0.1002 -0.1851
22527W        W39374  12.835   2.244   0.462 -0.0350 -0.0367 -0.4651
22528W        W39375   1.618   0.719  12.838  0.0314  0.3324  0.0195
22529W        W39376   8.584   7.726   3.141 -0.2194  0.0748  0.1584
22530W        W39377   5.284   9.256  12.786  0.3743  0.1418 -0.1993
22531W        W39378  16.979   4.294   5.079  0.1172 -0.0085 -0.1831
22532W        W39379  10.015  11.644  15.351  0.0202 -0.1536 -0.1903
22533W        W39380  13.156   1.805  14.838  0.0822  0.3764  0.1835
22534W        W39381   0.931   5.361  14.826  0.1628  0.0724 -0.0982
22535W        W39382   1.305   9.925   1.337 -0.0131 -0.0125 -0.0145
22536W        W39383   0.768   6.043   0.678  0.1670  0.0707  0.0050
22537W        W39384   0.114   0.037  13.143  0.1705 -0.1854  0.5040
22538W        W39385  13.770   3.744   0.703 -0.1194  0.1282 -0.2631
22539W        W39386  11.697   2.469   2.715 -0.2210 -0.1627 -0.3244
22540W        W39387   9.326  13.789   2.970 -0.0281 -0.2404 -0.0429
22541W        W39388  11.908  13.429   4.093 -0.2782  0.1544 -0.1204
22542W        W39389  12.231  15.848   2.306  0.0884 -0.0267 -0.2866
22543W        W39390   5.950  14.628  13.564 -0.1421 -0.1709 -0.1549
22544W        W39391   0.125   1.967   3.804 -0.2243 -0.2810 -0.3015
22545W        W39392   7.044  15.459   0.167  0.0305 -0.0093  0.0109
22546W        W39393  13.651   8.118  15.123 -0.0884 -0.0111  0.0857
22547W        W39394   2.520  13.596   2.171 -0.0764  0.0808  0.1140
22548W        W39395   2.103  10.370   5.792  0.1885 -0.2158 -0.1650
22549W        W39396  12.725   4.728  14.332  0.1333  0.1085  0.1408
22550W        W39397  17.871   5.588   6.222 -0.2572 -0.1030 -0.0999
22551W        W39398  16.304  10.358  14.854  0.1149 -0.1608  0.0121
22552W        W39399   6.941   7.124  16.307 -0.1404 -0.0445  0.2562
22553W        W39400   5.388   9.034   1.160  0.2111  0.3964  0.0164
22554W        W39401   4.571  17.507   2.439  0.2964 -0.1143 -0.2049
22555W        W39402  13.478   1.737   1.659  0.0710  0.2032  0.0227
22556W        W39403   9.570   5.017   3.150 -0.0071 -0.2525 -0.2106
22557W        W39404   0.214   1.731   0.234 -0.1334 -0.0502 -0.0039
22558W        W39405   0.079   0.832  12.110 -0.0232 -0.0562 -0.0349
22559W        W39406  16.697  11.497  12.258  0.1268  0.2265  0.3791
22560W        W39407   5.271   4.484   1.164  0.1164  0.2470  0.0305
22561W        W39408  17.901  11.492   2.528  0.1149 -0.0322 -0.0383
22562W        W39409  15.062  13.047   0.953 -0.0502  0.0305 -0.2373
22563W        W39410  15.828  16.165   2.584 -0.0978 -0.0198  0.0244
22564W        W39411  12.146   7.264   4.475  0.0171  0.1172 -0.0477
22565W        W39412   6.254  12.674   2.901 -0.0860  0.1184  0.3655
22566W        W39413  13.511  12.322  13.714 -0.1334 -0.3997  0.0412
22567W        W39414  14.698  10.085  14.463 -0.3552 -0.2335  0.0521
22568W        W39415   3.365  17.043   0.369  0.1946  0.0327  0.0217
22569W        W39416  12.342   0.794  11.897 -0.1089 -0.0859  0.1874
22570W        W39417   2.284   0.971  12.632  0.2505 -0.4466  0.0440
22571W        W39418   3.334  18.138   2.437  0.0505  0.0585  0.3141
22572W        W39419   9.103  13.544   0.315  0.0297  0.1813 -0.1764
22573W        W39420  13.909  15.580  15.276  0.2180 -0.1916 -0.4046
22574W        W39421  16.787   2.661  14.587  0.2568 -0.0127 -0.1745
22575W        W39422   8.458   3.687  11.420  0.1616  0.0194 -0.2615
22576W        W39423  15.142  13.557  15.567  0.0109 -0.0752 -0.3690
22577W        W39424   0.995   2.516   2.854 -0.3315 -0.0439  0.1056
22578W        W39425  11.554   8.495   0.119  0.0533  0.2480  0.0783
22579W        W39426  12.923   4.530  14.962  0.0555 -0.2712  0.2575
22580W        W39427   3.853   7.587   1.560 -0.0485 -0.1556  0.2405
22581W        W39428  14.267   7.154  13.363 -0.1908 -0.3379 -0.3580
22582W        W39429   7.020  15.655   4.440  0.0921 -0.0665  0.2291
22583W        W39430  16.367   5.316   0.134  0.2926 -0.0730 -0.2660
22584W        W39431  12.037  13.703  11.298 -0.1872  0.1188  0.0597
22585W        W39432   8.775  14.234  16.423  0.0903 -0.1346  0.3522
22586W        W39433   4.924  10.821   1.484  0.1016  0.2071  0.1737
22587W        W39434   7.462  12.528   2.443 -0.1942 -0.0843  0.0898
22588W        W39435   7.177  11.117   0.035  0.1127 -0.2808 -0.0210
22589W        W39436  13.005  17.502   2.524 -0.0561 -0.1567 -0.1131
22590W        W39437  16.492   8.694  16.287  0.1408  0.2444 -0.3060
22591W        W39438   3.883   6.592  14.848 -0.0487 -0.2827 -0.0509
22592W        W39439  16.551  12.506  15.662 -0.0789 -0.2180 -0.0219
22593W        W39440  13.109   4.996  15.830 -0.3501 -0.0887 -0.0567
22594W        W39441  17.292  11.543  15.010  0.1865 -0.2890 -0.0458
22595W        W39442  18.109   6.656   3.859  0.1860 -0.1052 -0.0911
22596W        W39443  17.804  14.183   1.844  0.1144  0.1441  0.1720
22597W        W39444  10.123   0.875   4.779  0.0688 -0.0136 -0.0982
22598W        W39445  11.421   2.510  12.106  0.0908  0.1859  0.1141
22599W        W39446   9.924   9.614   4.857 -0.0615  0.0356 -0.0324
22600W        W39447   5.488  10.576  14.615 -0.0375  0.2777 -0.3266
22601W        W39448  16.449  17.497  13.158  0.0051 -0.0051 -0.0312
22602W        W39449   4.434   6.070  14.991  0.2288  0.0959  0.2593
22603W        W39450  16.598   6.087  13.353 -0.2212  0.0535 -0.0661
22604W        W39451   7.943  10.434  14.551  0.2117  0.0020 -0.1277
22605W        W39452   5.925   4.602  15.642  0.0438 -0.0348  0.1422
22606W        W39453  17.767   8.561   1.926 -0.1866 -0.1855 -0.0903
22607W        W39454   6.179   1.001   0.442 -0.0739 -0.1199  0.3558
22608W        W39455  13.312   2.989   5.042 -0.1178 -0.1323 -0.0062
22609W        W39456   0.538   2.656  15.073 -0.2115  0.2529  0.2113
22610W        W39457  17.599   7.449  14.667  0.2647  0.3022  0.1882
22611W        W39458  14.480  10.863  15.822 -0.1406 -0.0464 -0.0555
22612W        W39459   3.088  16.833  15.161  0.0026  0.0398  0.3779
22613W        W39460  15.137  16.682   3.183 -0.0111 -0.0332  0.1442
22614W        W39461  17.346   8.265   6.203 -0.2608 -0.1226  0.0355
22615W        W39462  16.704   3.401   0.381  0.0536  0.1958 -0.0764
22616W        W39463  16.674   6.512   5.908 -0.1820  0.2971 -0.3182
22617W        W39464  13.691   9.020   1.486  0.0585  0.2435 -0.2041
22618W        W39465  15.422   5.505   3.252 -0.0138  0.3158 -0.1608
22619W        W39466   2.403   4.050   1.688  0.1205  0.3038  0.1644
22620W        W39467   1.397  10.583  13.209 -0.1965  0.0631  0.1901
22621W        W39468  10.450   1.004  16.147  0.1023  0.0487 -0.0098
22622W        W39469   1.915   1.587  16.600 -0.4221 -0.3035  0.0611
22623W        W39470   9.155   4.097   1.779 -0.0582 -0.0609  0.0540
22624W        W39471   1.368   4.930  16.106  0.1503  0.1474 -0.2319
22625W        W39472   4.842   4.007  15.910 -0.0885 -0.4100  0.1123
22626W        W39473   0.584   4.948  13.603  0.0931 -0.0116 -0.1698
22627W        W39474   9.277   2.787   0.581 -0.0556 -0.5002 -0.0291
22628W        W39475  11.765  17.216   6.044  0.0298  0.1560  0.3267
22629W        W39476   9.324   6.185  15.875 -0.1901  0.0414 -0.1619
22630W        W39477   7.428   9.053   4.050  0.0591 -0.0851 -0.0538
22631W        W39478   1.599  16.967   4.489 -0.4239  0.1999  0.1906
22632W        W39479   1.341  16.591  14.573  0.0430  0.1782  0.1052
22633W        W39480  10.064   3.483  16.318 -0.2426 -0.1552  0.0401
22634W        W39481   3.760  14.882  12.960 -0.0613  0.2084  0.1981
22635W        W39482   6.466  15.715   4.374  0.1214  0.1334  0.0067
22636W        W39483  13.210  11.306  12.599 -0.2480  0.4144  0.0729
22637W        W39484  14.632  10.965  12.936  0.2257 -0.1689  0.0212
22638W        W39485  11.854  17.108  14.805  0.0668 -0.0125  0.1251
22639W        W39486  15.841  11.205  13.244  0.3482 -0.0147 -0.1710
22640W        W39487   6.499   0.890  14.892  0.1115  0.2405  0.1715
22641W        W39488   6.601   4.186  14.902 -0.2103 -0.1820 -0.1447
22642W        W39489   5.686   8.989  15.629 -0.1999  0.0164  0.0244
22643W        W39490   4.378   7.942  15.724 -0.0829 -0.1010 -0.1994
22644W        W39491  10.325  13.988  13.970 -0.0695 -0.5014  0.0009
22645W        W39492   4.716  17.092   4.962 -0.1174  0.0188  0.0418
22646W        W39493  12.911   8.981  15.646  0.1024 -0.2917  0.1832
22647W        W39494   7.755  17.375   2.311 -0.2680 -0.0949 -0.2609
22648W        W39495   1.405   8.083   1.693  0.1169 -0.1885  0.0285
22649W        W39496   7.148   9.996  13.758  0.1306 -0.1282 -0.1515
22650W        W39497  12.445   5.029  10.959 -0.2675 -0.0431 -0.3793
22651W        W39498  14.209   3.770   4.457  0.2824  0.2407  0.0161
22652W        W39499  17.844  16.745   0.780 -0.1524 -0.1164 -0.0486
22653W        W39500  10.135  11.024   2.346 -0.0383  0.2108 -0.1672
22654W        W39501   8.709  13.398  15.985 -0.0392 -0.1320  0.0900
22655W        W39502   9.811  14.419   5.171  0.1251 -0.0301 -0.3095
22656W        W39503   8.529   9.593   0.276  0.2294  0.0694 -0.0189
22657W        W39504  16.824  10.371   0.057  0.0050 -0.1845 -0.0447
22658W        W39505  16.700   1.123   1.393  0.1573  0.1461 -0.0182
22659W        W39506   6.441   6.540   1.711  0.1726 -0.1901 -0.3039
22660W        W39507   3.099  16.770   4.212 -0.4865  0.1437 -0.1479
22661W        W39508  12.447   3.396  16.506 -0.3294 -0.0213  0.0135
22662W        W39509   1.480  16.750  16.257 -0.0083  0.5200 -0.0022
22663W        W39510   6.011   6.386  15.369 -0.0038  0.0406  0.1019
22664W        W39511   3.825  10.311  14.862  0.1658 -0.0594 -0.0744
22665W        W39512   4.491   4.996   0.015 -0.1720 -0.2012  0.0250
22666W        W39513  16.939  15.488  12.474  0.0416 -0.0832  0.1627
22667W        W39514  16.573  12.729   4.842 -0.0669  0.0641 -0.1955
22668W        W39515  18.040   5.094   5.266 -0.2174 -0.1939 -0.1746
22669W        W39516  13.461  12.910  14.838  0.4008  0.0686  0.2831
22670W        W39517  12.917   0.042   1.399  0.0068 -0.1458  0.2787
22671W        W39518  10.342   2.999   4.210  0.0123 -0.0502  0.4150
22672W        W39519   7.449  12.604  16.181 -0.1613 -0.2539  0.0024
22673W        W39520  12.650   7.877   1.811  0.3970 -0.1384  0.0064
22674W        W39521   8.684   9.787   4.204 -0.0340 -0.3294  0.4570
22675W        W39522  17.954  11.183  13.746 -0.0688  0.0488  0.1977
22676W        W39523   4.530   5.894  12.690 -0.0446  0.0549  0.2270
22677W        W39524   8.850  15.111   4.998 -0.1053 -0.1017  0.3216
22678W        W39525   5.545   6.669   4.681 -0.0336 -0.0950  0.0664
22679W        W39526   8.524   1.431   0.453 -0.1634 -0.0490  0.0179
22680W        W39527  15.639   2.716   2.201  0.2048  0.1811  0.1788
22681W        W39528   7.551  15.682  11.938 -0.1807  0.2266  0.0634
22682W        W39529  15.743  11.587  14.133  0.2189  0.0816 -0.2537
22683W        W39530  16.733   4.029   5.771  0.1236 -0.1110 -0.0970
22684W        W39531  13.530   8.623  15.012  0.0055  0.5323 -0.2153
22685W        W39532   1.913   7.724  16.156  0.1434  0.2472 -0.0741
22686W        W39533  13.826   0.985   1.126 -0.0708 -0.1883  0.0870
22687W        W39534  11.636  12.458   4.922 -0.1030 -0.4512 -0.0298
22688W        W39535   8.652   8.263   2.641 -0.0377  0.0116 -0.0817
22689W        W39536   8.605  13.047  15.059 -0.0282  0.0937 -0.0382
22690W        W39537   5.684  13.817   4.097  0.2393  0.2233  0.0274
22691W        W39538   8.033   1.617   2.234 -0.0898  0.1127 -0.0335
22692W        W39539  16.615   9.417  12.303  0.2404 -0.2679  0.1405
22693W        W39540   5.939   4.692   4.923  0.0804  0.2732 -0.0386
22694W        W39541   7.585  15.409  14.846  0.1448  0.1087 -0.4344
22695W        W39542  10.472   0.692  11.395 -0.0240  0.1169  0.1135
22696W        W39543  17.045  11.048  11.576  0.1733  0.1648 -0.0752
22697W        W39544   5.027   0.324   3.777  0.2157 -0.0517  0.0436
22698W        W39545  16.845   9.621   0.588  0.1615 -0.0094  0.1765
22699W        W39546  11.911   4.082   5.392  0.1248 -0.2046 -0.1418
22700W        W39547   0.914  13.131  12.364 -0.1605 -0.2010  0.1701
22701W        W39548  10.439   1.199  14.714 -0.1028 -0.0381 -0.1464
22702W        W39549  15.107   6.914   0.199 -0.0178  0.0053  0.1951
22703W        W39550   7.201  11.524   1.114  0.2490 -0.1155  0.1444
22704W        W39551  17.451  14.177  14.490 -0.0436  0.0455 -0.0732
22705W        W39552   9.125  10.118   0.071 -0.6296  0.1490  0.1389
22706W        W39553  16.509   7.267  14.459  0.2846  0.0131  0.2798
22707W        W39554  17.550   3.165   1.237 -0.1204 -0.2258  0.0269
22708W        W39555  10.048   5.163  11.225  0.1383 -0.0040 -0.2862
22709W        W39556   0.975   7.254  11.590 -0.2192 -0.0414 -0.0650
22710W        W39557   5.717   5.589   2.706  0.3774  0.1223 -0.3062
22711W        W39558   2.837   7.067   0.546  0.0508 -0.1277 -0.0132
22712W        W39559  13.813  14.601   0.257 -0.1700  0.3899  0.2730
22713W        W39560  14.332   3.468  15.337 -0.2090  0.1322 -0.1441
22714W        W39561  16.450  18.086   4.733  0.1575 -0.0410 -0.1010
22715W        W39562   4.292   3.327   0.779  0.1631 -0.1606 -0.1951
22716W        W39563   9.159   6.388   2.068  0.1454  0.0634  0.2361
22717W        W39564  17.206  15.419  15.680 -0.1694  0.3310 -0.0136
22718W        W39565  14.762  13.739   1.738  0.0211  0.2711  0.2686
22719W        W39566   4.742  12.741   2.771  0.1482  0.0163  0.2773
22720W        W39567   0.693  10.658   4.816 -0.1293  0.1155  0.1964
22721W        W39568  11.914  13.877   3.427  0.1634 -0.2344  0.1357
22722W        W39569   0.395   8.913  12.297  0.0898 -0.1416  0.1332
22723W        W39570  13.097  12.964  11.798  0.1471  0.0204 -0.0773
22724W        W39571  11.801   9.690  14.134  0.1061  0.2297 -0.1574
22725W        W39572  12.140   0.468  12.425 -0.2950 -0.1048 -0.3019
22726W        W39573   3.541  16.653  15.359 -0.0933  0.1711  0.1420
22727W        W39574   1.007  14.021  14.390 -0.1551 -0.1486  0.0700
22728W        W39575   8.283  17.688  15.172 -0.0074 -0.1534 -0.3682
22729W        W39576  13.768  15.866   5.331 -0.0126  0.0155  0.2218
22730W        W39577  16.274  11.363   1.712  0.2429  0.2398 -0.0665
22731W        W39578   3.891  11.591  14.306  0.4980  0.0244 -0.1645
22732W        W39579  11.488   1.777   2.442 -0.0956  0.0572 -0.3638
22733W        W39580  15.913   0.693   5.554 -0.1662 -0.3114  0.4192
22734W        W39581  14.218  14.565   5.701 -0.1522  0.1322 -0.0949
22735W        W39582  16.323   7.843   1.673  0.1109  0.0115  0.2237
22736W        W39583   1.347   1.498   4.969  0.2132 -0.0140 -0.1044
22737W        W39584   5.908  12.051  13.934  0.2214  0.1292  0.0068
22738W        W39585   3.764  15.590   1.394 -0.2015  0.2650 -0.1307
22739W        W39586  13.434  13.768   0.358 -0.1081 -0.2460 -0.3172
22740W        W39587  17.372  17.294   3.413 -0.0447 -0.1439  0.1376
22741W        W39588  13.355   4.010   1.924  0.1050 -0.2007  0.1990
22742W        W39589  15.449   6.037   3.229  0.3385 -0.0038  0.4174
22743W        W39590  15.628   2.105   0.535  0.2726  0.1736  0.2242
22744W        W39591  17.956  14.772  13.459  0.0340 -0.1276  0.1275
22745W        W39592  14.254   0.101   3.303 -0.0105  0.1137 -0.3044
22746W        W39593  17.162   6.660  13.812 -0.1514  0.2950  0.0842
22747W        W39594  16.696  15.811   2.634  0.0755  0.1158  0.0572
22748W        W39595  12.430   5.189  11.466  0.0077 -0.0538 -0.2861
22749W        W39596   3.980   0.694   5.884 -0.2013  0.1891 -0.0189
22750W        W39597   4.980   5.918  12.996  0.3191 -0.3906 -0.1130
22751W        W39598   2.874   7.775   0.144 -0.0792  0.2166  0.0730
22752W        W39599   5.175   0.529  12.134 -0.0445 -0.0751 -0.0615
22753W        W39600   4.565   8.158   1.070 -0.0853  0.1166  0.3909
22754W        W39601  16.449  13.923  13.639 -0.1609  0.2634 -0.0213
22755W        W39602   7.560   6.246  14.330  0.2729 -0.0847  0.2141
22756W        W39603  12.869   3.104   0.036  0.0850  0.2404  0.1706
22757W        W39604   8.545   3.459   0.156  0.0476  0.0975  0.4078
22758W        W39605   4.285   7.825  11.866  0.2220  0.1576  0.2559
22759W        W39606  10.541   9.699  13.502 -0.1186 -0.1600  0.4765
22760W        W39607  17.029  17.875   2.611 -0.2625 -0.1323  0.1755
22761W        W39608  10.238   0.128  16.032  0.3307  0.2745  0.0070
22762W        W39609   7.339   3.348   1.354  0.0561  0.1595  0.1055
22763W        W39610   6.563   3.213  12.129  0.2321 -0.0329  0.0992
22764W        W39611   6.132   9.027  14.183  0.3089  0.0410 -0.2493
22765W        W39612   0.587   1.484  11.845  0.0231  0.1775 -0.0641
22766W        W39613   4.693   0.935   5.447  0.2096 -0.2767 -0.0277
22767W        W39614  16.441  14.437   3.623 -0.1021  0.0978 -0.0333
22768W        W39615   3.375  10.756  16.600  0.1031  0.2331 -0.0133
22769W        W39616  12.372   2.378  12.460 -0.0541 -0.0793  0.0814
22770W        W39617  15.116   6.131   4.747  0.2415 -0.0949  0.0068
22771W        W39618  18.171  14.696  14.912 -0.1119  0.2614 -0.2390
22772W        W39619   1.359  10.958   6.315 -0.1593  0.3252 -0.0870
22773W        W39620  15.113   1.278  12.334 -0.1271 -0.0646 -0.0991
22774W        W39621   9.200  13.018  12.206  0.0720  0.2343 -0.2629
22775W        W39622   9.425   4.139   5.826 -0.1824 -0.3033  0.1070
22776W        W39623   5.750  12.514   3.045  0.4242  0.1809  0.0440
22777W        W39624  12.272   7.677  15.079  0.4248 -0.1309  0.4436
22778W        W39625   6.544   4.478  13.458  0.3261  0.0360 -0.2701
22779W        W39626  11.955  14.628  11.660  0.0559  0.0930 -0.1186
22780W        W39627   8.459   2.796   3.645 -0.4328 -0.6397  0.1041
22781W        W39628   6.442   9.362  14.769  0.1707  0.0699 -0.0059
22782W        W39629  17.913  11.859  15.400 -0.2039 -0.1829  0.0416
22783W        W39630   8.614  14.869   3.667  0.0404  0.0718  0.2443
22784W        W39631  11.127  11.545  15.181  0.1104 -0.0098  0.0496
22785W        W39632   2.982   2.238  16.079  0.0650  0.1706 -0.2463
22786W        W39633   8.476  17.600   3.409  0.0893  0.0684 -0.1316
22787W        W39634   1.103  15.257  15.819 -0.1416  0.1498  0.0427
22788W        W39635   6.484   0.185   3.889  0.1653  0.1050  0.0945
22789W        W39636  17.462   3.970  15.259  0.1281  0.2443 -0.1579
22790W        W39637  15.805   4.104  14.111 -0.0122 -0.0564 -0.0417
22791W        W39638  16.627   0.254   5.100  0.0831 -0.2440  0.0404
22792W        W39639   1.619   1.233  15.788  0.1850 -0.1721  0.1214
22793W        W39640  13.873  14.141  11.681  0.2156 -0.3347  0.2416
22794W        W39641  10.655  11.455   0.292  0.0232 -0.2039 -0.1119
22795W        W39642  14.530   2.473   1.612 -0.0606 -0.1297  0.0644
22796W        W39643  17.560  17.907   2.998 -0.2768  0.0546  0.2697
22797W        W39644   0.013   4.622   3.326 -0.1711  0.0152  0.0187
22798W        W39645   8.873   8.840   2.690 -0.3566  0.2232 -0.2890
22799W        W39646   6.494  14.418  11.603 -0.1131 -0.1061 -0.1483
22800W        W39647  13.733   0.823  15.533 -0.0880 -0.1357 -0.2254
22801W        W39648   7.733  17.706   5.848  0.2808 -0.4676 -0.1539
22802W        W39649   3.834  11.414  15.850  0.3850 -0.1417 -0.1198
22803W        W39650   3.420   0.359  12.500  0.2269  0.1320 -0.0357
22804W        W39651   2.123   1.067  16.346  0.2048 -0.0243  0.0348
22805W        W39652  12.689  13.155   0.402 -0.0078 -0.1535 -0.1427
22806W        W39653  12.723   6.583   1.839 -0.2224  0.1367 -0.0860
22807W        W39654   7.880  18.156  14.873 -0.0791 -0.3712 -0.0482
22808W        W39655  12.033   1.317  12.991  0.2838  0.0883  0.0457
22809W        W39656  11.863  16.629   0.579  0.0431  0.0028 -0.0447
22810W        W39657  12.340   2.829   5.727  0.0774 -0.0040  0.1743
22811W        W39658  12.489   8.783  12.752 -0.0554  0.2861 -0.0873
22812W        W39659  14.576   7.150   1.573 -0.0645  0.4348  0.1662
22813W        W39660  15.938   2.898   0.373 -0.0526 -0.1717  0.0599
22814W        W39661   0.747   6.920   5.284  0.2983 -0.1313 -0.1198
22815W        W39662  15.080  17.249   3.308 -0.0840  0.1986 -0.0583
22816W        W39663  11.305   7.298  14.522 -0.2354  0.1198 -0.2149
22817W        W39664   0.785   7.568   3.311  0.3455 -0.0197  0.0687
22818W        W39665  11.464  11.725   0.914 -0.2319  0.2175  0.0105
22819W        W39666   3.543  13.345   6.084  0.1459 -0.2053  0.0384
22820W        W39667   8.295  17.681   1.518  0.0030  0.0802 -0.0151
22821W        W39668   1.044   0.785   2.083  0.0535 -0.1958  0.2132
22822W        W39669  13.851  11.264   1.905 -0.0913 -0.0396  0.3493
22823W        W39670   1.624  15.892   6.530  0.1145 -0.3762  0.0501
22824W        W39671   4.940  16.170   3.385  0.5435  0.2004 -0.1779
22825W        W39672  13.578   0.572   2.637 -0.0592  0.1902 -0.1841
22826W        W39673  13.885   4.666  12.557  0.2406  0.2433  0.0200
22827W        W39674   3.736   6.907   2.600 -0.0362  0.1714  0.3472
22828W        W39675   8.617  10.520  12.861  0.0542 -0.1305 -0.2474
22829W        W39676   0.408  13.971  13.363  0.1941  0.1297  0.3060
22830W        W39677   1.997   4.930  16.253 -0.0689  0.2413  0.1508
22831W        W39678  14.880   8.320   0.187  0.2029 -0.1157 -0.0943
22832W        W39679   8.261   0.142  13.094 -0.0653 -0.0755 -0.4007
22833W        W39680  16.037   8.756  12.030  0.3208 -0.1318  0.2356
22834W        W39681   2.392  15.584  14.323 -0.0740  0.0320 -0.0344
22835W        W39682   4.605  12.142   0.557 -0.1533  0.1546 -0.1070
22836W        W39683  13.692   2.155  12.088 -0.2940 -0.0258  0.4498
22837W        W39684  12.933  11.388   0.754  0.1608 -0.0352  0.2354
22838W        W39685   5.395  17.858   3.411 -0.0597  0.1159  0.1493
22839W        W39686   8.448   2.145   3.065 -0.2705 -0.1503  0.1158
22840W        W39687  16.724  17.045  16.142  0.3126 -0.0011 -0.0252
22841W        W39688   1.514  10.610  11.658  0.0319  0.1457 -0.2015
22842W        W39689   4.136  11.235  14.007 -0.3208 -0.0988  0.1678
22843W        W39690   3.658   4.965   2.250 -0.2829 -0.0297  0.0408
22844W        W39691   3.316   2.828  13.418  0.1098 -0.3985  0.1002
22845W        W39692   8.107  10.089   1.598 -0.0207 -0.1251  0.0070
22846W        W39693  15.864  16.844  15.959 -0.0021 -0.2268 -0.1889
22847W        W39694  15.501  17.782   4.554 -0.0616  0.2271 -0.2909
22848W        W39695   7.965  14.002   4.649  0.0125  0.0239 -0.3055
22849W        W39696  16.053  14.356   4.018 -0.3510  0.0113  0.0690
22850W        W39697   1.106   3.103   2.264 -0.1811  0.0705 -0.0922
22851W        W39698   9.809   1.432  12.395  0.0544  0.1344 -0.0891
22852W        W39699   0.825   8.891  14.940  0.2930 -0.0903 -0.1802
22853W        W39700   9.631   1.913  15.761 -0.2765  0.2897  0.2549
22854W        W39701  16.794  15.479  16.149 -0.0401 -0.2361 -0.3254
22855W        W39702  18.031   2.775   3.616 -0.1673 -0.0727 -0.1981
22856W        W39703  17.100   0.076   0.022  0.0756  0.1228  0.4457
22857W        W39704  14.646   9.609  13.062  0.0764 -0.1420 -0.2467
22858W        W39705  17.491   9.941  12.883 -0.2035 -0.1688  0.0911
22859W        W39706  10.680   3.647   3.945 -0.3461 -0.2362  0.0074
22860W        W39707   3.624   2.312   2.916 -0.4496 -0.0445 -0.1719
22861W        W39708   5.687   5.759  16.480 -0.1422 -0.0559  0.0460
22862W        W39709   0.221  15.490  12.890  0.0841 -0.1772 -0.1605
22863W        W39710  11.148  12.040   2.961 -0.1962 -0.1520  0.0206
22864W        W39711   0.768   2.046   0.405  0.3418  0.1513  0.0528
22865W        W39712  12.898   1.056  11.985 -0.0297  0.3477 -0.1425
22866W        W39713   7.691  14.792   2.816  0.2369 -0.0211 -0.1144
22867W        W39714  11.591   4.382  12.098  0.1653  0.0226 -0.3447
22868W        W39715   2.510  13.850  12.884 -0.2295  0.0357  0.1796
22869W        W39716  11.527   3.255  15.098  0.0165 -0.2299  0.0275
22870W        W39717   2.221   1.113   0.685 -0.0810  0.0947  0.1097
22871W        W39718   6.947   8.088  13.628 -0.2628  0.0134 -0.1214
22872W        W39719   7.753   1.754   5.892  0.2623  0.1156 -0.0991
22873W        W39720   5.680  13.537  14.898  0.2298 -0.1748 -0.0611
22874W        W39721   9.592   1.447   1.381 -0.1162 -0.1875  0.0968
22875W        W39722  11.256  16.143   0.454 -0.1855  0.0278  0.0147
22876W        W39723   9.748   9.035  11.296 -0.2947 -0.1064  0.0548
22877W        W39724   4.115  13.360  15.158  0.2513  0.0876 -0.0842
22878W        W39725  11.152   4.365  14.444  0.1182  0.2326  0.0347
22879W        W39726  10.304  16.050   3.233  0.2069 -0.0795 -0.0178
22880W        W39727  14.622   3.812   5.316 -0.1966  0.1796 -0.1025
22881W        W39728   5.543   7.542  15.812  0.0022 -0.1329 -0.0285
22882W        W39729  17.126  16.827   3.456  0.1314 -0.2436 -0.1264
22883W        W39730  10.904   1.085  13.834 -0.4127 -0.1670  0.0739
22884W        W39731  14.338   1.151   5.278  0.0122 -0.1983  0.0421
22885W        W39732  11.394   5.998   0.938  0.2594  0.0335  0.1443
22886W        W39733   6.199  11.833  12.125 -0.1405  0.1900 -0.0323
22887W        W39734   8.680  15.737   3.059  0.2092  0.1636 -0.2524
22888W        W39735   2.846   9.906   3.714  0.2237 -0.3634 -0.0243
22889W        W39736   4.687   9.485  12.141 -0.0198 -0.2349  0.0759
22890W        W39737   8.890  17.607   4.146 -0.0938  0.0308 -0.0349
22891W        W39738   7.471  17.356   4.887  0.0713 -0.2475 -0.1721
22892W        W39739   6.862  15.409  14.182  0.2300  0.3394 -0.0181
22893W        W39740   7.397  11.201   2.177  0.0714  0.1760  0.1203
22894W        W39741   0.119  16.850  12.357  0.0842 -0.0015 -0.1989
22895W        W39742   2.137   8.363  12.862 -0.2535 -0.0093  0.1388
22896W        W39743   1.581   4.505   3.453 -0.0504  0.0366 -0.2247
22897W        W39744  16.139   6.275   1.286  0.1168 -0.1115  0.2060
22898W        W39745   6.032   8.532   0.333 -0.0117 -0.0026  0.3175
22899W        W39746   8.086  16.958   2.181 -0.6056 -0.0818  0.3167
22900W        W39747  17.166  15.491  13.511 -0.0993  0.0740  0.0603
22901W        W39748   9.939  16.121   1.437  0.2395  0.3141 -0.0508
22902W        W39749  17.881  14.589   1.135 -0.0955  0.1730 -0.1351
22903W        W39750  12.202  17.143  13.960 -0.1268  0.1925  0.0223
22904W        W39751   6.765  17.529   0.358 -0.0047 -0.0709  0.1017
22905W        W39752  11.464   1.777   0.955  0.0231  0.3309 -0.2315
22906W        W39753   0.010   2.806   2.203 -0.1610 -0.0212  0.0883
22907W        W39754   9.135   7.417  12.356  0.2237  0.1027 -0.1562
22908W        W39755   9.053  16.059  13.118 -0.2544  0.1245 -0.1351
22909W        W39756  16.044  17.277  14.986  0.0776  0.0563 -0.0747
22910W        W39757  11.098   8.080   2.388  0.3107  0.2044  0.5224
22911W        W39758   2.628   4.930   1.632  0.3762  0.0667 -0.0272
22912W        W39759  16.037   1.731  14.790 -0.0222 -0.0198 -0.3237
22913W        W39760   9.471   6.897   1.958 -0.1343  0.4229 -0.0607
22914W        W39761   6.974  14.895   0.223  0.0518 -0.1823  0.0610
22915W        W39762   9.238  11.734  15.081 -0.1714 -0.0420  0.1778
22916W        W39763   4.357  10.761  14.110  0.0717 -0.1445 -0.1030
22917W        W39764  14.990  16.849  12.889  0.4234 -0.1344 -0.0088
22918W        W39765  14.889   2.928   1.860  0.1145  0.2347  0.0526
22919W        W39766  15.708  13.380  14.734  0.0798  0.1325  0.1415
22920W        W39767   7.199   0.961  15.395  0.4274  0.0256 -0.0498
22921W        W39768  11.925   1.727   4.987 -0.0696  0.1137  0.0982
22922W        W39769   8.704  12.866   4.445  0.3207  0.0518 -0.1808
22923W        W39770  11.606  12.587  16.005  0.1497  0.0873  0.0046
22924W        W39771   4.245   4.720   0.840  0.0339 -0.3460  0.1259
22925W        W39772   5.310   6.360  14.484  0.1718 -0.2302 -0.2573
22926W        W39773   5.916  11.047   0.975  0.3085  0.1125 -0.0399
22927W        W39774  15.081  13.438  13.277 -0.1897  0.2230 -0.2285
22928W        W39775  13.848  14.979  11.186  0.2127 -0.0868 -0.0040
22929W        W39776  12.990   4.065   4.538  0.0886  0.1661 -0.0508
22930W        W39777   9.083  12.188   0.923  0.2848  0.0334 -0.0140
22931W        W39778   6.207  11.029  11.649  0.0249  0.0166 -0.4661
22932W        W39779  17.080   4.064  14.307  0.1399  0.0938  0.1304
22933W        W39780   5.203   3.995   2.210 -0.3063  0.1301  0.3552
22934W        W39781   8.869   0.223   3.533  0.3738 -0.3226  0.2932
22935W        W39782  14.893   6.740   1.608 -0.0110 -0.2122 -0.1021
22936W        W39783  17.469   2.977   0.768 -0.1773 -0.0675 -0.1162
22937W        W39784  11.524   9.071   0.794  0.2910 -0.4683  0.1871
22938W        W39785   5.569   6.025   3.085 -0.2228  0.1115 -0.0063
22939W        W39786   5.563  11.724  15.101  0.4217  0.1075  0.3258
22940W        W39787  16.814  10.326  13.391 -0.2404  0.2264  0.1410
22941W        W39788   9.841   4.418   0.665 -0.0375  0.0290  0.1118
22942W        W39789  10.689  10.098  14.780  0.1135 -0.0180 -0.1858
22943W        W39790  13.369   3.177  12.930  0.1316 -0.1298  0.2548
22944W        W39791   9.123   5.580   1.762  0.0220  0.1435 -0.0479
22945W        W39792   4.616   0.856   2.835 -0.0987 -0.1045  0.2371
22946W        W39793  10.040  10.515   0.252  0.1050  0.2440  0.0698
22947W        W39794  15.505  13.006  12.402 -0.0355 -0.0749  0.0409
22948W        W39795   8.006   1.131   5.046 -0.2096  0.1448  0.2352
22949W        W39796   7.227   5.212  12.750  0.1533  0.2871 -0.1853
22950W        W39797   6.872   5.468  16.010  0.0573 -0.3069  0.0750
22951W        W39798  11.808   6.878   3.628 -0.0091 -0.1905 -0.0983
22952W        W39799   7.575  17.493  16.297  0.1105 -0.3187  0.1541
22953W        W39800  15.506  14.210  16.262  0.1559 -0.0491  0.1143
22954W        W39801   4.755   5.311  14.473  0.0945 -0.3249 -0.1933
22955W        W39802   3.770   4.505   1.367  0.0501  0.3477  0.2831
22956W        W39803  11.320  14.725  12.084 -0.3059 -0.1404 -0.4211
22957W        W39804   9.587   9.056  12.382  0.0355  0.0562  0.1320
22958W        W39805   7.304   4.015   4.206 -0.0147 -0.1976  0.0868
22959W        W39806  10.696  14.022   5.597 -0.1727 -0.1586  0.0604
22960W        W39807  12.248  16.771  11.662  0.3648  0.2938  0.0697
22961W        W39808   3.361   0.361   1.977  0.0612  0.0830  0.3307
22962W        W39809   1.793   1.676   3.531 -0.2014  0.1867 -0.0664
22963W        W39810   8.283  15.136  15.901 -0.0230 -0.1975  0.2052
22964W        W39811   3.277   1.817   0.763 -0.3122  0.0228 -0.1512
22965W        W39812   5.185  14.778   3.124 -0.0125  0.0778 -0.1358
22966W        W39813   9.545   3.451   3.296  0.0678  0.1029  0.0924
22967W        W39814   0.643  17.783  13.906  0.0661 -0.0286 -0.0257
22968W        W39815   6.830   8.644   2.687 -0.1282  0.0680  0.0327
22969W        W39816   3.623   1.698   4.661  0.0349 -0.1204  0.3046
22970W        W39817   9.032   5.649   2.564 -0.0613  0.2741 -0.0329
22971W        W39818   3.713   8.139  12.484 -0.1108  0.1699  0.3739
22972W        W39819   2.325  13.681   3.837 -0.1319 -0.0143  0.1904
22973W        W39820   5.818   1.473   1.669 -0.2710  0.1640  0.2221
22974W        W39821   0.833  15.459  13.465 -0.0735  0.1887  0.1002
22975W        W39822   4.276   8.709  15.090  0.1017  0.1212 -0.0424
22976W        W39823  16.004  14.447  16.362 -0.1483  0.1245 -0.2342
22977W        W39824   4.606   6.326  12.951 -0.0166 -0.3084 -0.1365
22978W        W39825   2.610  15.925   0.508  0.1999 -0.1248 -0.0554
22979W        W39826   0.738  10.584   1.225  0.0550 -0.0449  0.1079
22980W        W39827  12.203   9.965   1.980 -0.0628 -0.0242 -0.0203
22981W        W39828  15.334  11.497   2.943  0.0709 -0.0207 -0.2317
22982W        W39829  15.199   8.034  11.815  0.3403 -0.1237 -0.0567
22983W        W39830  16.587  10.900  11.497 -0.0008  0.0491 -0.1112
22984W        W39831  11.404  10.867  13.410  0.1486  0.2765 -0.1278
22985W        W39832  11.684   2.016  16.527 -0.0300  0.2796  0.0493
22986W        W39833  17.817   1.581  14.511 -0.0618 -0.3531  0.0423
22987W        W39834  16.947   0.785  15.820 -0.2276 -0.0120 -0.3239
22988W        W39835   2.293   7.087   0.359  0.0474  0.0073  0.0627
22989W        W39836   8.798   6.353  16.010 -0.2393  0.0135  0.0305
22990W        W39837   9.392  16.548  13.237  0.0870 -0.0994  0.0903
22991W        W39838  17.234  16.522   5.301  0.2192  0.0834  0.1340
22992W        W39839   0.608   5.914  11.802  0.2025  0.2403  0.4685
22993W        W39840   2.501  15.954  12.825  0.0133  0.0536 -0.1238
22994W        W39841  12.501   4.973  13.485  0.3405 -0.0991  0.1842
22995W        W39842   6.666  14.818  12.098  0.4093  0.1262  0.2607
22996W        W39843   5.428   0.652  16.359  0.0893  0.0102  0.0200
22997W        W39844  10.320  10.651  11.712 -0.0844 -0.2355 -0.1286
22998W        W39845   2.288   1.820   2.728  0.1284  0.0732  0.0180
22999W        W39846  14.893   5.567  15.797  0.0613  0.1714 -0.0972
23000W        W39847   7.150   5.947   0.672 -0.0276  0.0460 -0.0797
23001W        W39848  12.074   5.996   1.691 -0.0868 -0.0309 -0.0317
23002W        W39849   3.661  14.662   4.271  0.0351 -0.2021 -0.4871
23003W        W39850   8.468   4.283  15.078  0.3637 -0.0772 -0.0651
23004W        W39851   7.865  15.351  15.593 -0.1542  0.1688 -0.2022
23005W        W39852   2.001   4.413  11.534  0.1993  0.1740  0.0785
23006W        W39853  18.160  17.079   3.095  0.0923  0.0841 -0.0143
23007W        W39854   6.883   8.130  16.480  0.1148 -0.2245 -0.0518
23008W        W39855   0.634   8.353   4.893 -0.0983  0.3881  0.4112
23009W        W39856  15.008   1.890   3.481 -0.0584  0.2564  0.2030
23010W        W39857   9.171   9.670   2.168 -0.0323 -0.1068 -0.2224
23011W        W39858  10.179   5.332   5.609 -0.2608  0.0711  0.0790
23012W        W39859   0.060   6.126  12.090  0.1821  0.0027  0.1103
23013W        W39860  15.616   9.461  12.152 -0.2978  0.2966  0.0088
23014W        W39861   7.222  17.529  14.445  0.0217 -0.2819 -0.0135
23015W        W39862  11.995   7.716  15.500  0.0970 -0.1106  0.2799
23016W        W39863  15.175  15.307   1.016 -0.0388  0.1889 -0.1417
23017W        W39864  13.732   9.842  12.865  0.1763  0.3353  0.2259
23018W        W39865   4.273  14.188  11.826  0.2453 -0.0870 -0.0504
23019W        W39866   7.717  15.808   0.300 -0.3829 -0.1007 -0.2011
23020W        W39867  11.980  13.480  13.731  0.2210  0.1289 -0.0990
23021W        W39868  11.329   7.068   0.784 -0.1602  0.1004 -0.1000
23022W        W39869  13.840   5.530  12.231 -0.1691  0.0502  0.0390
23023W        W39870  12.923   5.724  16.022  0.0586  0.0979  0.0041
23024W        W39871  12.746   6.069   3.872  0.0847  0.0729 -0.1583
23025W        W39872  12.811  10.166   2.424 -0.0552  0.0384  0.1765
23026W        W39873   7.474   0.041   2.348 -0.0298  0.2011  0.1456
23027W        W39874   9.619   2.890  14.931  0.1410 -0.0186  0.0801
23028W        W39875  10.229  16.916  14.094 -0.0890  0.0579 -0.0759
23029W        W39876   6.811   9.980   0.615  0.0403 -0.0170  0.4798
23030W        W39877  17.425   1.975  14.195  0.1276 -0.1308 -0.0793
23031W        W39878   3.555   9.333  13.058  0.2785  0.0635  0.2075
23032W        W39879  10.753   6.169  14.852  0.0692  0.0558  0.1043
23033W        W39880  10.820   1.088   2.160 -0.0054  0.0476 -0.1622
23034W        W39881   3.679  17.814   3.929  0.3367 -0.1645 -0.3331
23035W        W39882  14.512  11.667   0.223  0.1294 -0.1031 -0.1724
23036W        W39883   4.244   3.178  12.027  0.0102  0.1346  0.1024
23037W        W39884  16.533  16.585   0.899 -0.1737  0.0276 -0.0593
23038W        W39885   1.983  15.445  14.882 -0.0594 -0.2956  0.1767
23039W        W39886   6.272   5.946  15.460 -0.0079 -0.1545  0.1553
23040W        W39887  10.558   1.911  15.764 -0.2250  0.1643  0.1844
23041W        W39888   7.340   9.702  10.800 -0.0276 -0.3039  0.2751
23042W        W39889   3.201   7.807   1.168  0.2919  0.0402 -0.0038
23043W        W39890  16.792  16.652  14.151  0.0108  0.2176 -0.1094
23044W        W39891  18.045   8.613  11.891 -0.0182  0.1430  0.0529
23045W        W39892  17.103   5.900  12.429  0.0172  0.1236 -0.1651
23046W        W39893  11.166   0.159  14.909  0.1030 -0.0343 -0.1897
23047W        W39894  10.440   4.574   0.748 -0.0766 -0.1302 -0.2250
23048W        W39895   2.033   9.641   3.272  0.4680  0.0552  0.2070
23049W        W39896  11.219   4.011   2.119 -0.1115 -0.0197 -0.0436
23050W        W39897   5.840  17.580   2.168 -0.1645 -0.0851 -0.0310
23051W        W39898   9.600   2.110   3.718  0.2370  0.2452 -0.2604
23052W        W39899  16.953  16.497   1.957 -0.1928  0.1580 -0.1485
23053W        W39900  16.792  11.922  11.978  0.2676  0.0065  0.1788
23054W        W39901   4.578   9.361  12.844  0.1010  0.0011  0.1545
23055W        W39902   0.802   9.710  15.437  0.1140 -0.2187  0.1367
23056W        W39903  12.753  13.838  14.741 -0.1726 -0.0853  0.1552
23057W        W39904   8.190  12.538  11.635 -0.0548 -0.2335 -0.0196
23058W        W39905   5.282   0.463   5.579  0.1571  0.0449 -0.2699
23059W        W39906   7.790   8.422  11.395 -0.0458 -0.1855 -0.0059
23060W        W39907   4.658   9.663  13.720  0.1248  0.2703 -0.0273
23061W        W39908   9.244   1.740   3.749 -0.0304  0.1525  0.3535
23062W        W39909   4.764  18.011  13.753 -0.0755 -0.2210 -0.6654
23063W        W39910  16.895   5.474   3.506  0.1473  0.1659  0.1236
23064W        W39911   0.296   8.909  16.549 -0.3324  0.1789 -0.1191
23065W        W39912   6.580   3.629  15.719 -0.0687 -0.2884 -0.1352
23066W        W39913  13.469  16.609   4.530 -0.0924 -0.1266  0.1632
23067W        W39914   6.124  15.611   3.188  0.0154  0.0811  0.1404
23068W        W39915  15.791  11.270  11.798  0.1119 -0.0738 -0.4577
23069W        W39916   7.922   0.855  15.151  0.1830 -0.0788  0.0364
23070W        W39917   2.584   0.137   2.981  0.3227 -0.1005 -0.1161
23071W        W39918  11.498  16.127  13.098 -0.1364  0.0120 -0.0771
23072W        W39919  13.979  11.489   3.294  0.1404 -0.1236 -0.0815
23073W        W39920   8.452  10.880  15.214 -0.0494  0.2014  0.3537
23074W        W39921  13.007   6.891  15.088  0.0837  0.2619  0.1057
23075W        W39922   4.474  15.649  15.266 -0.0876  0.2096 -0.1250
23076W        W39923  15.175   9.535   0.861  0.1200  0.2259 -0.2744
23077W        W39924   4.178   5.022   5.135  0.0603 -0.0959  0.0314
23078W        W39925   3.982   0.829   4.533 -0.0399  0.2287 -0.2507
23079W        W39926   8.688  16.216   4.368 -0.0265 -0.0898 -0.1663
23080W        W39927  16.875  10.705   1.720 -0.1960 -0.1522  0.0097
23081W        W39928   5.861   0.389  13.672 -0.0740  0.3631  0.0576
23082W        W39929  12.890   8.972   3.281 -0.0710  0.3252 -0.0180
23083W        W39930   0.784   1.300   2.033  0.0845  0.1330 -0.0385
23084W        W39931   9.999   7.078   0.902 -0.0100 -0.0362 -0.2487
23085W        W39932  12.139   3.305  15.885  0.1909 -0.0401  0.0693
23086W        W39933  16.306   5.583   3.850 -0.1180 -0.2793 -0.1362
23087W        W39934  16.903  16.827   3.884  0.1346 -0.0806  0.1662
23088W        W39935   5.888  10.616  12.870  0.1289 -0.0857  0.1344
23089W        W39936   3.642  12.658  16.137  0.0882  0.0435 -0.0157
23090W        W39937   7.857   6.780   4.383  0.1223 -0.1433  0.1532
23091W        W39938   2.218  15.003   5.730 -0.0869  0.4278 -0.1937
23092W        W39939  13.228   9.878  12.953  0.0666  0.0452 -0.1206
23093W        W39940  13.748   5.318   4.321 -0.2293 -0.1483 -0.1424
23094W        W39941   2.934   8.498   5.102  0.0588 -0.3285  0.1647
23095W        W39942  12.357  14.329  11.729  0.1049  0.1389 -0.1999
23096W        W39943   8.639  11.716  15.194  0.2080  0.1193  0.1965
23097W        W39944   3.950  12.554  14.683  0.2260  0.1032  0.0040
23098W        W39945   5.691  13.794  11.360  0.0326 -0.2316  0.0260
23099W        W39946   5.642  15.263  15.537 -0.0549  0.1312  0.0887
23100W        W39947   6.790   2.166   3.973 -0.0194 -0.1312  0.1586
23101W        W39948   5.241  12.526   1.935 -0.0422  0.0663 -0.0634
23102W        W39949   2.340   8.422  14.597  0.0530  0.0995 -0.2728
23103W        W39950  16.541   2.030  12.776  0.2816  0.0286 -0.2016
23104W        W39951   8.893   6.330   5.699 -0.3367  0.3318 -0.0354
23105W        W39952   3.942  17.343   2.934 -0.0390 -0.2405  0.1859
23106W        W39953  12.434  18.059   5.714  0.2417 -0.0974 -0.0345
23107W        W39954  15.189  14.536  16.443 -0.2468  0.1859 -0.1065
23108W        W39955  14.597   8.179  14.272  0.1879 -0.1828 -0.1360
23109W        W39956  16.125   9.070  16.357 -0.0517 -0.2666 -0.0902
23110W        W39957   8.173  12.552  15.729 -0.4312 -0.1251 -0.1300
23111W        W39958   0.586  12.240  15.882  0.0363 -0.1395 -0.1395
23112W        W39959   4.456  13.341   4.228  0.2076  0.0828 -0.2393
23113W        W39960  10.569   8.207   3.960 -0.2165 -0.1362 -0.0713
23114W        W39961   7.794  14.823   4.190 -0.0601  0.0435  0.1085
23115W        W39962   6.265   9.851   0.638 -0.0157  0.0783  0.0886
23116W        W39963  13.792  14.730   1.930  0.0664 -0.2065  0.2268
23117W        W39964   9.216   6.928  14.963  0.2371 -0.3350  0.0128
23118W        W39965   8.774   7.033  14.735 -0.3015 -0.2641  0.0673
23119W        W39966  10.970  11.017  15.694 -0.0556  0.1799 -0.0273
23120W        W39967   9.019   9.076   3.999  0.1031 -0.1818 -0.0674
23121W        W39968   4.498   6.008   0.857 -0.2052  0.1281  0.0039
23122W        W39969   9.123  13.334  11.611 -0.2550  0.2361 -0.1380
23123W        W39970  12.812  10.421   1.926  0.1926 -0.2452  0.0244
23124W        W39971  12.240   3.333   2.334 -0.0117 -0.0458 -0.0719
23125W        W39972   0.634   5.717  12.238 -0.0792 -0.2751  0.2516
23126W        W39973   9.639  12.191   0.964  0.1438 -0.1824 -0.1295
23127W        W39974   8.104  10.040   0.450 -0.0056  0.0689 -0.0413
23128W        W39975  13.537  14.232   2.598  0.2195  0.0658  0.1644
23129W        W39976   9.080   2.220  15.099 -0.1161  0.1479  0.3302
23130W        W39977   5.317   9.694  15.115 -0.3123 -0.0569 -0.3509
23131W        W39978   4.595  14.868  15.719 -0.0230 -0.1025  0.0810
23132W        W39979   9.901   8.524  14.870 -0.0710 -0.2203  0.0146
23133W        W39980   9.194  12.252  14.307 -0.1816  0.1985 -0.0579
23134W        W39981  14.886  16.880   6.206  0.3019  0.2151 -0.2105
23135W        W39982  12.455  16.512   3.788 -0.1204  0.1610 -0.1338
23136W        W39983  10.888   2.969   4.145  0.0844 -0.0956  0.0551
23137W        W39984  13.800   9.200  16.186  0.3260  0.0384  0.2423
23138W        W39985  16.391  17.390   4.572 -0.2365  0.4826  0.0525
23139W        W39986   7.959   6.023   2.267 -0.1324 -0.0381 -0.0704
23140W        W39987  14.258   6.983  12.556  0.0364 -0.1508 -0.1387
23141W        W39988  10.945  12.719   1.564  0.2778  0.3044 -0.0849
23142W        W39989   2.753  11.572   5.370  0.0908 -0.1840 -0.0203
23143W        W39990  14.164  13.873  16.480 -0.0673  0.1649 -0.2033
23144W        W39991   5.529   7.261  13.725 -0.1762 -0.2409  0.0586
23145W        W39992  12.815  11.995  14.580 -0.1372  0.0337  0.2452
23146W        W39993  17.417   2.099   0.307 -0.1132  0.2302 -0.0639
23147W        W39994   8.447  18.079   3.211 -0.0551  0.1370 -0.1310
23148W        W39995  18.024  12.953  16.211 -0.2266 -0.2789  0.1186
23149W        W39996  13.800   6.071   2.134  0.1487 -0.0410  0.0585
23150W        W39997   4.336   4.248  13.043  0.2168  0.1726 -0.0810
23151W        W39998  13.518  11.802  14.094  0.1938 -0.1512 -0.0260
23152W        W39999   3.241   6.302  12.706 -0.3216 -0.2157  0.1719
23153W        W40000   9.510   7.150  12.162  0.2441  0.0230 -0.1556
23154W        W40001   9.088   5.486   4.289 -0.0581 -0.0158 -0.1434
23155W        W40002  10.485   6.466   2.639  0.0174 -0.1360 -0.2622
23156W        W40003   6.148   1.438  12.535 -0.1815 -0.2249  0.0681
23157W        W40004  12.200  17.540   2.872  0.0522 -0.1996  0.1018
23158W        W40005  16.197  14.172   2.065  0.1592  0.0940  0.0577
23159W        W40006  10.648  10.136   5.935 -0.0210  0.1247 -0.0138
23160W        W40007   3.122   6.562   5.167 -0.1379  0.1292  0.0558
23161W        W40008  12.249  15.385  16.529 -0.0933  0.0503  0.3768
23162W        W40009   9.754  16.085   0.571 -0.0182 -0.2123  0.0010
23163W        W40010  13.860  11.478   6.235 -0.1415  0.2760 -0.0826
23164W        W40011   3.235  10.707  11.257 -0.0987  0.0710  0.0619
23165W        W40012  11.275   4.607   1.358  0.0991 -0.0668  0.0181
23166W        W40013   7.352  15.428  16.381  0.0222 -0.1050 -0.0626
23167W        W40014  11.054   4.464   1.873  0.0981 -0.1139  0.0406
23168W        W40015  16.715  10.065   4.249 -0.2471  0.0280 -0.0059
23169W        W40016   3.330  13.316  14.177  0.0720  0.1918  0.2012
23170W        W40017  10.106   6.033  15.633  0.1575  0.0232 -0.1011
23171W        W40018  11.959   2.402   1.979 -0.0919 -0.1104 -0.1153
23172W        W40019   8.112   1.077  12.644  0.0323  0.0038  0.0418
23173W        W40020  15.260   9.229  15.419  0.0753 -0.0255 -0.0835
23174W        W40021  14.558  14.364   3.935 -0.3846  0.3935 -0.3789
23175W        W40022   9.206   4.020   4.683 -0.1392  0.0094 -0.1712
23176W        W40023   4.806  14.128  13.516 -0.0202 -0.0601  0.1098
23177W        W40024   6.426  11.839   4.387  0.1576  0.2911  0.1702
23178W        W40025   7.159  14.083  16.034 -0.1134  0.1888  0.2561
23179W        W40026   9.819  10.364  14.376 -0.2327  0.2138 -0.2160
23180W        W40027   4.969  10.288  13.096  0.2118  0.0178 -0.1292
23181W        W40028   6.111   9.346   2.842 -0.1466  0.0452 -0.0719
23182W        W40029  13.509  13.786  15.232 -0.0663 -0.2548 -0.0531
23183W        W40030  12.463   6.705  11.684  0.1775 -0.1952  0.1069
23184W        W40031   4.628  14.656   0.987 -0.1035 -0.3804 -0.0929
23185W        W40032   8.567   9.716   5.336 -0.2825  0.0513 -0.4283
23186W        W40033   8.045  10.034  13.841 -0.1384  0.0545  0.0902
23187W        W40034  17.172   5.771  13.943 -0.0393 -0.1401 -0.2489
23188W        W40035  11.795   8.410   4.331 -0.0217 -0.1107 -0.1653
23189W        W40036   0.853  17.980   4.585  0.0790  0.1291 -0.0536
23190W        W40037  15.743   1.037  14.529  0.3993 -0.1707 -0.0130
23191W        W40038  16.319   3.791   5.589  0.0314  0.1178  0.0132
23192W        W40039  16.059  16.759   3.919 -0.1462 -0.3581 -0.1600
23193W        W40040   7.177   1.427  16.151 -0.3057 -0.0249  0.0498
23194W        W40041   3.267   7.367  12.543 -0.0928  0.0468 -0.0263
23195W        W40042   4.718   2.590   5.357  0.2967  0.1491 -0.2257
23196W        W40043  16.840   3.316   2.827  0.2121 -0.2507  0.1094
23197W        W40044   3.418   8.654   3.599  0.1567 -0.0651  0.2155
23198W        W40045  11.733  10.473  13.011  0.0220 -0.1405  0.1849
23199W        W40046   2.318  12.233   0.476  0.1829  0.2434 -0.1362
23200W        W40047  11.011   7.901  10.757 -0.0474 -0.1231 -0.0694
23201W        W40048   5.036  10.776   0.361  0.0718  0.1505  0.0364
23202W        W40049  15.796   2.411  12.608 -0.1544  0.2522 -0.3549
23203W        W40050   2.197  10.273   3.768  0.1395 -0.1825  0.2354
23204W        W40051   5.830   5.817  12.336 -0.0583  0.0726  0.0005
23205W        W40052   7.292  11.133  11.639  0.0119 -0.3831 -0.1559
23206W        W40053  10.581  12.213   4.299  0.0811 -0.0649 -0.1478
23207W        W40054   9.135   5.947  12.023  0.1343  0.0880  0.2438
23208W        W40055   9.011  12.276   1.803  0.0456 -0.1552 -0.1097
23209W        W40056   9.996  11.770   1.700 -0.1499  0.1573 -0.1025
23210W        W40057   0.181  12.114  16.619 -0.1489  0.0974 -0.2238
23211W        W40058   1.849  12.200  12.299 -0.1754  0.3688  0.0988
23212W        W40059  12.889   9.754  14.140 -0.0142  0.2424 -0.1501
23213W        W40060   7.292   0.261   3.338 -0.0487 -0.0174  0.3146
23214W        W40061   8.857   2.700  16.607  0.2635  0.4125 -0.1123
23215W        W40062   8.169   1.204   0.238  0.0163  0.1215 -0.4172
23216W        W40063   0.604  13.388  12.689 -0.0250 -0.1377  0.0187
23217W        W40064   2.072  12.933  13.869 -0.3607  0.0436 -0.1349
23218W        W40065  13.270  11.187   0.315 -0.0068 -0.0882 -0.2941
23219W        W40066   9.874   0.372  13.554 -0.2489 -0.0715 -0.3805
23220W        W40067   5.422   2.909  15.609 -0.1651  0.0123  0.1731
23221W        W40068  10.334   7.137   5.108  0.1499  0.2287 -0.0836
23222W        W40069   9.495   9.327   1.805 -0.0017 -0.1182 -0.0757
23223W        W40070   1.643   5.668   0.124 -0.2077 -0.1316  0.2835
23224W        W40071   9.743   7.894   2.137  0.3542  0.1999  0.0808
23225W        W40072   7.844   5.584   0.709 -0.0393 -0.0081  0.2000
23226W        W40073   4.101  14.535   4.498 -0.2062  0.1048  0.2622
23227W        W40074   0.195   4.647   2.494 -0.2251 -0.2880 -0.0395
23228W        W40075  16.009  15.190  12.351  0.1291 -0.1635 -0.3034
23229W        W40076  12.649   9.032   2.475 -0.4347 -0.0147 -0.0968
23230W        W40077  10.335  16.841   3.051  0.1946  0.0466 -0.0823
23231W        W40078  17.300   6.992   0.378 -0.0214 -0.2086 -0.3935
23232W        W40079   0.277  12.943   5.367  0.0335  0.0430  0.3419
23233W        W40080   2.813   2.184   5.042  0.0606  0.0447 -0.0192
23234W        W40081   9.251   7.451  13.788 -0.0825 -0.0201  0.0158
23235W        W40082  17.676  11.697   5.327  0.2276  0.0882 -0.2170
23236W        W40083  11.414  15.125  13.375 -0.0617 -0.0752 -0.0042
23237W        W40084  15.922   2.203   5.897 -0.0364  0.0528 -0.0038
23238W        W40085   8.158   1.540  12.458 -0.0212 -0.0313  0.1676
23239W        W40086  14.718   5.137   4.580  0.0074  0.1987  0.0078
23240W        W40087   2.807  16.806   5.806 -0.0853  0.0959 -0.1369
23241W        W40088  15.414   6.265  16.247  0.0677 -0.1313  0.0819
23242W        W40089   7.100   4.369   4.473  0.1315  0.0338 -0.0727
23243W        W40090  13.006   6.091   1.603  0.2250 -0.2734 -0.0795
23244W        W40091   6.232  17.896   4.181 -0.0594 -0.0255  0.3043
23245W        W40092  11.848  16.832   5.259 -0.2861 -0.0481  0.0573
23246W        W40093   6.112  12.178   2.920  0.3114 -0.0942 -0.2136
23247W        W40094  15.311   5.249   0.828 -0.1214  0.0667 -0.0630
23248W        W40095  16.538  16.919   1.592 -0.1100 -0.0647 -0.0085
23249W        W40096   3.414   8.769   2.092 -0.0495  0.0654  0.0976
23250W        W40097   3.694   5.794   0.149  0.1150  0.0362  0.0384
23251W        W40098  15.583  13.602   2.996  0.1695  0.0328 -0.1932
23252W        W40099  13.686   3.622  12.832  0.1115  0.0707 -0.0109
23253W        W40100  11.459   9.576   0.256 -0.2113  0.0413 -0.0332
23254W        W40101   1.246   7.075  14.308 -0.3183 -0.1759  0.1030
23255W        W40102  17.501  17.898  14.427 -0.1470 -0.0989  0.0310
23256W        W40103  18.099  17.071   4.448 -0.1178 -0.0770  0.0822
23257W        W40104  17.915   1.662  12.509 -0.0551 -0.0761 -0.0028
23258W        W40105   8.040   4.169  16.453  0.0863  0.0917  0.1347
23259W        W40106   5.075   5.447  12.164 -0.1158 -0.1545 -0.0613
23260W        W40107  14.074   5.655   4.242  0.0631 -0.1216  0.1657
23261W        W40108   2.921  11.508  15.638 -0.2238 -0.1021  0.0856
23262W        W40109  16.844   3.305  13.828 -0.0379 -0.1281  0.1849
23263W        W40110  17.048   0.947   1.785 -0.0259 -0.0139  0.1833
23264W        W40111  16.324   7.330   3.288 -0.1436 -0.0752 -0.2245
23265W        W40112   0.966  14.459   1.873  0.0992 -0.1299 -0.3435
23266W        W40113  12.319  14.211   1.527 -0.1597 -0.0196  0.0152
23267W        W40114   9.473  14.876  15.729 -0.1153  0.1122 -0.0276
23268W        W40115  10.021  12.355  14.762 -0.0802 -0.0266  0.1965
23269W        W40116   3.263   7.341   0.909 -0.1998  0.1843 -0.2246
23270W        W40117  17.665  15.677   4.145 -0.1542  0.1928  0.0825
23271W        W40118   2.325  17.427   1.978 -0.1277  0.0147  0.1833
23272W        W40119   0.637  11.171   4.789 -0.0736 -0.0464 -0.0658
23273W        W40120  17.807  12.395  13.348 -0.1360  0.0175  0.2395
23274W        W40121  10.719   6.036   2.792 -0.0218  0.0929 -0.0199
23275W        W40122   8.682   9.235  15.356  0.1644  0.0625 -0.1452
23276W        W40123   2.470   0.117  14.315 -0.0961  0.0961 -0.2706
23277W        W40124  11.370   1.477   1.950 -0.4487 -0.0327  0.0804
23278W        W40125  15.709  13.273   2.341  0.0858 -0.0227 -0.0073
23279W        W40126   2.200   6.755   1.942 -0.0463  0.1439 -0.0180
23280W        W40127   5.612   3.843  12.161  0.0619  0.0288 -0.0064
23281W        W40128   1.031  13.942  11.559  0.3276  0.3388 -0.0750
23282W        W40129  11.085  17.789  15.073  0.1317 -0.3138  0.1636
23283W        W40130   0.424   4.270   4.183  0.2489  0.1623 -0.0783
23284W        W40131  10.146  12.202  10.898  0.1476  0.0566  0.1913
23285W        W40132   8.092  17.812   4.160  0.0930  0.1547 -0.0875
23286W        W40133  12.821  14.913   1.585 -0.2548  0.1558  0.1873
23287W        W40134  16.785   3.024   2.437  0.0103  0.0083  0.1215
23288W        W40135  17.867   3.158  11.920  0.0525  0.1522  0.2262
23289W        W40136  13.879   1.620  13.470  0.0749  0.0667  0.2476
23290W        W40137  13.657   4.666   3.926 -0.2045  0.2450  0.0294
23291W        W40138   3.405  13.971  14.495 -0.0637  0.0283  0.0036
23292W        W40139   3.975  13.896   1.647  0.0355  0.0599  0.2814
23293W        W40140   2.131   9.006   2.938  0.2133 -0.1943  0.0355
23294W        W40141  10.167  16.211   2.331 -0.3736 -0.3179  0.2078
23295W        W40142  16.189   5.227  14.216 -0.1006 -0.0817  0.1505
23296W        W40143  17.939  14.455  12.515  0.1887  0.1103  0.3981
23297W        W40144   6.520  12.825  15.030 -0.1673  0.0459  0.1397
23298W        W40145  12.350  11.573   2.442  0.2775 -0.1151  0.1170
23299W        W40146  15.229   4.349  15.040  0.0260  0.1474 -0.1695
23300W        W40147   6.389   1.687  16.376  0.0758  0.1747 -0.1133
23301W        W40148   9.321  10.882   4.935  0.1077  0.1146 -0.2667
23302W        W40149   7.587   2.597   0.730  0.3022 -0.1564 -0.0975
23303W        W40150   3.750  17.199  12.509 -0.0732 -0.2033  0.1975
23304W        W40151   7.583  13.862  11.632 -0.0364  0.4111  0.1828
23305W        W40152  12.547   9.480   4.303 -0.0350 -0.0301  0.0682
23306W        W40153   4.888  16.524  14.183  0.1183 -0.1441  0.0051
23307W        W40154  15.761   3.325   4.526  0.0939 -0.0824  0.0548
23308W        W40155   2.850   5.047  14.815  0.0853 -0.0719  0.0618
23309W        W40156   8.154   3.247  16.483  0.0246  0.2051 -0.2686
23310W        W40157  15.360   4.902   5.795  0.1672 -0.4510  0.0741
23311W        W40158  16.744  11.599   4.883  0.2944 -0.0730 -0.0685
23312W        W40159   9.248  16.300  15.962 -0.1583  0.1753  0.2128
23313W        W40160   1.502   4.763  12.549 -0.0021 -0.3110 -0.1407
23314W        W40161  12.728  13.113   4.465  0.0221  0.3308  0.2540
23315W        W40162   9.348   0.136   2.519  0.0093  0.2245  0.3382
23316W        W40163   1.018  10.466   0.255  0.2029 -0.0726 -0.1492
23317W        W40164  15.383   7.530  14.305  0.2503 -0.1271 -0.0461
23318W        W40165   8.755   1.816   1.796  0.2012 -0.3311  0.0913
23319W        W40166  13.682  13.455   6.146  0.0399  0.1354 -0.0685
23320W        W40167  14.853   7.275   5.066  0.1331 -0.1604  0.0593
23321W        W40168  11.024   5.834   0.520 -0.0232 -0.1779 -0.0175
23322W        W40169   5.456  11.833   1.230  0.0007 -0.0377 -0.1251
23323W        W40170   2.560   4.474  11.807  0.0067 -0.3060  0.3040
23324W        W40171   9.132  17.753  13.519  0.0511 -0.0835  0.1145
23325W        W40172   2.139   4.348  15.029 -0.2554  0.0131  0.1792
23326W        W40173   0.110   0.741  11.606  0.0199 -0.1938 -0.0080
23327W        W40174   6.886   1.423  15.580  0.2289  0.2494 -0.2372
23328W        W40175   1.987  15.088  15.759  0.0719 -0.2887  0.4012
23329W        W40176   9.025  14.098   1.573  0.0379 -0.2771 -0.1551
23330W        W40177   2.280   8.812   1.019  0.1387 -0.0848 -0.2734
23331W        W40178   1.651   9.492  16.045  0.2276  0.1578 -0.1309
23332W        W40179  10.970  10.927  12.588  0.1872 -0.2937  0.2235
23333W        W40180   2.078   4.733  14.136 -0.0427 -0.1146  0.2070
23334W        W40181   9.410   9.674  11.937 -0.2901  0.1263 -0.3447
23335W        W40182   8.264   6.328   3.325  0.3423  0.1730  0.3550
23336W        W40183  15.143  13.679  14.270  0.3379 -0.0501  0.1124
23337W        W40184  11.037   3.074   1.108 -0.0191  0.0318 -0.0099
23338W        W40185   0.595   0.556  15.807 -0.1074  0.0128  0.2477
23339W        W40186  14.979  12.487   2.897 -0.0342  0.1735 -0.1735
23340W        W40187   6.799  10.720  12.376 -0.1960  0.0871 -0.1528
23341W        W40188  10.475   9.053   0.888  0.2703 -0.1567  0.0779
23342W        W40189  17.161  11.757  13.621  0.0798  0.0097  0.1355
23343W        W40190   1.753   7.104   4.097  0.0086  0.2705  0.1384
23344W        W40191   0.233   0.965   2.934  0.1645  0.3016 -0.1737
23345W        W40192   8.425  16.817  12.749 -0.1173 -0.1708  0.0839
23346W        W40193  17.005  13.226  14.802  0.1709  0.3037  0.0823
23347W        W40194   7.214  10.615   5.480  0.0989  0.2020 -0.2117
23348W        W40195  17.060   3.591  12.483  0.0823  0.1688  0.0652
23349W        W40196   6.339  14.637   2.066 -0.0299  0.0249 -0.1762
23350W        W40197  13.474  14.243  12.121 -0.1057 -0.0862  0.4070
23351W        W40198   1.517  12.744   4.357 -0.0522  0.2153 -0.0358
23352W        W40199   5.208  17.451   2.929  0.3052 -0.1104 -0.1182
23353W        W40200   8.771  14.845   0.479 -0.0359 -0.0878 -0.1509
23354W        W40201   0.652   5.399  13.445  0.2260 -0.0846 -0.2038
23355W        W40202   6.455  17.503   4.590 -0.0162  0.0005 -0.3268
23356W        W40203  10.171  12.442  12.838  0.0551  0.0489  0.0057
23357W        W40204  14.542   2.416  15.427  0.1864  0.0982  0.1815
23358W        W40205  14.738  16.642   1.108 -0.0201  0.3342  0.0954
23359W        W40206  12.113  11.150   0.953 -0.2807 -0.1180 -0.0220
23360W        W40207   5.643   8.503  12.202 -0.0167  0.1657 -0.1214
23361W        W40208  16.060  12.701   4.881 -0.0108 -0.0364 -0.2313
23362W        W40209  11.386   7.266  11.434  0.4304  0.1202  0.0913
23363W        W40210  16.295   0.579  14.533 -0.3413 -0.3544  0.0449
23364W        W40211   3.783   6.940  15.246  0.0172  0.0772 -0.0793
23365W        W40212  10.838  12.455   0.096 -0.2048 -0.1407  0.1335
23366W        W40213  10.958  15.971   3.931 -0.1908  0.2792 -0.2171
23367W        W40214  12.235   4.821   0.141 -0.0246 -0.1495  0.1405
23368W        W40215   8.633   8.053  16.475  0.1955  0.3234 -0.2128
23369W        W40216   8.469  10.216  14.284 -0.1786 -0.0186 -0.0446
23370W        W40217  16.967  12.710   4.066  0.0324  0.3649 -0.0207
23371W        W40218  15.519   0.025   2.913  0.1276 -0.1082 -0.0940
23372W        W40219   1.147  12.972   1.607  0.0054  0.0640 -0.4356
23373W        W40220   4.353  17.872  13.504  0.1519  0.1807 -0.2301
23374W        W40221  16.044   8.270   1.777 -0.2632 -0.1322 -0.0482
23375W        W40222  11.295  11.237   0.697  0.1116  0.0836 -0.1195
23376W        W40223   9.328  16.134   3.259  0.0742  0.1910 -0.0873
23377W        W40224  14.413  11.629  13.287  0.5160  0.0704  0.0003
23378W        W40225  13.700  17.714  13.732 -0.2830  0.3705  0.0986
23379W        W40226  17.266   8.973   3.623 -0.3364 -0.2513  0.0988
23380W        W40227   4.923  15.840  14.511 -0.0683 -0.0887 -0.0274
23381W        W40228   0.297  16.508  12.676 -0.0644  0.2513  0.0980
23382W        W40229  17.873  16.580   2.366 -0.1052  0.0068  0.0441
23383W        W40230   4.496  14.322   3.883  0.0588  0.0010 -0.3446
23384W        W40231  16.737  10.268   4.721 -0.3418  0.1793 -0.3699
23385W        W40232  17.298   5.160  11.336  0.0692  0.0037 -0.0447
23386W        W40233   8.850   4.990   0.019 -0.3913 -0.1042  0.0678
23387W        W40234   8.268  10.629  15.634  0.0673 -0.0086  0.0134
23388W        W40235   1.375   9.656   3.046 -0.2166  0.1295  0.0364
23389W        W40236   0.751   0.701  14.323 -0.4355  0.0380  0.2810
23390W        W40237   5.918  10.143   0.409 -0.1914 -0.1444 -0.1983
23391W        W40238   1.540  15.349  12.111  0.0941 -0.0530  0.0128
23392W        W40239   4.975   1.018   1.389  0.1453  0.1318  0.1560
23393W        W40240  11.588   9.806  11.714 -0.1780  0.1778 -0.2611
23394W        W40241   4.129  14.364   5.044  0.2821  0.0371 -0.1229
23395W        W40242  13.490  18.040   3.996 -0.0021  0.0276 -0.0055
23396W        W40243  10.608   0.272  16.616  0.0192  0.2121  0.0646
23397W        W40244   1.268   1.639   5.817  0.2070  0.1546  0.0608
23398W        W40245  16.443  13.486  14.007  0.0356 -0.0148 -0.0510
23399W        W40246   7.012  10.623   1.414 -0.1522  0.0696 -0.1149
23400W        W40247  12.668  11.981   5.336  0.0650 -0.1920 -0.3671
23401W        W40248  13.955  16.070   0.917  0.3576 -0.2008 -0.1553
23402W        W40249  10.490   3.578  12.951 -0.2698 -0.0441  0.2338
23403W        W40250  14.118  15.900  14.094 -0.1577 -0.0580  0.2736
23404W        W40251   3.147   0.608   6.165  0.0970  0.3780 -0.5113
23405W        W40252  16.731   0.725   4.883  0.0103  0.1931 -0.1673
23406W        W40253   3.038  13.394   3.758  0.0843 -0.1040 -0.0100
23407W        W40254  13.120  15.051  15.509 -0.1192  0.1228  0.0276
23408W        W40255   9.329  12.772   4.867  0.2104  0.4072  0.3599
23409W        W40256   1.601   2.546  12.443 -0.0426 -0.0786 -0.1988
23410W        W40257   2.439  14.369   1.846 -0.2279 -0.0391  0.1655
23411W        W40258   3.639   5.303   0.892 -0.1023 -0.1035  0.2265
23412W        W40259   9.084   4.327   2.257  0.0150  0.2003  0.2191
23413W        W40260   9.903   7.254  13.857  0.0103 -0.0886  0.2114
23414W        W40261  13.056   7.585  11.994 -0.0026  0.2416 -0.0046
23415W        W40262  11.835   8.121   1.602  0.0341  0.0632  0.2792
23416W        W40263   3.813   6.366   1.966 -0.2287 -0.0447 -0.2686
23417W        W40264   4.286   1.808   5.752  0.1184 -0.0312 -0.1956
23418W        W40265   7.337  16.521   1.215 -0.0989  0.1052 -0.0545
23419W        W40266   0.952  10.413  12.307  0.0831  0.0206  0.3804
23420W        W40267   4.096  17.993  12.233 -0.0419  0.0825 -0.2237
23421W        W40268  11.810   3.111   1.854  0.1642  0.1584 -0.1784
23422W        W40269   9.309  17.130   5.239  0.0028 -0.2260  0.2462
23423W        W40270  18.019  15.363   3.992  0.4297  0.1337  0.4765
23424W        W40271   4.322   1.516  13.560  0.1031  0.1676 -0.0295
23425W        W40272  11.342   1.440   2.788 -0.3591 -0.0211 -0.2221
23426W        W40273  17.345  15.313  10.856  0.0256 -0.0865  0.1652
23427W        W40274   0.733  13.278   1.607 -0.1770  0.1590 -0.1284
23428W        W40275   0.176   7.939  16.549 -0.3373  0.0142  0.0126
23429W        W40276  14.579   3.287  14.776  0.1845 -0.1753  0.0503
23430W        W40277   6.879   0.579  16.093  0.1915  0.0677 -0.2978
23431W        W40278   4.789   3.906   3.414 -0.1665 -0.0849 -0.1643
23432W        W40279  10.580  10.175   3.988 -0.1025 -0.0098 -0.0328
23433W        W40280   1.335   2.021  14.645 -0.1139 -0.1522  0.1376
23434W        W40281   9.640   1.581   3.383 -0.0194 -0.2012 -0.0235
23435W        W40282   1.113   8.349  11.970 -0.0006  0.0686  0.1462
23436W        W40283  14.437   8.286   5.563 -0.3124  0.1832  0.1009
23437W        W40284  11.520  12.944  13.003  0.0082  0.2505 -0.0045
23438W        W40285   2.707  14.905   4.059  0.3263 -0.1130  0.0248
23439W        W40286  11.784   5.281  15.004  0.0926 -0.0827  0.2036
23440W        W40287   1.136  12.798   5.039  0.1894 -0.1352 -0.2511
23441W        W40288   7.479  13.329  14.628  0.0760 -0.1639 -0.3009
23442W        W40289   6.147  13.774  14.880 -0.0554 -0.0647 -0.1815
23443W        W40290   4.192   9.630  11.857 -0.0523  0.0587  0.1563
23444W        W40291  13.100   0.204   3.090 -0.2865 -0.4559  0.0776
23445W        W40292  10.693  14.059   2.207 -0.2531 -0.2400  0.2084
23446W        W40293   2.061  17.465  11.315  0.3604 -0.1745 -0.0259
23447W        W40294   5.675  15.352   1.510  0.1055  0.0692  0.2278
23448W        W40295  17.063   2.180  13.892 -0.0302  0.1413 -0.0101
23449W        W40296  12.156   2.102  16.377  0.1647 -0.3138 -0.1675
23450W        W40297   3.386   8.074  12.065 -0.0716  0.3656  0.0418
23451W        W40298   8.419  10.199   5.799  0.1471 -0.1205  0.2249
23452W        W40299   4.653   3.640   3.891 -0.1376 -0.2894  0.3074
23453W        W40300   0.855  15.191   4.828  0.2231 -0.1062 -0.0138
23454W        W40301  14.287   2.627  15.900 -0.0883 -0.3252 -0.1267
23455W        W40302   9.997   3.929   1.190  0.3584  0.1446 -0.0674
23456W        W40303   8.083  17.807   3.089  0.1249  0.0690  0.2330
23457W        W40304   6.007   5.720   3.113 -0.3849 -0.0135  0.1764
23458W        W40305  16.455   6.473   5.458 -0.2287  0.1018  0.2345
23459W        W40306  17.959   3.683   0.409  0.2961  0.2989 -0.0713
23460W        W40307  14.342   4.495  14.019 -0.0226 -0.2358  0.0043
23461W        W40308   8.869  11.224   4.893 -0.0425 -0.1867  0.1066
23462W        W40309   1.098   0.566  15.749  0.1217  0.0567  0.2373
23463W        W40310   2.444  10.959  13.232  0.1660 -0.1611 -0.1330
23464W        W40311   9.991   2.101  13.349 -0.0341  0.0419 -0.4025
23465W        W40312  11.748   0.958   1.928 -0.1673  0.2655  0.3872
23466W        W40313  11.357   2.738  15.022 -0.1804  0.1471  0.2105
23467W        W40314   8.310  11.593  16.132 -0.0074  0.1175 -0.0515
23468W        W40315  10.216   7.346   9.915  0.1883  0.1789 -0.2142
23469W        W40316   7.939  11.988   2.537  0.0011  0.0226 -0.0974
23470W        W40317  13.312  15.979  13.020  0.1730 -0.1917 -0.2105
23471W        W40318   5.399   8.838  11.869 -0.0590 -0.3141  0.1093
23472W        W40319   1.404  10.972   4.271 -0.2680  0.2758 -0.0502
23473W        W40320   3.540   4.688   5.105  0.1659  0.1838  0.1623
23474W        W40321  17.261   5.654   5.459  0.0717  0.3689  0.0272
23475W        W40322  16.142   2.616   3.002  0.0566  0.1275 -0.0305
23476W        W40323   0.450  10.828   3.891 -0.2245 -0.2891 -0.2175
23477W        W40324  11.454   0.118   1.875 -0.2284 -0.0877  0.0880
23478W        W40325  12.302  18.105  12.831  0.1693  0.0748 -0.0499
23479W        W40326   5.155  13.070  12.205  0.3218 -0.0266  0.0184
23480W        W40327   0.484   1.298  13.184  0.0008  0.1378  0.3933
23481W        W40328  10.199   0.726  16.532 -0.1646 -0.1421 -0.1325
23482W        W40329  11.477   4.119   4.553 -0.1430 -0.0338  0.1449
23483W        W40330   0.069   3.786   4.769  0.0043  0.1399 -0.1530
23484W        W40331  17.483   6.598   3.247 -0.1873  0.0984 -0.0119
23485W        W40332  17.797   0.136  13.198 -0.2091 -0.1519 -0.2714
23486W        W40333  17.972   5.996  14.162  0.1742 -0.2199 -0.1170
23487W        W40334   3.342   4.418   4.754 -0.2892  0.4780 -0.2565
23488W        W40335  11.704   0.154  12.370  0.0812 -0.0889  0.3602
23489W        W40336  13.931  13.119  13.798 -0.1945  0.0263  0.2720
23490W        W40337   1.571  10.896  14.876 -0.0887 -0.2514  0.0604
23491W        W40338   2.274  16.490  13.962  0.0109 -0.2129  0.1064
23492W        W40339   2.783   5.444   5.255  0.1619  0.1608 -0.0504
23493W        W40340  14.483   7.654   1.521 -0.0567  0.1346  0.1397
23494W        W40341   6.767   2.032   5.892  0.2327 -0.0330  0.0476
23495W        W40342  12.122  17.281   2.319 -0.0562  0.0208 -0.1605
23496W        W40343   5.013   4.717   6.080 -0.0555  0.0671 -0.2033
23497W        W40344   1.997  12.562   5.599  0.1941 -0.1521  0.0395
23498W        W40345  13.539  13.368  10.998 -0.0868  0.1213 -0.1607
23499W        W40346  10.248   5.659  11.152  0.2444  0.1192  0.0561
23500W        W40347   2.711  16.564  13.356  0.0132  0.0407 -0.2615
23501W        W40348   1.802  11.596   4.520  0.2355  0.1194  0.1785
23502W        W40349   9.571  15.861  12.088  0.1910 -0.0968 -0.1873
23503W        W40350   1.932   4.959  10.996  0.0181  0.0225  0.1632
23504W        W40351   6.871   0.105  16.360  0.0688 -0.1310  0.1902
23505W        W40352   6.017  12.388  13.580  0.2107  0.4268  0.1347
23506W        W40353  11.114  13.014   1.984 -0.1056  0.0166 -0.1741
23507W        W40354   5.347   8.273   3.339 -0.1569  0.1566  0.5185
23508W        W40355  15.677   6.553  11.735 -0.2524  0.4545 -0.2342
23509W        W40356  11.867  17.235   4.912  0.1605 -0.0243  0.1200
23510W        W40357   7.168  15.439  11.722 -0.1645 -0.0379  0.2101
23511W        W40358  11.025   0.058   2.763 -0.0693 -0.5050 -0.0599
23512W        W40359  13.140   6.780   0.213  0.0303 -0.0189  0.0735
23513W        W40360   8.935   4.559   0.622 -0.1544 -0.3611  0.1688
23514W        W40361  13.454   2.186   3.485 -0.1412 -0.1370 -0.2829
23515W        W40362  17.107  14.235   4.953 -0.3156 -0.0287 -0.0366
23516W        W40363  16.922  10.044  15.640 -0.2883 -0.2032  0.2424
23517W        W40364   3.980  14.988  12.119  0.1552  0.1170  0.0096
23518W        W40365  12.480  11.824   1.906 -0.1126  0.2017 -0.4586
23519W        W40366  11.404  15.602   4.087  0.2653 -0.1913 -0.0265
23520W        W40367   2.020  16.114   5.871  0.0829 -0.2339  0.1802
23521W        W40368  13.219  14.149   3.216  0.0251 -0.3560  0.0825
23522W        W40369  15.777   5.454  16.033  0.0036  0.1374  0.1056
23523W        W40370  10.202  17.622   6.592  0.2011 -0.5015  0.0041
23524W        W40371  15.418   8.512  16.337  0.1549 -0.1188 -0.0059
23525W        W40372  12.450   1.773   5.715  0.0499 -0.2165 -0.0171
23526W        W40373  17.209   4.726  15.870  0.2073  0.0214  0.0095
23527W        W40374  16.280   6.635   3.767  0.1261 -0.1819 -0.1627
23528W        W40375  10.227   2.412   0.358  0.0104  0.1726  0.2017
23529W        W40376  11.852   6.082   4.264 -0.2904 -0.0586 -0.0552
23530W        W40377   1.965   0.971   1.158 -0.1622  0.0539 -0.1813
23531W        W40378   0.452   2.814  14.067 -0.0709  0.0505 -0.2162
23532W        W40379  10.807   7.379   2.898  0.0658  0.0482 -0.1397
23533W        W40380  10.916   4.767  10.997  0.0063  0.3881 -0.3949
23534W        W40381   3.356   0.043  12.843  0.1313  0.2599  0.0970
23535W        W40382   2.043  16.743   4.525 -0.0746 -0.2679 -0.2155
23536W        W40383   9.142  12.207   3.950  0.0267  0.0013 -0.2648
23537W        W40384   6.178   6.227   4.712 -0.3619  0.1446 -0.0973
23538W        W40385  17.546   9.032  14.737  0.1898 -0.0443 -0.0859
23539W        W40386  13.956  13.276   2.686 -0.0679 -0.0636 -0.1192
23540W        W40387  13.569  10.017  14.389 -0.1511  0.0410  0.0899
23541W        W40388   9.195   3.897   0.712 -0.3597 -0.1399  0.1332
23542W        W40389   5.114   7.999  13.472  0.2620  0.0623  0.1999
23543W        W40390  11.509  10.791   5.886  0.0046 -0.0681  0.0222
23544W        W40391   7.612   5.397   4.907  0.0513 -0.1354  0.0201
23545W        W40392   1.120   9.182   0.014  0.1889  0.0304 -0.1390
23546W        W40393   7.189   2.526   1.409  0.2014  0.3220 -0.0411
23547W        W40394  14.402  11.657   3.634  0.2349 -0.2668  0.2035
23548W        W40395   6.470  10.036  11.007 -0.0816  0.3253 -0.1409
23549W        W40396  10.600  10.696   3.991  0.1251 -0.0310 -0.4415
23550W        W40397   2.556   4.583   0.627  0.2241  0.3443 -0.0078
23551W        W40398  10.881   1.959  13.567  0.1710  0.2673  0.1937
23552W        W40399  17.952  13.365   3.492  0.3328  0.0727  0.0105
23553W        W40400   9.340   0.314   3.341  0.1674 -0.1875  0.1324
23554W        W40401   3.426   8.675  13.801  0.1186 -0.0145 -0.1461
23555W        W40402   0.895   6.490   0.844  0.0452 -0.1000 -0.1772
23556W        W40403   7.591   7.763  13.371 -0.1000 -0.1474 -0.0221
23557W        W40404  10.563  11.841   4.624  0.0301  0.0489 -0.0803
23558W        W40405   8.106   1.155  13.399  0.1408 -0.1365  0.1529
23559W        W40406  13.036  10.783   0.658  0.1817  0.3455  0.0349
23560W        W40407   4.655   6.580   0.869  0.0824 -0.0991 -0.5338
23561W        W40408  17.541  11.557  12.723 -0.1454  0.0930  0.3170
23562W        W40409   7.476  15.316   2.858  0.3602  0.0651  0.0636
23563W        W40410   2.575   1.113  13.903 -0.2406  0.0707  0.0955
23564W        W40411   8.594   7.285   2.321 -0.0620  0.0019 -0.0726
23565W        W40412   0.072   2.929  11.161 -0.2999 -0.1466 -0.0078
23566W        W40413   9.284   1.196   5.059  0.2445 -0.0797 -0.1333
23567W        W40414   4.474   9.847   2.337 -0.0439 -0.0060  0.1662
23568W        W40415   1.734   2.987   0.974  0.0366 -0.0081 -0.1884
23569W        W40416  17.132   2.945   2.826 -0.0719  0.1595  0.2161
23570W        W40417   0.480   4.708   1.162  0.2939  0.3484 -0.0255
23571W        W40418   9.096   5.014   4.553  0.2727  0.1022  0.0618
23572W        W40419   0.554   1.336   3.211 -0.2777 -0.0430 -0.0221
23573W        W40420   9.638  14.457   2.324  0.2598 -0.0629 -0.0213
23574W        W40421   4.604  12.609   3.652 -0.1423 -0.1566  0.1651
23575W        W40422   3.187   3.070   2.813  0.2260 -0.1293 -0.2071
23576W        W40423  15.627   2.738  10.401  0.0750  0.1590 -0.2621
23577W        W40424  13.007   8.399  13.319 -0.3385  0.2671 -0.1616
23578W        W40425   6.526   7.371   0.979 -0.2394  0.0740 -0.0003
23579W        W40426   5.471   4.623  12.673 -0.2736 -0.0182 -0.0456
23580W        W40427   7.349  16.749  11.861  0.0339  0.2424  0.0034
23581W        W40428  17.765   9.691   1.122 -0.0577 -0.0999  0.2029
23582W        W40429   5.754   2.335  14.308 -0.2856 -0.0424 -0.0128
23583W        W40430  16.492   1.943  14.992 -0.1893 -0.0598 -0.0674
23584W        W40431  16.387   6.639  15.342 -0.2518  0.0330 -0.0016
23585W        W40432   3.710   2.633   2.570  0.0489 -0.0727  0.0850
23586W        W40433   9.958  14.434   2.857  0.0426 -0.0819  0.0979
23587W        W40434   7.917   1.358   0.856 -0.4076 -0.1171  0.1952
23588W        W40435  14.158  13.986   5.826 -0.1306  0.1628 -0.1212
23589W        W40436  17.533   6.494  12.495 -0.0484 -0.0962  0.1453
23590W        W40437  11.811   4.392   5.756 -0.4673  0.0022  0.2315
23591W        W40438  13.385   4.985   4.281 -0.1988 -0.2858 -0.1028
23592W        W40439   8.651   3.448   2.300 -0.0239 -0.3048 -0.0794
23593W        W40440   4.082  18.104  15.381  0.1286 -0.1296 -0.0220
23594W        W40441  15.754  15.964   1.058  0.0343 -0.2060  0.2112
23595W        W40442  11.665   2.894   0.021 -0.1963  0.3513  0.1687
23596W        W40443  17.023  11.848  12.690 -0.2245 -0.2849  0.1035
23597W        W40444  13.527  17.787   3.023 -0.0086  0.1753 -0.2942
23598W        W40445  17.095   3.893  13.778 -0.0267  0.1088  0.1813
23599W        W40446   9.215   0.651  16.141 -0.0699  0.0190  0.1128
23600W        W40447  12.371  11.352  12.507 -0.1833 -0.0231 -0.0688
23601W        W40448  13.461   0.869  14.619  0.1813 -0.2891 -0.1119
23602W        W40449   1.315   2.529  11.957  0.4208  0.0225 -0.2731
23603W        W40450   1.299  17.781   4.944 -0.3887 -0.0557  0.1030
23604W        W40451   9.817  15.532   5.310  0.0109  0.0892  0.0175
23605W        W40452   9.303   4.513   3.814 -0.2401 -0.0353 -0.1433
23606W        W40453  11.808  13.061   5.673  0.2205  0.2240  0.0897
23607W        W40454  10.720  17.344  15.501  0.1893 -0.0323 -0.0753
23608W        W40455  10.058  17.828   1.454 -0.2345  0.0589 -0.1492
23609W        W40456  14.770   6.540   4.986 -0.0559 -0.1083 -0.0856
23610W        W40457  15.192  12.908  13.174 -0.0639 -0.0290 -0.0709
23611W        W40458  14.908  14.402   3.511 -0.2679  0.0446 -0.4374
23612W        W40459  15.660   0.497  13.699 -0.0595  0.2255  0.0474
23613W        W40460   1.341  10.221  12.513  0.1402 -0.1208 -0.0059
23614W        W40461   4.365  11.001  16.439 -0.0265 -0.1580  0.1832
23615W        W40462  12.224   6.619   0.123  0.0661 -0.0757  0.1293
23616W        W40463  14.978   3.443   3.126  0.0581 -0.2843 -0.0654
23617W        W40464  17.888  14.434   3.622  0.1910 -0.1099  0.0185
23618W        W40465  12.919   2.041   4.922  0.1888  0.1186 -0.0928
23619W        W40466   6.941   8.295  11.748  0.2337 -0.0648 -0.2658
23620W        W40467  14.166  16.009   4.343  0.2635  0.1244  0.2838
23621W        W40468   5.935  16.301   0.311  0.0266  0.0852 -0.2568
23622W        W40469  13.914   0.373   3.021  0.1916  0.3001  0.0980
23623W        W40470  16.516  14.962  14.462 -0.2626  0.0337 -0.1778
23624W        W40471  10.915  17.418   4.559  0.2770 -0.0796  0.0356
23625W        W40472   7.566   9.852  13.517  0.0052 -0.0362 -0.2178
23626W        W40473   8.895  14.245  10.524 -0.1824  0.0471 -0.0388
23627W        W40474   2.137   2.986  14.493 -0.2653  0.2954 -0.1540
23628W        W40475  13.845   8.093  16.367 -0.0522 -0.3204  0.1650
23629W        W40476  14.971  16.289   5.359 -0.2145 -0.0094 -0.1075
23630W        W40477   5.691   3.578   3.636 -0.1744  0.1084 -0.0361
23631W        W40478   4.493   9.038   3.196  0.0371  0.0002 -0.4415
23632W        W40479   4.436  11.128   1.714  0.1497 -0.0140 -0.0457
23633W        W40480  17.284  17.174  11.451 -0.2040 -0.1951 -0.3184
23634W        W40481   8.065  15.593  15.986  0.1282  0.2096 -0.0255
23635W        W40482  11.088   8.132  11.706  0.0986 -0.0159 -0.1280
23636W        W40483   9.444  17.561  11.601  0.2774  0.0437  0.0924
23637W        W40484   0.399   9.712  15.029 -0.0443  0.3592  0.1150
23638W        W40485   8.429  10.728   4.267  0.1604  0.1318  0.0111
23639W        W40486  17.304  11.068   2.348 -0.0849 -0.2947 -0.4045
23640W        W40487   7.662   4.220  16.080  0.4058  0.2343  0.3280
23641W        W40488  14.552  11.227   1.380  0.1412 -0.1367  0.2194
23642W        W40489  18.125  17.634   4.269  0.0524 -0.0955 -0.1475
23643W        W40490   1.798   2.943  16.298  0.0030 -0.1281  0.1491
23644W        W40491  11.150   6.268  14.518 -0.0970 -0.4365  0.1632
23645W        W40492  11.800  11.667  11.446 -0.3432 -0.2324  0.0121
23646W        W40493  16.480   8.190  14.643 -0.1149 -0.0104  0.0560
23647W        W40494   2.877  11.391  13.636 -0.1760 -0.0804 -0.1904
23648W        W40495   9.927   5.894   4.437 -0.0921 -0.0539  0.0594
23649W        W40496   4.616   8.757  11.556 -0.0701 -0.2008 -0.1140
23650W        W40497   5.749  11.942   6.055 -0.2771 -0.2872 -0.0278
23651W        W40498  14.594  13.001   1.084  0.3602 -0.0779 -0.2158
23652W        W40499   0.917  17.483   4.500 -0.3405  0.0683 -0.3290
23653W        W40500  15.746  15.146   0.304  0.0558  0.0332  0.0033
23654W        W40501  15.865   4.914   4.471 -0.3473  0.1685 -0.2970
23655W        W40502   9.937  12.692  13.256  0.1995 -0.0859  0.2275
23656W        W40503   8.896  12.521   5.594  0.1394  0.0764 -0.1663
23657W        W40504  11.141   0.507   0.148  0.1579 -0.2507  0.1345
23658W        W40505   5.389   8.902  12.439  0.2631  0.0081  0.0436
23659W        W40506  13.827  17.960   5.362 -0.1445 -0.1797 -0.1548
23660W        W40507   7.716   4.204   0.820 -0.0923 -0.1174 -0.1593
23661W        W40508  12.688   1.534  15.638  0.1624  0.2323 -0.1019
23662W        W40509  16.921   6.553   2.383 -0.2433 -0.1980 -0.1108
23663W        W40510  11.520  17.386   1.622  0.0617 -0.1408  0.0724
23664W        W40511  14.249  14.009   2.514  0.1424 -0.0707  0.0189
23665W        W40512   2.789   1.088   0.954 -0.0602 -0.1002  0.5914
23666W        W40513  17.181   0.897  14.112  0.2688 -0.1127 -0.0952
23667W        W40514  10.373  14.483  12.691  0.2240 -0.0442  0.1308
23668W        W40515  11.607   2.123   4.826 -0.2059 -0.2430 -0.2778
23669W        W40516  16.840  13.383   3.514  0.1469 -0.2000  0.0414
23670W        W40517   9.885  17.357  15.694 -0.1580  0.3221 -0.0849
23671W        W40518   4.389   9.590   4.004  0.1842  0.1199 -0.2773
23672W        W40519  17.019   4.299  15.297  0.2519 -0.0949 -0.0185
23673W        W40520   9.590  17.972   5.739  0.0765  0.0721 -0.3357
23674W        W40521   7.680  12.816  12.519  0.2664 -0.1231 -0.0963
23675W        W40522  10.221  16.876   1.584  0.1139  0.0750 -0.2062
23676W        W40523  13.729  13.925   4.924 -0.2463 -0.3456 -0.1127
23677W        W40524   5.740  15.258   3.572  0.2834 -0.0417  0.0591
23678W        W40525   4.369  12.949   4.673 -0.1844  0.1569  0.2579
23679W        W40526  14.934  15.478   0.083  0.1668 -0.5185  0.2073
23680W        W40527  14.268   0.611   3.262  0.0033  0.0319 -0.1063
23681W        W40528  13.031  11.239   4.187  0.2428  0.1058 -0.2539
23682W        W40529   9.028   0.529  13.473  0.1312  0.0789  0.0578
23683W        W40530   3.427  13.752  15.291 -0.2012 -0.1648  0.2031
23684W        W40531   5.752   2.418   1.552  0.0332 -0.1563 -0.0415
23685W        W40532   8.310  13.226   2.491 -0.0820 -0.1470 -0.0135
23686W        W40533  10.261   0.543  15.779 -0.0119  0.1363  0.4295
23687W        W40534  11.908   7.300  13.861 -0.1227 -0.1219 -0.1494
23688W        W40535   9.441   2.155   1.271 -0.0774 -0.1593 -0.0881
23689W        W40536   9.603  10.277  13.429  0.0622  0.0320  0.1352
23690W        W40537  17.278   2.171   4.887  0.1310 -0.2566  0.0924
23691W        W40538   0.373   0.483  14.590 -0.0268 -0.0811  0.1063
23692W        W40539   6.606  16.881   4.770 -0.2111 -0.2396 -0.1237
23693W        W40540  14.588  10.741   1.400  0.2451 -0.0440 -0.3349
23694W        W40541   1.734   4.692   2.626 -0.0664  0.1137  0.1069
23695W        W40542  13.216   1.881   0.636  0.1434  0.0235 -0.0485
23696W        W40543   1.409  14.561   2.773 -0.1429 -0.0207  0.1836
23697W        W40544   2.045  10.493  14.605 -0.1785 -0.1359 -0.0653
23698W        W40545   6.902   0.411   3.728  0.1395  0.3270 -0.2009
23699W        W40546   4.570   1.127   1.952  0.2231  0.0226 -0.0251
23700W        W40547  12.281  10.706   0.222  0.0275  0.2615 -0.3086
23701W        W40548  16.155   1.443  11.048  0.2278  0.0125 -0.0937
23702W        W40549   7.635  12.005   3.310 -0.0591  0.0530  0.2404
23703W        W40550   9.312  12.380   1.396  0.0904  0.0021  0.0255
23704W        W40551  11.043   3.819  16.557 -0.1199  0.2411 -0.1086
23705W        W40552   0.804   1.001   0.157 -0.4428 -0.0113 -0.3129
23706W        W40553   2.283   2.141   1.902  0.0287  0.4212  0.2435
23707W        W40554   6.954  14.746   5.165 -0.1545 -0.3207  0.2514
23708W        W40555  13.721   1.425   2.424  0.3006  0.3033  0.0542
23709W        W40556  15.180  10.107  14.482 -0.1642 -0.1638  0.1754
23710W        W40557   6.586   2.152   2.785 -0.0543 -0.2056 -0.0032
23711W        W40558   6.819   1.017   4.974 -0.0625 -0.0285 -0.1544
23712W        W40559  16.323  14.170  15.714 -0.1400  0.0931 -0.0137
23713W        W40560  10.046   9.007   0.593  0.2270 -0.0949  0.0146
23714W        W40561   5.586   0.792  11.911 -0.1434 -0.2538  0.3421
23715W        W40562   9.863  12.435   4.532  0.0591 -0.2034 -0.0499
23716W        W40563  12.055  12.547  14.808  0.1507 -0.0396  0.0704
23717W        W40564  16.499   2.906   5.404  0.1758  0.0638  0.0229
23718W        W40565  12.592  10.165  11.321  0.0580 -0.4113  0.1094
23719W        W40566   9.592   4.904  11.801 -0.0673  0.0667 -0.0308
23720W        W40567   7.049  12.850   2.501 -0.0164 -0.2494  0.2807
23721W        W40568   1.852   8.100  12.402  0.1174  0.2068  0.3391
23722W        W40569  12.378   7.734   4.280  0.3938 -0.2782 -0.1646
23723W        W40570  13.306  10.976   5.576 -0.3082  0.0424  0.1089
23724W        W40571   9.717   7.889   0.841  0.0861  0.1401  0.0150
23725W        W40572   4.733   8.487   6.220  0.0195 -0.0650  0.2677
23726W        W40573   8.016  16.692   1.623  0.1291  0.1527 -0.0357
23727W        W40574   0.916  15.526   1.862  0.0225 -0.2115  0.1639
23728W        W40575   2.776   5.767   5.693 -0.1758 -0.2213 -0.1651
23729W        W40576  10.963  13.716   3.613  0.1001  0.0626  0.0834
23730W        W40577  17.417   8.066  14.768  0.0002 -0.0797 -0.2849
23731W        W40578   9.988   9.251  14.192  0.0136  0.1407 -0.0339
23732W        W40579   1.477  14.782  13.996 -0.2874  0.0770 -0.1755
23733W        W40580   0.276   3.424   0.368 -0.2876 -0.2289 -0.3688
23734W        W40581   7.801  10.415  13.297  0.0463 -0.2579  0.0385
23735W        W40582  14.961   2.009   2.602 -0.1873  0.2224  0.2623
23736W        W40583   7.109   2.360  16.157  0.1004  0.1816 -0.1318
23737W        W40584  15.427   5.245   1.465 -0.1694  0.1740 -0.0665
23738W        W40585  17.956  10.911  14.193 -0.1424  0.1769  0.0071
23739W        W40586  14.168   2.731   3.839  0.0216  0.1977 -0.2663
23740W        W40587  12.196   0.723   3.043 -0.2543 -0.0103 -0.2164
23741W        W40588   2.634   9.187  16.345  0.1715 -0.2231 -0.0777
23742W        W40589  13.380   5.846   2.405  0.0558 -0.0907  0.0505
23743W        W40590  15.918   6.970  14.402  0.2703 -0.0604 -0.2781
23744W        W40591  16.545   8.556  13.103  0.0184  0.2839  0.1885
23745W        W40592   3.535   3.903   5.096  0.2087  0.2092 -0.0091
23746W        W40593  13.089  14.648   3.012  0.2914  0.1167  0.1915
23747W        W40594  16.848   6.985  15.955  0.1059 -0.3096  0.3547
23748W        W40595  16.433   8.823   4.641 -0.1165 -0.0811 -0.1065
23749W        W40596  12.802  13.324   5.626 -0.1275 -0.0759  0.1286
23750W        W40597   3.103   1.901   2.155  0.0215  0.0535  0.3615
23751W        W40598  13.227  16.709   0.723  0.3425 -0.2807  0.0514
23752W        W40599  13.614   0.866   0.488  0.1689 -0.3000 -0.1987
23753W        W40600   6.688  13.701   0.754  0.0200 -0.0467 -0.2611
23754W        W40601  12.583   7.585  11.354 -0.2423  0.0412 -0.1176
23755W        W40602  17.548   4.764  12.213 -0.0453  0.0738  0.1442
23756W        W40603  12.411   5.059  14.596  0.0672  0.1063 -0.0000
23757W        W40604  17.760  15.777  12.718  0.0873  0.3919 -0.3169
23758W        W40605   5.540   6.393  13.402  0.1007 -0.2112  0.0386
23759W        W40606  16.492   9.343   2.148  0.1366 -0.1618 -0.1176
23760W        W40607  10.356   0.363   1.304  0.0606 -0.1557 -0.3253
23761W        W40608  13.970  14.489  12.022  0.1595 -0.1484 -0.0524
23762W        W40609  11.898   5.795   0.059 -0.1419 -0.0258 -0.2812
23763W        W40610   7.250  16.896   1.705 -0.0330  0.1556 -0.0547
23764W        W40611   0.806  16.707   1.225 -0.0529  0.3181  0.7009
23765W        W40612   9.380   2.648   1.030 -0.3598 -0.0518 -0.1358
23766W        W40613  17.927  13.639   2.411  0.3531 -0.2130 -0.2240
23767W        W40614   3.297  10.788   5.035  0.0227 -0.0892 -0.1809
23768W        W40615  17.758   0.126   2.607 -0.0009 -0.2012  0.2229
23769W        W40616  10.963   6.351  14.013  0.0285  0.2568 -0.0497
23770W        W40617   8.670   7.450   4.377  0.0650 -0.0061  0.0281
23771W        W40618   6.182   2.741   3.464  0.2324 -0.0422  0.1353
23772W        W40619  16.663  10.821  13.584 -0.2010  0.1186  0.2050
23773W        W40620   3.314  17.784   3.079  0.2514  0.1714  0.2457
23774W        W40621   0.520  11.915   5.062  0.1463  0.0636 -0.1029
23775W        W40622  14.560  10.979   0.866  0.0685  0.0890 -0.2255
23776W        W40623   7.792   5.948  13.037  0.1748 -0.0227 -0.3576
23777W        W40624  17.700  15.839   3.089  0.1342 -0.3471  0.1257
23778W        W40625   4.314   7.982  16.620 -0.4613  0.0322  0.4152
23779W        W40626  12.060   1.942   0.219  0.1167 -0.4722  0.0513
23780W        W40627   2.102   0.481  12.576 -0.0823  0.1265 -0.0034
23781W        W40628   6.325   3.439  11.625 -0.0629 -0.1986  0.1338
23782W        W40629   8.165   4.536  15.447 -0.0434  0.1781  0.1697
23783W        W40630   9.782   4.817   3.612  0.0790 -0.1344 -0.0286
23784W        W40631   8.978   0.762   4.752 -0.4010  0.2716  0.0895
23785W        W40632   1.430   4.289   2.798  0.3251  0.0900  0.1342
23786W        W40633  14.334   8.389  12.526  0.1108  0.2537 -0.0870
23787W        W40634  11.762   7.015  11.683  0.2181 -0.0820  0.1076
23788W        W40635  15.689  13.925  14.765 -0.0891  0.0338  0.0361
23789W        W40636  11.431  12.458  13.050 -0.2419  0.0349  0.1762
23790W        W40637   4.723   7.885  11.614  0.0359  0.0581  0.0476
23791W        W40638   0.493  17.067  16.514  0.0356 -0.0094  0.4782
23792W        W40639   8.336  14.832   3.234 -0.0952  0.0446  0.2068
23793W        W40640   1.161  12.643   1.270  0.0529 -0.2176 -0.0386
23794W        W40641   9.288   5.356  11.330  0.0421 -0.2428 -0.2267
23795W        W40642   1.158  12.095  13.280 -0.0231  0.1567  0.2137
23796W        W40643  11.014   6.506  11.781  0.0074 -0.2926  0.2207
23797W        W40644   0.789   2.344  11.234  0.1852 -0.0577 -0.1443
23798W        W40645   6.976   4.914   0.583 -0.1372  0.1730  0.1327
23799W        W40646   0.092   5.488  14.901 -0.4049  0.2839 -0.2906
23800W        W40647  15.147   6.009   1.993  0.2930  0.2639 -0.0763
23801W        W40648  17.720  17.124  11.693  0.2530 -0.0838  0.1636
23802W        W40649  11.592  12.149  11.769 -0.2972 -0.2375 -0.1730
23803W        W40650   8.117  15.253   5.643 -0.3742  0.1199  0.0846
23804W        W40651   4.649   6.244   2.804  0.1138 -0.2235  0.0246
23805W        W40652   6.111  11.699   5.619 -0.0876 -0.0519  0.2583
23806W        W40653   3.359   4.809  11.449  0.1163  0.0950  0.0219
23807W        W40654  13.374  13.817   2.193  0.0773  0.2858 -0.1198
23808W        W40655  13.860   7.564   2.116 -0.0154  0.2135  0.1739
23809W        W40656  10.526   7.311  12.671 -0.1076  0.0957  0.3180
23810W        W40657   9.364   0.061   1.264 -0.1493 -0.4238 -0.1443
23811W        W40658   8.233   5.349  15.462  0.0746  0.1085 -0.0995
23812W        W40659  13.252   5.491  13.899  0.0938 -0.2110 -0.3304
23813W        W40660   2.756  10.594  14.017 -0.0429  0.0315 -0.1988
23814W        W40661   2.310   7.986   3.541 -0.3359 -0.0183 -0.0834
23815W        W40662  10.887   6.666   2.393 -0.0435 -0.1428  0.1407
23816W        W40663   1.770  15.656   4.617  0.2011  0.3722 -0.0979
23817W        W40664   5.402  13.178   4.873  0.2443  0.0711 -0.0612
23818W        W40665  13.117   9.156  16.621  0.1255  0.1959 -0.5532
23819W        W40666  10.858   1.426  14.842  0.3344 -0.1154  0.0232
23820W        W40667   7.727   3.450   0.197  0.1945  0.0416 -0.2642
23821W        W40668  17.617  17.300  15.683  0.1297  0.0589 -0.0953
23822W        W40669   4.466  11.631   1.542  0.2039  0.1540 -0.1866
23823W        W40670   8.340   1.524  11.857 -0.3284  0.1569 -0.2312
23824W        W40671  14.235   2.071  12.133 -0.0492  0.0402  0.1480
23825W        W40672   3.473  15.721  12.818 -0.1688 -0.0203  0.0638
23826W        W40673   2.360  10.736   2.747 -0.0525 -0.2729 -0.2441
23827W        W40674   5.903  12.882   0.844  0.1187 -0.1607  0.1692
23828W        W40675   6.589   6.244  14.607  0.3380  0.1091 -0.0436
23829W        W40676  17.317   1.680  11.833  0.2868  0.3522 -0.0863
23830W        W40677  17.185  16.183  15.437 -0.3116  0.5258 -0.1457
23831W        W40678  15.924  16.312   3.741  0.1623  0.2337  0.1309
23832W        W40679  12.119  10.065  13.859 -0.0571 -0.2459  0.1354
23833W        W40680   5.538  17.254  12.902  0.1780 -0.0481  0.1065
23834W        W40681  11.377   3.369   0.070  0.1914 -0.2200  0.1678
23835W        W40682   2.252   1.823  12.647 -0.0808  0.2578  0.0687
23836W        W40683   0.744  18.164   0.117  0.1804 -0.0077  0.1364
23837W        W40684   8.976  17.870   3.703 -0.2318 -0.4590  0.3380
23838W        W40685   6.028   0.514   4.773 -0.1100  0.0648 -0.0610
23839W        W40686   7.748   0.641   4.041 -0.3494 -0.2941  0.2611
23840W        W40687   8.310  17.923  11.959 -0.2905  0.1975  0.2043
23841W        W40688   4.630  14.250   1.519  0.1818  0.0953 -0.1012
23842W        W40689  15.245  11.881   1.634  0.0378  0.4306 -0.2698
23843W        W40690  17.195   8.424   0.621  0.2571 -0.1852 -0.0738
23844W        W40691   6.936  15.006  13.738 -0.0401  0.1982  0.0692
23845W        W40692  15.737   7.987   2.704 -0.1383  0.2766  0.0782
23846W        W40693  15.869  13.896  13.120  0.0570 -0.1599  0.0699
23847W        W40694   0.638   3.443  15.955  0.0382 -0.1198  0.0889
23848W        W40695   0.475  15.083  12.607  0.0161 -0.1795  0.1517
23849W        W40696  16.289  13.769   0.839 -0.0502  0.0431  0.0496
23850W        W40697   6.067   5.353  14.342  0.0022  0.0260  0.2367
23851W        W40698  15.190   5.471   2.813 -0.2325  0.0154 -0.1349
23852W        W40699   6.258   0.276   5.509  0.2543 -0.1574  0.4125
23853W        W40700   0.161   3.012  14.965  0.1862 -0.1593 -0.0378
23854W        W40701   4.369  16.396  12.910  0.2881  0.2497  0.3762
23855W        W40702   7.736   1.298   3.066 -0.2977 -0.1735  0.1307
23856W        W40703   9.625  15.138   2.220  0.1566  0.0992  0.0914
23857W        W40704   6.471  14.328  12.638 -0.0982  0.1317 -0.2827
23858W        W40705   7.650   4.851   5.635 -0.0599 -0.2490 -0.1732
23859W        W40706  17.027  17.275   3.775  0.1154  0.1742  0.0110
23860W        W40707  17.845  13.260   2.983  0.2133  0.1137  0.1823
23861W        W40708   4.601  14.785  15.094  0.0264  0.1202 -0.4565
23862W        W40709  12.822   6.853  11.908 -0.1878  0.0145  0.1401
23863W        W40710  16.177   5.834  14.915  0.1717 -0.1228 -0.0122
23864W        W40711   9.465  11.366   3.656 -0.0968 -0.0861  0.0501
23865W        W40712  17.464  11.763  14.132  0.0761  0.1321 -0.1450
23866W        W40713   4.474  16.551  13.533 -0.1027  0.3041 -0.2238
23867W        W40714   7.814   3.137  13.180 -0.2486 -0.1155  0.0336
23868W        W40715   7.147   3.209  12.205  0.1838  0.0603 -0.0344
23869W        W40716   4.510   1.795   1.616 -0.2422 -0.1520  0.2157
23870W        W40717  16.740   3.719  14.240 -0.0735 -0.1075  0.1377
23871W        W40718   1.506  10.565   5.984  0.0414  0.0180  0.1716
23872W        W40719   4.325  15.955  12.533  0.3127  0.2318 -0.1411
23873W        W40720   3.561   9.484   1.870 -0.1449  0.0962 -0.1957
23874W        W40721   6.349  16.164  14.048  0.2098 -0.2184 -0.0978
23875W        W40722   9.966  14.884  12.319 -0.0823  0.0609 -0.1011
23876W        W40723   6.552   5.110   3.958 -0.2071 -0.0764  0.4123
23877W        W40724   2.153   4.521   1.474 -0.1413 -0.0837  0.1615
23878W        W40725   0.407   7.901   4.558  0.4053  0.3880  0.2387
23879W        W40726   6.480  17.328  15.082 -0.4973 -0.1452 -0.0712
23880W        W40727   7.808   4.394   5.146 -0.0110  0.0048 -0.0152
23881W        W40728   0.638  17.013   2.196 -0.0771  0.1040 -0.2616
23882W        W40729   0.242   0.215   1.896 -0.1283 -0.3011 -0.1460
23883W        W40730  12.572   3.126   4.453 -0.0872 -0.1299 -0.0168
23884W        W40731  17.904   0.972  15.787  0.0198  0.1560 -0.0239
23885W        W40732  14.210  10.632   4.329 -0.1365  0.0798 -0.3433
23886W        W40733  10.934  11.044   3.812  0.0673 -0.1558 -0.2247
23887W        W40734   1.551   0.433   2.183  0.2015 -0.2651  0.1052
23888W        W40735  16.618  15.417   2.114 -0.0384  0.1356  0.3103
23889W        W40736   2.255   0.350   5.508 -0.0864  0.1525  0.0480
23890W        W40737  11.856   2.857   5.647 -0.0518  0.1995  0.0418
23891W        W40738   4.090  10.314   3.481  0.1026 -0.0898  0.4277
23892W        W40739  15.309   8.572   4.454 -0.0785 -0.0981  0.0585
23893W        W40740   6.772   0.021   1.678  0.1866  0.2014 -0.1301
23894W        W40741   7.763   8.126  15.151 -0.0881  0.2391  0.1883
23895W        W40742  13.084  11.251  11.782  0.2277  0.0233  0.0633
23896W        W40743  16.224   3.769  14.956  0.1670 -0.1171  0.0923
23897W        W40744  15.149   8.638   3.317  0.2240 -0.2428 -0.0114
23898W        W40745  14.237   3.043  14.514  0.3139  0.0413  0.1724
23899W        W40746  10.829   6.568   1.302 -0.0402 -0.0349 -0.2138
23900W        W40747   3.985  14.646   0.919 -0.2123  0.1255 -0.2625
23901W        W40748  16.527   6.431  12.956 -0.1611 -0.0138  0.0655
23902W        W40749   4.189  12.533  13.345 -0.0465  0.0350 -0.0436
23903W        W40750   6.249  17.926  12.900  0.0494  0.0007 -0.1828
23904W        W40751  14.905  16.809   4.541 -0.4348 -0.0044  0.1196
23905W        W40752   2.783   1.241  14.706  0.0306  0.2207  0.1931
23906W        W40753   3.094   5.513   4.014 -0.0459 -0.0545 -0.0117
23907W        W40754  11.572  12.351   0.456  0.0100  0.1288 -0.2360
23908W        W40755   9.117   2.899  16.173 -0.0819  0.0959  0.3015
23909W        W40756   9.918   3.399   1.757  0.0838 -0.2988  0.0009
23910W        W40757  17.141   6.763  12.217 -0.0939 -0.0865  0.3070
23911W        W40758  17.104   4.591  13.161 -0.2285 -0.0996 -0.0568
23912W        W40759   7.310  13.936   2.678 -0.1188  0.1212 -0.3069
23913W        W40760   5.318   5.339   2.832  0.0080 -0.2541 -0.1106
23914W        W40761  17.455  11.112   0.554  0.0906  0.3688 -0.0917
23915W        W40762  17.663  16.649  14.955  0.1233 -0.1190 -0.3200
23916W        W40763   9.239  14.579   1.488 -0.2398 -0.1890  0.1220
23917W        W40764   7.245   7.084  13.025  0.1620  0.1105 -0.0564
23918W        W40765  14.810   1.178   5.113 -0.3416  0.1204 -0.0237
23919W        W40766  11.591   6.596  15.065 -0.3208 -0.1228  0.2836
23920W        W40767   0.966  10.412  14.949 -0.1195 -0.2790  0.1093
23921W        W40768   9.345   8.261  16.083 -0.2670 -0.1220  0.0601
23922W        W40769   2.762  13.078  14.993 -0.0778 -0.0009  0.2315
23923W        W40770   5.465  13.434   4.339  0.1069  0.2547 -0.0193
23924W        W40771   4.957   8.824   4.810 -0.1834 -0.2236 -0.2328
23925W        W40772   2.477  13.349   1.694 -0.0632 -0.2644 -0.0175
23926W        W40773  11.838   8.666  13.683 -0.0335 -0.2492 -0.1478
23927W        W40774   5.488   0.265   0.162 -0.0576  0.0111 -0.0437
23928W        W40775   4.511   1.236   2.479  0.0220  0.0550 -0.0691
23929W        W40776   2.701  17.680   4.279  0.0493  0.0233  0.1658
23930W        W40777  17.411  14.654   2.370 -0.0617 -0.2264  0.0960
23931W        W40778   0.736   7.854   4.975 -0.1252 -0.1783  0.1758
23932W        W40779   1.116   1.713   1.343  0.1200  0.3471 -0.0198
23933W        W40780  10.138   0.223  16.500 -0.0211 -0.1768 -0.2750
23934W        W40781   3.160   5.100   0.788  0.1260 -0.0657 -0.0895
23935W        W40782  11.603   3.326   4.860  0.2073  0.1474 -0.2150
23936W        W40783  11.725   6.891   4.795  0.1724 -0.1253 -0.2465
23937W        W40784  13.094   9.007   0.756 -0.0651  0.0817 -0.3494
23938W        W40785   3.428   8.843  12.906 -0.2900 -0.2066  0.0231
23939W        W40786  17.184   8.993   1.254  0.0583  0.0301 -0.1968
23940W        W40787   0.638  17.214  14.059  0.0011  0.0618  0.1431
23941W        W40788  14.500   7.050  11.012  0.0095  0.0640  0.0492
23942W        W40789   4.825  14.261   4.328 -0.2096 -0.0083  0.1397
23943W        W40790   3.474  11.042   4.143  0.0231  0.3623  0.0039
23944W        W40791   3.934   9.769  14.971 -0.1297  0.0994  0.1187
23945W        W40792  13.665  11.178  15.247  0.2635  0.1531  0.2988
23946W        W40793  16.096   9.048   2.977 -0.4327 -0.2159 -0.0501
23947W        W40794  15.450  16.317   3.171  0.2168  0.2985 -0.1232
23948W        W40795   2.268  16.888   0.531 -0.0051 -0.2257  0.1237
23949W        W40796   8.098   2.624   2.248  0.0891 -0.2503  0.2647
23950W        W40797   3.851   8.416   0.761  0.2139  0.1108 -0.0121
23951W        W40798  17.020   0.823  12.060  0.1545 -0.0133  0.0154
23952W        W40799   9.239  10.005  12.567 -0.2245 -0.2885  0.1128
23953W        W40800   4.969  16.222   1.403 -0.3175 -0.2631 -0.1422
23954W        W40801   1.149   3.895  15.771 -0.1205 -0.1697 -0.0179
23955W        W40802   4.029   8.602   4.027  0.1929  0.1369 -0.2284
23956W        W40803  13.956   6.074   0.896 -0.1135 -0.1047  0.1735
23957W        W40804  14.850   5.645  13.591 -0.6640 -0.0093  0.1717
23958W        W40805   1.323  11.207   1.770  0.0060  0.2406 -0.3570
23959W        W40806  11.337   5.697  12.300  0.1044  0.0010 -0.0778
23960W        W40807  10.895   7.157   3.363  0.0061 -0.1311  0.1561
23961W        W40808   4.662  15.158  13.435  0.1701 -0.0643 -0.1765
23962W        W40809   5.562  15.291  12.460  0.3154  0.1526  0.0157
23963W        W40810   4.065   5.033  13.283 -0.0733 -0.0130  0.1515
23964W        W40811   0.441  10.983  14.031  0.1088 -0.1906  0.0550
23965W        W40812   8.589   2.255   4.690 -0.0065 -0.2329 -0.1037
23966W        W40813  10.777  14.944  11.989 -0.0118 -0.5035 -0.1223
23967W        W40814   4.419  10.110   0.779  0.0571 -0.1112 -0.1922
23968W        W40815  13.858   8.462   0.666 -0.2526  0.0677 -0.0644
23969W        W40816  17.845   8.626   2.404 -0.0433 -0.2471 -0.2279
23970W        W40817  11.351   4.190   3.571  0.6863  0.0166  0.1122
23971W        W40818  13.430  17.774  12.426  0.0562  0.3133 -0.1791
23972W        W40819  11.543   9.059  13.789  0.0434  0.0763  0.0160
23973W        W40820  10.355   4.641  16.366  0.3400  0.2383 -0.1710
23974W        W40821  10.271   5.558  12.022 -0.2017 -0.2296  0.1226
23975W        W40822   8.436  14.873   1.732  0.1429  0.1425 -0.1316
23976W        W40823  13.312   3.038   2.413  0.0718  0.0585  0.1461
23977W        W40824   0.782   3.958   1.005 -0.4043 -0.1250 -0.1911
23978W        W40825   8.977   1.029  15.254 -0.2741  0.4646  0.2203
23979W        W40826   0.290  18.140   2.837  0.1939 -0.1713 -0.0830
23980W        W40827   7.340  14.900   5.731  0.1852  0.4278 -0.0461
23981W        W40828   2.464  10.232   0.728 -0.2117  0.0638  0.0882
23982W        W40829  11.725   2.395   3.258 -0.0931  0.0571 -0.1978
23983W        W40830  15.474  14.388  13.114 -0.2478  0.0382 -0.2840
23984W        W40831  12.255   0.032   5.262 -0.1264  0.0163  0.1111
23985W        W40832  13.689   2.964   3.755 -0.2199 -0.1003  0.2227
23986W        W40833   1.720  14.466   0.201 -0.2299 -0.1270  0.0033
23987W        W40834  17.814  13.844   0.704  0.3291  0.0861  0.2341
23988W        W40835   1.792  11.992  15.398  0.4818 -0.2679  0.0231
23989W        W40836   4.225   0.076   2.747  0.2699  0.0405 -0.1048
23990W        W40837   0.573  11.647  12.307  0.2430  0.2456 -0.0755
23991W        W40838  12.601   9.748  15.760  0.0508 -0.2547  0.1039
23992W        W40839  12.291  13.975   5.011  0.0677  0.2778  0.0050
23993W        W40840  14.255   6.521   3.499  0.0918  0.0931  0.2336
23994W        W40841   0.949   4.792   5.818  0.0002 -0.0754 -0.0596
23995W        W40842  12.321   3.832  15.880 -0.1666  0.1264  0.1159
23996W        W40843  13.086  17.024  13.361 -0.0486 -0.1571 -0.3117
23997W        W40844  15.161  12.778  12.709 -0.4259  0.1687  0.1601
23998W        W40845   4.824  15.581  13.228 -0.2744 -0.1017  0.3346
23999W        W40846   4.925  14.148  13.996 -0.2431  0.0632 -0.0250
24000W        W40847   1.011   2.635  13.045  0.0218 -0.3003  0.0260
24001W        W40848  14.233   4.511  12.163 -0.2682 -0.0490  0.0241
24002W        W40849   4.013  14.087  13.440 -0.1841 -0.2446 -0.1150
24003W        W40850   5.633   7.647  14.066 -0.0694 -0.1141 -0.3277
24004W        W40851   6.190  10.596   4.731 -0.1100  0.1703 -0.1768
24005W        W40852  17.713   3.956  14.863 -0.0855  0.1112 -0.1005
24006W        W40853   3.188  16.599   5.434  0.2497  0.1239 -0.1330
24007W        W40854   2.941   7.411   5.132 -0.0377  0.0861  0.2114
24008W        W40855   0.182   2.109  15.243 -0.4203 -0.2329 -0.1630
24009W        W40856  17.157  16.793  16.244  0.0298 -0.0235 -0.1397
24010W        W40857   2.302   3.592  15.494 -0.0856 -0.1180 -0.4026
24011W        W40858  11.422   2.988  11.465 -0.2237 -0.0260  0.0068
24012W        W40859   0.033  17.827  14.476 -0.5149  0.0387  0.3427
24013W        W40860  16.862   8.045   3.577 -0.0978  0.0316 -0.1490
24014W        W40861   8.824   7.375   0.873  0.4874  0.1132  0.0677
24015W        W40862   2.534  13.833  15.075  0.1204  0.1260 -0.5383
24016W        W40863   9.877  10.041  16.308 -0.2671  0.2669  0.1782
24017W        W40864   6.720  17.666  12.833  0.3009 -0.1686 -0.1166
24018W        W40865   2.264  10.672   2.243  0.1462  0.1813  0.3471
24019W        W40866  12.964   5.775  14.492 -0.3980 -0.1307  0.2145
24020W        W40867   1.760  10.670  12.505  0.0172  0.1545 -0.2312
24021W        W40868  12.131  10.564  14.051  0.0082 -0.1276  0.0849
24022W        W40869  11.028  17.125   4.148  0.1375  0.2064 -0.3910
24023W        W40870  17.916   8.199  16.535 -0.1723  0.0518  0.1735
24024W        W40871   7.166   9.653   0.779  0.2170  0.1870 -0.3428
24025W        W40872   3.868   8.554   2.181  0.0559  0.1025  0.2275
24026W        W40873  13.690   6.643   4.871  0.1257  0.1248  0.3732
24027W        W40874   4.999  12.784  12.552  0.0655 -0.1452  0.0841
24028W        W40875   7.396   9.270  16.567 -0.1233 -0.1527 -0.2003
24029W        W40876   3.206   5.826  12.530  0.0075 -0.2406 -0.1629
24030W        W40877  15.108   2.451  13.310  0.0744 -0.0645  0.0522
24031W        W40878   5.863  14.357  15.470  0.0701 -0.0286 -0.0156
24032W        W40879   7.602  10.170   0.548  0.0132  0.0382  0.0276
24033W        W40880   4.078   7.547   2.126 -0.3215 -0.2649  0.3420
24034W        W40881   4.914  16.540  11.548 -0.0990  0.2114  0.1812
24035W        W40882  10.474  10.516  13.208  0.1621  0.5151 -0.0800
24036W        W40883  16.190   3.020  12.173 -0.0483 -0.1716 -0.2815
24037W        W40884  10.563  10.328  15.274  0.1173  0.2605  0.0447
24038W        W40885   6.095   4.503  12.318 -0.3428  0.2419  0.0759
24039W        W40886  14.621   8.918  11.499 -0.1651  0.2286 -0.0819
24040W        W40887  11.373  14.024  13.002 -0.3184 -0.1666  0.0575
24041W        W40888   3.157   3.604   5.136 -0.1588  0.1427 -0.1869
24042W        W40889   2.992   7.386  13.775 -0.0553  0.4349 -0.5437
24043W        W40890   0.769   0.599  13.816  0.1558 -0.0377  0.0348
24044W        W40891   8.224   1.441   4.751  0.2066 -0.1041  0.0007
24045W        W40892  17.586   6.142  14.899 -0.0702  0.0121  0.2479
24046W        W40893   6.109  17.008  14.359  0.1177  0.0997 -0.0716
24047W        W40894  12.277   5.384   0.191 -0.0176 -0.3720  0.0710
24048W        W40895  10.428   6.476   0.999  0.1120 -0.2844  0.0649
24049W        W40896   4.369   7.401   4.351  0.0943 -0.1642  0.0810
24050W        W40897   6.923  10.921  14.248  0.2850  0.0748  0.0493
24051W        W40898   8.457   7.216   3.336  0.4148 -0.2508 -0.0648
24052W        W40899  16.331   2.493   5.763 -0.2765 -0.2785 -0.1403
24053W        W40900  11.388  13.963  13.835  0.0122  0.2072  0.0632
24054W        W40901  16.432  12.888  15.967  0.1218 -0.0246  0.1186
24055W        W40902  13.973  10.362   1.000  0.0535  0.1546  0.0735
24056W        W40903   1.842   1.290   2.579  0.0536  0.0141 -0.2011
24057W        W40904   6.295   4.230   1.642  0.0828 -0.1010 -0.0684
24058W        W40905  16.079   8.738   2.590  0.3007  0.1719  0.2029
24059W        W40906   3.830   4.970   1.190  0.0376 -0.0453  0.1806
24060W        W40907  14.546  11.347  14.436 -0.2870 -0.2392  0.2343
24061W        W40908   4.202   2.586   5.388 -0.0327 -0.0724  0.2482
24062W        W40909  11.226  12.735   1.169 -0.2838  0.0261 -0.0162
24063W        W40910  13.610   5.730  11.861  0.1076 -0.1051 -0.1819
24064W        W40911   1.791  10.915  15.657 -0.2415  0.1453  0.2339
24065W        W40912   0.893  11.263  11.883  0.3389  0.1028 -0.1248
24066W        W40913   7.174   0.006   3.795 -0.0723  0.3624  0.0139
24067W        W40914  10.029   9.965  13.565 -0.3611 -0.0529 -0.1168
24068W        W40915   6.029   1.977  11.710 -0.0264  0.1846  0.2950
24069W        W40916   6.434   8.739   1.575 -0.0974  0.0170 -0.3466
24070W        W40917   7.618  17.955   3.231  0.0581  0.3013 -0.2767
24071W        W40918   3.868  12.867   4.740 -0.0433  0.2117  0.2296
24072W        W40919  14.277  13.844   1.792 -0.1991 -0.1152  0.0863
24073W        W40920   9.099  10.353   0.613  0.0991 -0.0361  0.0854
24074W        W40921   1.559  14.080  12.280 -0.1684  0.1748 -0.1281
24075W        W40922   2.789  15.229  12.005 -0.0282 -0.0503 -0.0504
24076W        W40923  13.620   6.445  12.373 -0.3361 -0.2607  0.0321
24077W        W40924  14.501   6.991   4.474 -0.0623 -0.0196 -0.0302
24078W        W40925  11.917   8.547   1.855  0.0859  0.1374  0.1723
24079W        W40926   7.936   7.403   1.119  0.1211  0.1691  0.0823
24080W        W40927   2.509  13.617   4.844  0.1813  0.0576 -0.1270
24081W        W40928   6.043   4.780   5.734  0.1525 -0.2020 -0.3258
24082W        W40929   8.674   4.190   0.840 -0.0681  0.0417  0.0767
24083W        W40930  12.948  11.550   2.593  0.2444  0.0130  0.2919
24084W        W40931   0.587  18.058   3.626 -0.1539  0.2160 -0.2500
24085W        W40932  11.802  11.247   4.578 -0.1519  0.2635 -0.0456
24086W        W40933  15.999   6.538  15.658  0.3813 -0.0708  0.1731
24087W        W40934   8.676   0.922  14.632 -0.0650 -0.1142  0.3613
24088W        W40935   7.396   7.199   5.545 -0.1653 -0.1920 -0.0066
24089W        W40936  16.821   2.550   5.358  0.2853 -0.2198  0.1909
24090W        W40937  10.995  10.421   4.783  0.0602 -0.2790 -0.1302
24091W        W40938   2.500   5.262   0.292  0.0780 -0.2148 -0.4572
24092W        W40939  15.566   4.075  13.610 -0.2319 -0.0457  0.0197
24093W        W40940  13.046   0.293  13.656  0.0940 -0.2130 -0.0177
24094W        W40941  10.784  18.073  14.752 -0.1312 -0.3175  0.0038
24095W        W40942   1.809  15.677  16.536  0.2688  0.1753 -0.1229
24096W        W40943  11.329  17.460  15.385 -0.0417 -0.0932  0.0956
24097W        W40944  14.143   7.241   4.754 -0.1286  0.2395 -0.0620
24098W        W40945  17.099   6.361   0.607  0.0861 -0.0100 -0.1227
24099W        W40946   1.198   9.378   3.381 -0.1387  0.3024  0.1593
24100W        W40947  16.469   0.811   3.907 -0.0814  0.1319 -0.3674
24101W        W40948   1.629   4.404  12.892  0.0201  0.0453 -0.0666
24102W        W40949   4.277  16.264   1.290  0.2224 -0.0343 -0.2944
24103W        W40950   9.594   4.473   2.509  0.0162  0.1501 -0.0827
24104W        W40951  14.175   8.686   3.330  0.0532 -0.0571 -0.0912
24105W        W40952   0.253   9.917   4.911 -0.1174 -0.1656 -0.0684
24106W        W40953  15.045  16.704  15.545  0.1592 -0.1674 -0.2699
24107W        W40954  16.264  17.903  13.419  0.2087  0.0241  0.1652
24108W        W40955  14.879   9.312   4.871 -0.0393  0.2956  0.4226
24109W        W40956  10.930  10.193  16.595  0.0648  0.0796  0.0134
24110W        W40957   9.845   4.365  13.179 -0.0545 -0.2429  0.1863
24111W        W40958  12.557   0.623  15.048  0.3517 -0.4240  0.3005
24112W        W40959  14.220   9.538   2.154 -0.1809  0.0867  0.2051
24113W        W40960  13.245   8.268  14.213  0.1566  0.1569  0.1577
24114W        W40961  11.999   9.050  12.340  0.2028 -0.0722  0.0654
24115W        W40962   0.424  11.401   1.360 -0.0520 -0.1805 -0.3225
24116W        W40963   3.864   8.100   1.763  0.2754  0.2949  0.1804
24117W        W40964  18.132   3.300  11.550 -0.2417 -0.1065 -0.0135
24118W        W40965   6.027  13.398  14.558 -0.1474  0.0134 -0.5743
24119W        W40966   5.916  16.575   2.822  0.0367 -0.0807 -0.0068
24120W        W40967   2.807  17.147   1.148  0.2592  0.0907  0.0218
24121W        W40968   1.027   6.342   4.153 -0.3759 -0.0721  0.3437
24122W        W40969   3.224  16.918  15.625  0.1917  0.0130 -0.2256
24123W        W40970  16.468  16.135   0.131  0.2499 -0.0299  0.1989
24124W        W40971   5.205  13.232  16.130  0.0278 -0.0087  0.1408
24125W        W40972   4.486   5.972  14.401  0.1351 -0.1206 -0.1036
24126W        W40973   5.625  17.385   3.278  0.1250 -0.1496  0.2590
24127W        W40974   4.495  10.408  15.495  0.2487  0.3823 -0.1141
24128W        W40975  12.795   7.681   0.830  0.3571  0.0636 -0.2011
24129W        W40976   8.494   3.351  12.483 -0.2942 -0.1460 -0.2797
24130W        W40977  11.178  15.193   1.734  0.3442 -0.1127 -0.0586
24131W        W40978  13.454  12.525   2.381  0.2351  0.0708  0.1605
24132W        W40979  15.763   3.233  11.712  0.0756 -0.2057 -0.2679
24133W        W40980  12.245  17.464   6.363 -0.0144 -0.2046  0.1427
24134W        W40981   5.176   4.092   4.199  0.4396  0.2441  0.2481
24135W        W40982   1.857   2.223  14.750 -0.0935  0.0346 -0.0039
24136W        W40983   6.991  10.444  13.993  0.0055 -0.3500 -0.0295
24137W        W40984  13.987   7.757   1.611  0.0066  0.0121 -0.1693
24138W        W40985   7.663   9.021   4.899 -0.0222 -0.0862 -0.0391
24139W        W40986   9.529  14.944  11.614 -0.0159  0.2651  0.0108
24140W        W40987  12.919   3.325  14.543  0.0513  0.0261  0.2941
24141W        W40988   6.096  17.735  13.880  0.2907  0.1706 -0.1100
24142W        W40989   5.999   4.503   3.823  0.0897  0.0674  0.4969
24143W        W40990  17.837  15.438  12.221 -0.2226 -0.0137  0.1539
24144W        W40991   6.487   2.275  13.747 -0.0368  0.1056  0.1285
24145W        W40992  12.296   7.976  11.446  0.2293 -0.1283 -0.1571
24146W        W40993  14.989   2.636  15.836 -0.0289 -0.3020 -0.1623
24147W        W40994   1.279   5.331   1.159 -0.0671 -0.1914  0.1284
24148W        W40995  17.692  10.750  12.547 -0.0365  0.0020  0.2325
24149W        W40996  15.370   7.734  13.306 -0.2227 -0.1926  0.1192
24150W        W40997  16.374  15.070  13.295  0.1003 -0.0824 -0.0942
24151W        W40998   3.576   0.096   0.593 -0.1396 -0.0973  0.3502
24152W        W40999  13.056  15.449  15.851  0.1700  0.1329  0.2901
24153W        W41000   7.380  11.112  14.451  0.0130 -0.1936 -0.0893
24154W        W41001  10.056   1.369  14.977  0.0219 -0.0635 -0.1442
24155W        W41002   8.019   4.650  12.730 -0.3090  0.2609 -0.1035
24156W        W41003  15.059  12.923  14.059  0.1208 -0.0041 -0.1151
24157W        W41004   7.035  18.052  13.792  0.3645  0.1828  0.0340
24158W        W41005   1.958  14.974  14.855  0.1879 -0.0822  0.0193
24159W        W41006  12.442  17.154   0.056 -0.0226  0.0174 -0.2607
24160W        W41007   8.250   9.037  15.540  0.4958  0.2707 -0.0267
24161W        W41008   8.987   8.612   1.948 -0.2507 -0.2502 -0.0276
24162W        W41009   8.800   3.778  12.703 -0.0876 -0.0106  0.1313
24163W        W41010  15.980  13.972   0.422 -0.0744  0.0351  0.0452
24164W        W41011   2.605   1.500   2.559  0.3745  0.1471 -0.1964
24165W        W41012   1.387  14.395   1.478  0.2145  0.1861  0.1408
24166W        W41013   2.167  16.894   1.829 -0.0733 -0.0322 -0.0965
24167W        W41014   9.999   8.270  14.379  0.2678  0.4827 -0.0912
24168W        W41015  10.135   0.194   5.891 -0.1420 -0.2430 -0.0034
24169W        W41016   2.639  12.590  14.952  0.4537  0.0819  0.2018
24170W        W41017   7.129  13.397  12.887  0.1214 -0.2068  0.0068
24171W        W41018   9.427  16.434  13.774  0.2986 -0.1680 -0.3315
24172W        W41019   1.722   9.516  13.159 -0.1117 -0.1863  0.3581
24173W        W41020  17.557  12.623  16.351 -0.0165  0.1751 -0.3272
24174W        W41021   6.460   4.887  12.205 -0.0657 -0.1394  0.0038
24175W        W41022   8.539  12.938  14.158  0.0945 -0.1276 -0.1645
24176W        W41023   8.998  12.331  15.697  0.1825  0.0188 -0.0591
24177W        W41024  14.042  16.962  14.902 -0.1448 -0.1116  0.0026
24178W        W41025  17.126   8.588   3.311 -0.1411 -0.0270  0.3333
24179W        W41026   3.193  14.015   1.891  0.0025  0.2557 -0.1846
24180W        W41027   7.831  12.037  15.525 -0.1454 -0.1833  0.0896
24181W        W41028   6.471   0.285  12.112 -0.0379 -0.0320  0.0699
24182W        W41029  10.363   9.592   3.131 -0.1885  0.0074 -0.1277
24183W        W41030   3.870  13.003  14.785 -0.1954  0.0491  0.1991
24184W        W41031  15.052  14.890   3.365 -0.1984 -0.0689 -0.0694
24185W        W41032  11.407  10.500   6.278  0.0349  0.0823 -0.1497
24186W        W41033   8.906   8.345  11.800  0.0672 -0.3330  0.0293
24187W        W41034   4.854  16.095  14.938 -0.0511 -0.0593 -0.1468
24188W        W41035   2.928  16.542   1.830 -0.0445 -0.2515  0.1361
24189W        W41036   4.647   9.377   2.458 -0.1176  0.0420  0.2451
24190W        W41037   8.377   9.817   2.379 -0.2608 -0.2682 -0.3582
24191W        W41038  15.745  14.080   3.304  0.2487  0.3041 -0.2017
24192W        W41039   5.611   9.749  11.994 -0.0949 -0.1057  0.1568
24193W        W41040  12.930   9.891   0.462  0.0480  0.2254  0.0415
24194W        W41041  11.958  13.335   5.267  0.0227  0.2078  0.0511
24195W        W41042  13.051   5.433   2.368  0.2412 -0.3152 -0.3410
24196W        W41043   2.622   2.433   2.675 -0.0964  0.0702  0.0718
24197W        W41044   6.030   2.113  13.705  0.1668  0.0619 -0.2597
24198W        W41045   5.321   9.491  16.061  0.0271  0.0644  0.0479
24199W        W41046   8.371   8.386  12.792 -0.2631 -0.4456 -0.1760
24200W        W41047   1.403   3.812   3.000  0.3744  0.1351  0.0190
24201W        W41048   5.524  14.378  12.517  0.1009 -0.0386 -0.2580
24202W        W41049   1.760   5.827   1.874  0.0699 -0.2207 -0.2850
24203W        W41050   1.096  15.362  14.786 -0.0922  0.3205 -0.0102
24204W        W41051   2.605   9.157  11.927 -0.1180 -0.0945  0.2866
24205W        W41052   5.388   4.141   2.650  0.1142  0.1931 -0.1890
24206W        W41053  10.108   6.100   4.009  0.0006  0.2049  0.2039
24207W        W41054   9.611   6.154  11.727  0.1278 -0.3561 -0.2014
24208W        W41055  11.322   7.555   3.466 -0.1657  0.2601  0.0885
24209W        W41056   7.869   5.076   0.059  0.1111  0.1949  0.0618
24210W        W41057   4.042   6.611   1.625  0.1390 -0.4297 -0.2320
24211W        W41058   9.988  14.249  12.326 -0.1516 -0.0773  0.0125
24212W        W41059   0.708  17.212  13.458 -0.0635 -0.1650 -0.1728
24213W        W41060   8.355   6.564  15.358  0.0944 -0.2092 -0.0580
24214W        W41061  17.285   1.990  11.404 -0.2032  0.3009 -0.4873
24215W        W41062   4.987  17.802   6.269  0.2104 -0.1251 -0.0454
24216W        W41063  11.635  14.025   1.771  0.1279  0.0505 -0.1245
24217W        W41064  10.232   8.418  15.662  0.3064 -0.1469 -0.1842
24218W        W41065   2.841   9.399  13.289  0.1209 -0.1992 -0.0599
24219W        W41066  16.703  13.590  16.406  0.0112 -0.0310 -0.2908
24220W        W41067   9.214   3.083   3.895 -0.1804 -0.0585  0.2133
24221W        W41068   4.943  10.571  12.590  0.1592  0.2731  0.0998
24222W        W41069  14.678   5.155  15.909 -0.0331 -0.2826 -0.2495
24223W        W41070   8.650   0.385  11.570  0.2731 -0.1446 -0.2542
24224W        W41071   4.285   3.816  12.687 -0.0037  0.0628  0.1299
24225W        W41072  16.263  11.728   2.898 -0.0007  0.0141  0.0913
24226W        W41073   1.922  15.491  13.901 -0.3412 -0.2625 -0.2229
24227W        W41074   9.633   4.833  13.023  0.0955  0.1569 -0.2015
24228W        W41075  16.813  14.896   5.103 -0.0855 -0.0008  0.1366
24229W        W41076  17.702   2.561   4.864 -0.0395 -0.2039  0.0001
24230W        W41077   3.503   5.851   1.014 -0.1452  0.0941 -0.2196
24231W        W41078   0.149  13.405   5.568 -0.0323 -0.0953  0.0345
24232W        W41079  17.893   4.959  13.943 -0.2334  0.0562  0.0513
24233W        W41080  17.392   4.754  12.713 -0.2098  0.0827 -0.2750
24234W        W41081  11.516   8.791   2.016 -0.1835 -0.0204  0.0082
24235W        W41082   8.068  12.867  13.168 -0.3543 -0.0362 -0.0753
24236W        W41083  15.486   8.285   3.468  0.0805  0.1195 -0.1806
24237W        W41084  12.301   1.532   0.295  0.0984 -0.4522 -0.0783
24238W        W41085  11.812   9.174  14.685  0.0351 -0.0455 -0.2765
24239W        W41086  11.934   7.264   2.331 -0.3569 -0.1456 -0.4232
24240W        W41087   5.789  10.092  13.786 -0.1935 -0.0613 -0.1090
24241W        W41088  12.522  17.386  12.369  0.1469  0.0260  0.1789
24242W        W41089   1.587  11.238   2.236  0.0961 -0.0595  0.2286
24243W        W41090   2.147   2.591  16.118  0.1278  0.1573 -0.1598
24244W        W41091  12.751  14.311   4.975  0.0561 -0.1674  0.0273
24245W        W41092   7.784   4.701   3.421 -0.0319 -0.2027 -0.3429
24246W        W41093   0.514  12.575   6.293  0.0859  0.0185  0.0227
24247W        W41094   0.681   7.914  13.178  0.0103  0.0547 -0.1034
24248W        W41095   6.316  17.202   5.622 -0.0172 -0.0508 -0.0831
24249W        W41096  14.997  10.891   4.663 -0.1784  0.1762 -0.2874
24250W        W41097   7.000   9.388   1.128  0.0832 -0.0525 -0.1580
24251W        W41098   8.360   9.622  11.590 -0.0124  0.0134  0.0403
24252W        W41099   3.826  13.935   5.042  0.0520  0.5705 -0.2559
24253W        W41100  11.841  13.620  16.571 -0.0754  0.1407  0.0212
24254W        W41101  14.631  18.073  12.314 -0.2414  0.1798  0.1306
24255W        W41102  15.810   1.881  16.155  0.1594  0.2669 -0.1556
24256W        W41103  16.483   6.118   5.021 -0.1650 -0.0694  0.2256
24257W        W41104  15.034   6.549  10.771 -0.0723 -0.0107 -0.0042
24258W        W41105  11.620  12.235   2.200  0.1074 -0.1522  0.1817
24259W        W41106   8.679   4.448  14.632 -0.0537  0.2633 -0.1249
24260W        W41107   1.097  11.148   2.590 -0.1210 -0.3973  0.0933
24261W        W41108   2.510   6.580  13.726 -0.3327  0.1069 -0.1505
24262W        W41109  11.404   3.066   4.169  0.0661  0.1622 -0.1218
24263W        W41110  10.149   4.938  15.959 -0.1265 -0.0981  0.0450
24264W        W41111   4.478  13.442   4.914  0.2976  0.0667 -0.0860
24265W        W41112   9.414  17.332   1.038  0.1826  0.3656  0.2170
24266W        W41113   5.940   6.772  11.892 -0.1816  0.0121 -0.0129
24267W        W41114  14.795   9.851   3.131  0.0300 -0.3560  0.2110
24268W        W41115  14.723   9.512  11.565 -0.1469 -0.1170 -0.0128
24269W        W41116   8.438  12.045  14.869 -0.0095 -0.3744 -0.0513
24270W        W41117   8.315   8.538  11.602 -0.0382 -0.1937 -0.0569
24271W        W41118   8.239   6.530  13.832  0.1917 -0.2734  0.0944
24272W        W41119   4.867   6.171  15.646 -0.2428 -0.5627 -0.0443
24273W        W41120   8.372  12.086  11.646 -0.0756 -0.0812 -0.0952
24274W        W41121   5.368  18.028  12.472 -0.2629  0.0062  0.0500
24275W        W41122   1.709  17.675   0.756 -0.1911 -0.1358 -0.1599
24276W        W41123   7.447   8.829  11.572 -0.0982  0.2133  0.1618
24277W        W41124  14.988   9.437   3.391  0.0799  0.3098 -0.0504
24278W        W41125   5.496   0.696  15.567  0.1871  0.1329 -0.0425
24279W        W41126   8.970  14.882   1.151 -0.1297 -0.1081  0.4371
24280W        W41127  16.494  10.654  15.728  0.0754 -0.0881 -0.0477
24281W        W41128  16.978   8.341   2.789 -0.2198  0.1481 -0.0881
24282W        W41129  11.478  10.511   5.442  0.1688 -0.1726  0.4964
24283W        W41130   4.394  16.591   4.226  0.0047  0.1467 -0.1598
24284W        W41131  13.308  10.344  12.869  0.0121  0.0711  0.1135
24285W        W41132   7.452   9.929   4.209 -0.1777 -0.3617 -0.0577
24286W        W41133   3.375  11.997   3.923  0.1149 -0.0727 -0.4539
24287W        W41134   1.389  17.565  15.077 -0.1421  0.0017 -0.2196
24288W        W41135  14.344   5.611  12.085 -0.2158 -0.0219  0.1566
24289W        W41136  17.052  10.734   0.422  0.2050  0.3636  0.0352
24290W        W41137  16.187   0.214   0.469 -0.0071 -0.3758 -0.0750
24291W        W41138  14.110   1.528   1.128 -0.0985 -0.0018  0.1720
24292W        W41139  12.843   6.405  15.040 -0.5046  0.0010  0.3000
24293W        W41140   5.443   6.861  13.363 -0.3646 -0.4524  0.2069
24294W        W41141   8.927   5.731   3.427 -0.0560 -0.0818 -0.0128
24295W        W41142   2.667  14.977   5.443 -0.0048  0.0259  0.1800
24296W        W41143  16.353   9.062   3.505  0.0153  0.0157 -0.0365
24297W        W41144   6.917   8.054  15.191 -0.1548 -0.2011  0.0763
24298W        W41145   6.409   5.390  15.749  0.0313  0.2152 -0.2209
24299W        W41146   8.399   9.516   2.894  0.1380  0.1658 -0.1707
24300W        W41147  13.525   5.939  12.293  0.1892 -0.4963 -0.0397
24301W        W41148   8.495  15.854  14.431  0.1163 -0.0023 -0.0241
24302W        W41149  12.367  12.906   0.129  0.2053  0.1607  0.1585
24303W        W41150  17.553  15.510   5.347 -0.2171  0.0146  0.1923
24304W        W41151   5.071   0.027  12.105 -0.0739  0.0402 -0.1455
24305W        W41152  10.198   9.215  15.427 -0.0343 -0.0839 -0.1988
24306W        W41153  10.913  13.582   1.260  0.1931  0.0193  0.0428
24307W        W41154   3.661   7.840   6.005 -0.4063 -0.0947 -0.1178
24308W        W41155  12.065   2.425   4.899 -0.0023  0.1296 -0.0248
24309W        W41156   6.845  14.023   3.333  0.1334 -0.2240  0.0888
24310W        W41157  13.987  11.994   5.762  0.0685  0.0082  0.2675
24311W        W41158   8.454   4.041  13.440 -0.0250 -0.1975 -0.0472
24312W        W41159  14.237   9.686  12.641 -0.1073  0.1503 -0.3185
24313W        W41160  11.340   1.458   0.505 -0.1589 -0.0294  0.4654
24314W        W41161   6.011   1.422   0.204  0.2840 -0.0525 -0.2380
24315W        W41162   8.358   5.327  15.974 -0.1768 -0.2427 -0.0574
24316W        W41163   6.860  17.640   3.866  0.0861  0.0068 -0.2681
24317W        W41164   2.619  13.163   3.965  0.3028 -0.2571  0.1490
24318W        W41165   0.880   1.202  12.535 -0.0191 -0.0098  0.0776
24319W        W41166  11.225  13.800   4.296 -0.0977  0.0333  0.0215
24320W        W41167   2.207   3.990   2.702 -0.0718  0.0132  0.1095
24321W        W41168   1.344  11.813  14.666 -0.0460  0.1379  0.0367
24322W        W41169   0.399  11.631   0.873 -0.0768  0.2581 -0.0316
24323W        W41170  12.691  11.225  15.143 -0.2503  0.1350  0.0022
24324W        W41171   1.947   0.786   5.503  0.0714 -0.0302  0.0058
24325W        W41172   4.900   1.170  15.172  0.1468 -0.2207  0.0700
24326W        W41173  16.965   0.448  13.263 -0.2759  0.0310  0.1384
24327W        W41174   3.398  17.071  16.116 -0.1428  0.1236 -0.1313
24328W        W41175   3.282   0.812   0.393  0.0169  0.1641 -0.0556
24329W        W41176  13.519  15.259  14.323 -0.0288 -0.3462 -0.0364
24330W        W41177  16.449  16.003  14.795 -0.0572  0.1947 -0.1377
24331W        W41178  14.192  12.947   4.708  0.1215 -0.0815 -0.0692
24332W        W41179   3.577   5.229   5.660 -0.2294 -0.1144  0.0505
24333W        W41180   0.660  11.850   1.418 -0.1422 -0.0484  0.1612
24334W        W41181  14.034   7.796   1.063  0.1121  0.2534  0.4468
24335W        W41182   2.367   7.935  14.737  0.2574  0.0204  0.1900
24336W        W41183   7.174  15.942   1.318 -0.3327 -0.3377  0.1593
24337W        W41184   2.561  12.131   2.580 -0.0514  0.0203 -0.1847
24338W        W41185   1.834  12.308   5.178  0.1487  0.4808 -0.1864
24339W        W41186   0.282  16.972  13.626  0.2845 -0.0055 -0.1578
24340W        W41187   5.873  10.708  14.248  0.1557  0.0859 -0.3546
24341W        W41188   4.524   4.278   0.677  0.1563  0.1273  0.1365
24342W        W41189  10.076   8.648  11.483  0.1145  0.2673  0.2798
24343W        W41190   1.585   6.071   2.342  0.0532 -0.0120  0.1071
24344W        W41191   8.030   1.534  13.808  0.1514 -0.0990 -0.1125
24345W        W41192  16.243   4.893   2.571  0.0231  0.0211  0.1104
24346W        W41193   4.826  17.388  12.922  0.0588  0.1946 -0.1083
24347W        W41194  16.823   6.611   2.836  0.1350  0.1595  0.0497
24348W        W41195  10.129   5.775  13.553 -0.0411 -0.2758 -0.0268
24349W        W41196   2.306   3.235  12.578  0.1647 -0.1909 -0.1091
24350W        W41197   2.626   8.832   1.406 -0.0058  0.0182 -0.1947
24351W        W41198  10.702   6.553  14.563  0.0138 -0.2347  0.1319
24352W        W41199  16.062  12.206   0.835  0.2209  0.1783  0.0236
24353W        W41200  17.068  14.839   0.186  0.3106 -0.0459 -0.0517
24354W        W41201   6.085  10.911   3.684 -0.0025 -0.2308 -0.1850
24355W        W41202   7.512   5.627   5.355 -0.0672 -0.1287 -0.2070
24356W        W41203  16.559   3.512  14.638  0.0477 -0.1921  0.1133
24357W        W41204   9.638   2.966   3.700  0.1404 -0.1473 -0.1316
24358W        W41205  14.856   4.742  12.740  0.0767  0.2363 -0.4186
24359W        W41206  10.661   3.365  11.557  0.0233  0.0861 -0.1834
24360W        W41207   0.758  17.212  15.468 -0.0491  0.2659 -0.1968
24361W        W41208   1.932   6.161   0.084  0.4220  0.0455 -0.1882
24362W        W41209   5.017  13.075  11.706  0.3891 -0.1813 -0.1791
24363W        W41210   0.666   4.706  12.609 -0.2767 -0.4285 -0.3383
24364W        W41211   0.703   8.706   6.343  0.0828 -0.2122 -0.1856
24365W        W41212   8.579   1.817   5.042 -0.2400 -0.0294  0.0683
24366W        W41213   1.951  13.959  14.750 -0.0922  0.2611 -0.0149
24367W        W41214  12.280   2.903   4.050  0.2631 -0.0452  0.1080
24368W        W41215   0.420  16.456   5.778  0.1832  0.0447  0.2641
24369W        W41216   2.114   2.746   0.720  0.1980 -0.0723  0.1499
24370W        W41217   4.923   1.551   1.212  0.3998 -0.0268  0.1209
24371W        W41218   6.429   0.510   3.483  0.1973 -0.0824  0.1463
24372W        W41219   1.457   6.933   4.632  0.0718  0.2532 -0.0670
24373W        W41220   3.225   6.559   4.647 -0.0583  0.2184 -0.2341
24374W        W41221   8.743  16.373   0.830 -0.3416  0.0357  0.1657
24375W        W41222   8.793  14.730  16.566  0.2019 -0.1860 -0.0070
24376W        W41223   0.471  13.453  16.112 -0.0833  0.1740  0.2897
24377W        W41224  11.632   2.207  12.542 -0.0237  0.0073  0.1326
24378W        W41225   8.270  11.702  12.946 -0.0408  0.0995  0.0390
24379W        W41226   2.985  10.987   1.733  0.0313 -0.3229  0.0946
24380W        W41227  13.023   4.385  12.866 -0.0046  0.0973  0.0788
24381W        W41228  13.002   8.145   0.870 -0.3302 -0.0036  0.3145
24382W        W41229   5.757   9.230   3.346  0.0788  0.1245  0.1956
24383W        W41230  12.407   8.351  14.517  0.1476  0.2441  0.0772
24384W        W41231   3.798   1.004   0.130 -0.0512  0.0746 -0.1320
24385W        W41232  17.256   2.150  13.398 -0.2312 -0.0580  0.0175
24386W        W41233   3.480   7.211   3.521 -0.1050 -0.0188 -0.0778
24387W        W41234  13.759   3.477   1.210  0.0374  0.1973 -0.2336
24388W        W41235  14.296  15.039   2.102 -0.1612 -0.2190 -0.0462
24389W        W41236   0.219  13.095   4.252  0.0171 -0.3730 -0.0937
24390W        W41237   4.443  13.862  12.175 -0.1541  0.0358  0.0731
24391W        W41238  12.786  11.845   5.917 -0.0346 -0.1901 -0.1382
24392W        W41239   0.027   0.004   5.559 -0.3588  0.4592  0.1934
24393W        W41240  10.914  15.164   0.279  0.1725  0.0956 -0.0333
24394W        W41241  13.205   8.559  15.871  0.0363  0.0138  0.0578
24395W        W41242   9.980  17.883  15.883  0.1252 -0.0251  0.4222
24396W        W41243   4.740   5.262  15.242 -0.0552 -0.0311  0.0965
24397W        W41244   8.276   1.624   3.175  0.1202 -0.3981 -0.3701
24398W        W41245  10.261   0.377  13.888 -0.3000 -0.0436  0.1490
24399W        W41246  11.320   4.784  14.680  0.0989  0.0226 -0.1774
24400W        W41247  12.439  14.023   3.560 -0.1233  0.0226 -0.1278
24401W        W41248   3.619  11.076   6.261 -0.0345 -0.1681 -0.2514
24402W        W41249  14.801  13.495  14.780 -0.3858  0.0559  0.1839
24403W        W41250  15.311  11.152   5.657  0.2014  0.0641 -0.1493
24404W        W41251   0.223   1.123  16.057  0.0813 -0.1949 -0.2414
24405W        W41252  12.946  11.222   4.708 -0.0845  0.1666  0.1021
24406W        W41253   3.636  16.093  15.114  0.1666  0.1379  0.0538
24407W        W41254  14.460   3.657  14.483 -0.0441  0.0515  0.2067
24408W        W41255   4.134   4.721   4.217  0.0722 -0.2185 -0.1075
24409W        W41256   5.252   5.700  13.361 -0.2694  0.0272  0.2410
24410W        W41257  10.763   2.462   5.315 -0.0073 -0.1690  0.0037
24411W        W41258  14.943  17.178   5.637  0.1384 -0.2288  0.1429
24412W        W41259  13.085   1.797   3.558 -0.2953  0.0268  0.2520
24413W        W41260  12.792  10.593   3.341 -0.1226 -0.0066  0.0573
24414W        W41261   0.721  15.082  11.532  0.4603  0.1397 -0.0047
24415W        W41262  14.530  14.844  13.134 -0.0441  0.4229 -0.0218
24416W        W41263   3.760  17.860   2.809  0.1331  0.0781  0.2263
24417W        W41264  10.044   5.196   1.138 -0.0019 -0.0086  0.0194
24418W        W41265   2.494  12.007   1.793  0.1641 -0.1764  0.0068
24419W        W41266  15.568   0.930   2.735 -0.1013 -0.0677 -0.1033
24420W        W41267  17.355   4.483   2.545 -0.1336 -0.3365  0.1710
24421W        W41268   6.073   9.750   4.745 -0.1049 -0.0492 -0.0718
24422W        W41269  17.468  14.425  11.493  0.1690  0.0009  0.0770
24423W        W41270   6.169  14.814  11.853 -0.3535 -0.1884  0.0108
24424W        W41271   4.989   6.302  12.041 -0.0707  0.0040 -0.1900
24425W        W41272  17.688   0.800  15.011  0.2423 -0.0500 -0.1794
24426W        W41273   7.852  14.488  14.551 -0.1042 -0.1616 -0.0226
24427W        W41274  10.697  15.429  11.731 -0.1611  0.0458  0.0089
24428W        W41275   7.315  14.318   1.870  0.1604 -0.1174  0.0014
24429W        W41276   4.365   9.888  15.711  0.2196 -0.2690 -0.0187
24430W        W41277   4.792  16.009  16.455  0.0468 -0.1113  0.5880
24431W        W41278  11.849  10.227  15.313 -0.2088  0.0496  0.0037
24432W        W41279  16.316  12.234   1.309  0.0595  0.1043 -0.0627
24433W        W41280   5.292  11.508  13.611 -0.3126  0.0619 -0.0124
24434W        W41281  11.159   7.675  15.731  0.1022 -0.0258  0.1917
24435W        W41282   5.528   5.124   0.878  0.2070 -0.0021  0.1053
24436W        W41283  12.453   4.148  12.081  0.1146  0.0518 -0.1566
24437W        W41284   4.064   7.383  14.288  0.0582  0.2984  0.1962
24438W        W41285  12.595  11.412   4.438 -0.0588 -0.1040  0.3441
24439W        W41286  11.811  11.283   2.046  0.2732 -0.1556 -0.3729
24440W        W41287   4.028   1.429   2.724 -0.1466  0.2798 -0.5636
24441W        W41288   3.105   2.585   5.156  0.2401  0.1633  0.0111
24442W        W41289   5.793  14.920   3.918  0.2252 -0.0980  0.3309
24443W        W41290  11.216   6.064   2.792 -0.1292 -0.4989  0.0530
24444W        W41291  10.660  13.595  14.202  0.1335  0.2227 -0.1630
24445W        W41292  16.667   8.239  16.025  0.2464 -0.1408  0.2058
24446W        W41293   2.823   6.912   4.961  0.1924 -0.0401  0.1364
24447W        W41294   8.533  17.151  14.996 -0.0501 -0.1558  0.0190
24448W        W41295   0.969   2.668  15.433 -0.2353  0.0984  0.1116
24449W        W41296   3.123  17.969  16.444  0.2323  0.1138  0.0116
24450W        W41297   3.788   7.868  15.925 -0.2761  0.0302 -0.1197
24451W        W41298   1.410   7.415   4.973 -0.0854 -0.0457  0.1066
24452W        W41299   3.370   1.688   0.079 -0.1245 -0.1613 -0.3557
24453W        W41300   9.490  11.105   3.144  0.0430  0.1638 -0.2529
24454W        W41301   7.924   4.838  14.227  0.0243 -0.0357  0.1186
24455W        W41302  12.453   2.497  14.771 -0.0257 -0.0924  0.1120
24456W        W41303   3.329   5.890   3.075  0.2126  0.5176  0.1031
24457W        W41304   0.134  15.156   2.441 -0.0317 -0.0772 -0.0686
24458W        W41305   2.324   7.757   1.779  0.0532 -0.0447  0.2325
24459W        W41306  14.739   1.999   3.968 -0.1584  0.3426  0.2882
24460W        W41307  13.214  14.898  13.299 -0.2294 -0.2398 -0.0231
24461W        W41308   9.726   5.454  14.520  0.2276 -0.1652 -0.1581
24462W        W41309  15.113   9.530  12.875 -0.1320 -0.4282 -0.1652
24463W        W41310   5.856  10.920  15.545  0.2669  0.1360 -0.1279
24464W        W41311  12.991   3.320   5.251  0.0775 -0.2319  0.0225
24465W        W41312   8.822   0.985  12.088 -0.0611  0.0024  0.4366
24466W        W41313  16.802  10.532   3.474  0.0353  0.0100  0.1973
24467W        W41314   0.634   0.321  16.284  0.0898  0.1797 -0.2061
24468W        W41315  15.005   7.656   1.211 -0.2203 -0.1486 -0.0617
24469W        W41316  16.253  12.928  15.482  0.0379 -0.1858  0.1312
24470W        W41317  14.111  10.040  15.732  0.3133  0.0969  0.0955
24471W        W41318   9.045   0.739  12.882 -0.0248 -0.2738 -0.1472
24472W        W41319  13.337   6.814   3.931 -0.4485  0.0533 -0.2794
24473W        W41320  11.763  17.415   1.206  0.2699 -0.0851  0.0170
24474W        W41321   5.875   6.884   3.232 -0.1417 -0.0388  0.1912
24475W        W41322   4.829   7.287   5.194 -0.1717  0.0479  0.1639
24476W        W41323   7.696   0.015   6.051  0.1576 -0.3108  0.0534
24477W        W41324   3.710   9.229  13.579 -0.4297 -0.1468 -0.0403
24478W        W41325   6.904   8.665  15.233  0.2855  0.1050 -0.0836
24479W        W41326  12.825   6.911   1.077 -0.2390  0.1294  0.0244
24480W        W41327  16.376  13.013   1.538  0.2018  0.1041  0.0107
24481W        W41328  12.260   6.146  12.731 -0.0930 -0.4644  0.1905
24482W        W41329   0.315  12.387   5.271  0.2052  0.0937  0.4985
24483W        W41330   8.038   7.867   1.279  0.2501  0.0783 -0.0732
24484W        W41331   6.090  17.496   5.161 -0.0223  0.1404 -0.0474
24485W        W41332  13.441   3.580  14.507 -0.0068 -0.0749 -0.1295
24486W        W41333   4.950   9.595  12.567 -0.0750 -0.2624 -0.1342
24487W        W41334  10.063   7.599   1.117 -0.3383 -0.1239  0.1133
24488W        W41335  15.895   5.266   3.208  0.1545  0.0304 -0.0478
24489W        W41336   8.287  15.619   3.944 -0.3369  0.0096 -0.2377
24490W        W41337  10.796   9.758  12.147  0.0353 -0.0139  0.3470
24491W        W41338  13.097  15.782   3.615  0.1051  0.1226  0.1523
24492W        W41339   7.011   8.310  14.670 -0.0746  0.2262  0.0451
24493W        W41340   0.758   2.916  11.287 -0.0892  0.1256  0.2315
24494W        W41341  10.575  12.965  14.175 -0.1075  0.3545 -0.1793
24495W        W41342  11.158   2.341  14.289  0.1887  0.1702  0.0993
24496W        W41343  14.930  15.383  13.788 -0.1172 -0.2188  0.0254
24497W        W41344  17.521  15.861  15.604  0.1244  0.1539  0.7311
24498W        W41345   0.112  16.253   0.037 -0.1929  0.3107  0.0869
24499W        W41346   9.397   5.326   2.678  0.2940 -0.3751 -0.3125
24500W        W41347  13.068   1.142  11.154  0.3600 -0.0938 -0.2680
24501W        W41348   6.216  12.323  11.968 -0.3262 -0.0440  0.1465
24502W        W41349   0.366  15.341   1.687  0.1811 -0.1012 -0.0897
24503W        W41350   8.306  16.617   4.896 -0.2296 -0.2498  0.3386
24504W        W41351   0.137  11.082   0.074 -0.0518 -0.3372 -0.1983
24505W        W41352   9.377   3.117  12.924 -0.0303 -0.2665 -0.0166
24506W        W41353   3.134  10.383   3.654  0.3026  0.0690 -0.0967
24507W        W41354   4.998  11.290   0.434  0.1138  0.0362  0.0611
24508W        W41355  14.700  14.452   0.006 -0.1218 -0.1841 -0.4021
24509W        W41356   6.882  13.414  12.380 -0.0292 -0.0306  0.0866
24510W        W41357  16.942  15.594  11.986 -0.2151  0.0941 -0.2755
24511W        W41358  10.395  13.797   4.967 -0.2756  0.1901  0.0296
24512W        W41359  16.255  17.833   0.398 -0.1016  0.1148  0.1014
24513W        W41360  10.308   3.615  11.318 -0.1758 -0.2168 -0.1556
24514W        W41361  17.497   8.100  12.882  0.2482 -0.0655  0.2356
24515W        W41362   4.438  15.945  13.037 -0.1884  0.2889  0.1966
24516W        W41363  10.621  17.160   3.296  0.1037 -0.2996  0.1121
24517W        W41364   2.884  16.371   4.424 -0.1263 -0.0678 -0.0838
24518W        W41365   8.367  13.597  16.599  0.2993 -0.1743 -0.0170
24519W        W41366  15.338   0.469  13.257  0.1862 -0.0289 -0.3291
24520W        W41367   4.527   2.353  16.576 -0.2276 -0.2564 -0.1708
24521W        W41368   8.268   5.391  12.174  0.0940  0.1188  0.1776
24522W        W41369   4.489   0.680  12.524 -0.3996 -0.0564 -0.2964
24523W        W41370  17.390   3.910  11.880 -0.0169  0.3007 -0.2281
24524W        W41371   2.657   7.200  14.252  0.2541  0.1293 -0.1669
24525W        W41372   5.707   5.899   6.241 -0.1541  0.0661 -0.2225
24526W        W41373   2.155  15.721   4.950 -0.3175 -0.1636  0.2861
24527W        W41374   2.481   5.562  11.299  0.1274  0.0985 -0.1323
24528W        W41375  14.458  12.504   1.296  0.1924  0.1394  0.1016
24529W        W41376   6.678  16.510  15.711  0.1289 -0.0266 -0.0039
24530W        W41377  10.074   3.197   5.148 -0.0460 -0.2869 -0.1685
24531W        W41378  13.987   3.155   4.203 -0.1009 -0.0891  0.1930
24532W        W41379   3.078   7.668   4.718 -0.1492  0.3378 -0.1528
24533W        W41380   3.676   5.048   2.738  0.4859  0.0981  0.2901
24534W        W41381  15.267   0.286   6.085 -0.2249 -0.2791 -0.0295
24535W        W41382  14.370   4.224   3.690  0.1992  0.3657  0.1569
24536W        W41383   2.430   4.524  13.112 -0.0006 -0.1678 -0.4634
24537W        W41384   8.607  14.852  12.557 -0.1962  0.0497  0.2828
24538W        W41385  12.063   3.366   0.660 -0.2314 -0.2601  0.1113
24539W        W41386   1.612   4.562   0.736  0.2227  0.1240  0.0056
24540W        W41387   3.024   4.524  16.005  0.2200  0.4947 -0.0335
24541W        W41388   3.568   2.246   0.781  0.0579  0.1420  0.1177
24542W        W41389   7.457  12.263  13.629  0.2202 -0.2083  0.0261
24543W        W41390  12.875   1.731  16.231 -0.0299  0.3412  0.0447
24544W        W41391   7.222   8.800   4.729  0.2102  0.2634  0.1214
24545W        W41392   4.517  12.287  11.940 -0.0162  0.0726  0.1129
24546W        W41393   5.343   8.948   5.839  0.2099 -0.1283 -0.1372
24547W        W41394  16.105   4.324   3.075 -0.1468 -0.0742 -0.0165
24548W        W41395  13.724  17.333  14.907 -0.0869 -0.2493  0.4025
24549W        W41396  15.570   1.005  15.110  0.1152  0.0102  0.2038
24550W        W41397  13.302  13.276   4.311  0.1670  0.0113  0.0889
24551W        W41398   5.890  13.626   2.621 -0.3138 -0.0438 -0.1379
24552W        W41399   3.178   0.537  15.423  0.0324 -0.1225 -0.0393
24553W        W41400   2.467   4.678   1.091 -0.2333 -0.1683 -0.2046
24554W        W41401  14.901   8.937   4.498 -0.0666  0.3029 -0.2437
24555W        W41402  12.745  14.111   4.094 -0.1032 -0.0363 -0.1637
24556W        W41403  10.456  13.513  12.709 -0.0545 -0.4143 -0.1303
24557W        W41404   2.589  10.637   5.376  0.0808  0.0815 -0.0665
24558W        W41405  10.692   4.673   1.542 -0.3911 -0.0204  0.1894
24559W        W41406   3.034   0.666   5.621 -0.3738  0.0846 -0.1164
24560W        W41407  15.826   7.032  11.694  0.1768  0.2180  0.1685
24561W        W41408   7.078   6.072  14.364  0.1146  0.2347 -0.3089
24562W        W41409  12.644   7.827   0.023  0.1925  0.4240 -0.1317
24563W        W41410   1.780   8.549   2.791  0.2642  0.0225  0.5426
24564W        W41411  14.223  13.915  11.377 -0.1797  0.0455 -0.1711
24565W        W41412   5.623  12.433   4.354  0.0692 -0.0776 -0.0636
24566W        W41413   8.607   0.851  15.597 -0.0349 -0.2405  0.0613
24567W        W41414  10.217   2.229  15.645 -0.2190 -0.0811  0.0981
24568W        W41415   1.042  11.972   0.069 -0.1144 -0.0407  0.1891
24569W        W41416   1.953   7.892   3.842 -0.0410 -0.6755 -0.5149
24570W        W41417   2.182  11.738  16.339  0.0235  0.0208  0.0234
24571W        W41418  11.157   4.823  14.165 -0.1642 -0.2673 -0.1742
24572W        W41419   2.949   9.188   1.495 -0.1360 -0.1875  0.2296
24573W        W41420  16.029  12.613  15.778  0.1459  0.0893 -0.1472
24574W        W41421  13.608   3.984  11.424 -0.1073  0.0424 -0.0566
24575W        W41422   1.577   2.169   5.530  0.2457 -0.0969  0.0437
24576W        W41423   6.067  16.949   3.900 -0.0153  0.0077  0.0728
24577W        W41424  13.038  12.752   1.211 -0.1756 -0.2607 -0.1066
24578W        W41425   5.232  11.136   4.735 -0.3393  0.2092 -0.0465
24579W        W41426  15.562  15.359   5.434  0.3194  0.0353 -0.1650
24580W        W41427  13.809   9.350   0.086 -0.1353 -0.1423 -0.1057
24581W        W41428  16.536   4.782   1.672 -0.0995  0.2539  0.1736
24582W        W41429   8.483   4.238   4.268  0.2747  0.3858  0.0027
24583W        W41430  16.786   2.201   4.827 -0.0957  0.0157 -0.1282
24584W        W41431   9.367  13.944  13.518 -0.1125 -0.0225 -0.2275
24585W        W41432   4.785  10.681   2.018 -0.1661 -0.1437  0.1745
24586W        W41433   8.899   6.304   3.224  0.0605 -0.1293  0.0726
24587W        W41434   1.829  10.796   2.527 -0.2499 -0.0847 -0.2119
24588W        W41435   6.348   5.917   3.933  0.1031  0.4252 -0.1453
24589W        W41436   3.535  13.205   4.587  0.0518  0.2444  0.3711
24590W        W41437  15.852  17.499  15.704  0.1910 -0.2863 -0.3179
24591W        W41438  14.145   0.345  13.904  0.0357 -0.1739 -0.1784
24592W        W41439  16.522  14.447   5.315  0.1059  0.0014  0.3079
24593W        W41440  12.604  11.030   0.493 -0.1432  0.1118 -0.2546
24594W        W41441   0.883  13.799   5.875 -0.0987  0.0045 -0.0781
24595W        W41442  12.744   0.284   3.444 -0.0243  0.2850 -0.0306
24596W        W41443  10.027  11.390  13.655  0.1001  0.2396 -0.2407
24597W        W41444  17.298   5.781  15.525 -0.0690 -0.0360 -0.3758
24598W        W41445  13.215  17.739  14.079 -0.3481  0.0627 -0.1218
24599W        W41446   3.315   4.198  14.804 -0.0036  0.0409 -0.1890
24600W        W41447  15.940   5.603  14.440  0.0928  0.0536 -0.0038
24601W        W41448   8.763   4.888  14.316 -0.1358 -0.4280 -0.1416
24602W        W41449   4.570   3.787   4.821  0.1094 -0.1472 -0.1280
24603W        W41450   0.989  12.149  14.436  0.1309  0.1186 -0.2347
24604W        W41451   8.176   2.987  14.382  0.1896 -0.1735  0.0375
24605W        W41452  16.805  12.610  14.091  0.2127 -0.4143  0.4343
24606W        W41453  18.118  16.824  16.401  0.0931  0.0831  0.2578
24607W        W41454   7.471   9.901  15.116 -0.0186  0.2046  0.0169
24608W        W41455  10.447   1.846  16.218 -0.1324 -0.0648  0.2312
24609W        W41456  16.698   8.547   4.998  0.1415 -0.2010 -0.0573
24610W        W41457   6.300  13.386   3.739 -0.1946 -0.2483  0.0570
24611W        W41458  14.856   5.028  13.503 -0.0093 -0.0744 -0.1139
24612W        W41459   0.396   4.714  15.918  0.0923 -0.1860 -0.1955
24613W        W41460   2.327  12.168  11.983 -0.3192 -0.0238  0.1423
24614W        W41461  16.851   9.734   3.753 -0.0195  0.0702  0.2612
24615W        W41462  14.590  13.443  13.408 -0.0127 -0.2192 -0.1554
24616W        W41463  17.905   8.385   1.487 -0.1883 -0.3096 -0.0526
24617W        W41464   4.903   5.134  15.714  0.1000  0.0448 -0.0681
24618W        W41465   9.191   2.974   5.309 -0.0333  0.2622  0.0346
24619W        W41466   4.132   4.666  14.409  0.2360  0.0017  0.2324
24620W        W41467   1.286   3.910   5.443 -0.0384 -0.1802 -0.3038
24621W        W41468   6.956   7.698   4.241 -0.1259 -0.2161  0.0913
24622W        W41469  12.070   5.642   4.538 -0.0241 -0.3761 -0.0583
24623W        W41470   6.024  13.934  14.358 -0.0187  0.1872 -0.1735
24624W        W41471   1.597   0.201   4.417  0.1615 -0.2848  0.1124
24625W        W41472  14.069  17.594   2.597  0.3799 -0.3047 -0.0270
24626W        W41473  11.176   1.333  13.067  0.0336  0.1225  0.0598
24627W        W41474   2.719   2.922  14.164  0.1095  0.0172 -0.0952
24628W        W41475  14.366   4.902   0.818 -0.0088 -0.0531 -0.3530
24629W        W41476  17.495  17.476  11.975  0.3274  0.1460  0.1730
24630W        W41477   9.590   1.102   3.196 -0.0885  0.0487 -0.2197
24631W        W41478  10.989  16.376   2.662 -0.0054  0.2818 -0.3625
24632W        W41479  11.947  12.155   3.630  0.2111  0.0716 -0.2101
24633W        W41480   3.083   9.483  12.068 -0.0773  0.0932  0.1200
24634W        W41481  16.951   0.691   4.083  0.1632  0.0914 -0.0791
24635W        W41482  15.297   3.359  15.035  0.1966  0.0670 -0.0427
24636W        W41483   1.585  11.590  12.518  0.0254  0.0875  0.0259
24637W        W41484   1.998   2.303  12.670 -0.1769 -0.1281  0.1120
24638W        W41485  15.019  14.205   1.661  0.1687 -0.0198  0.0658
24639W        W41486  16.483   1.435  11.438 -0.2083 -0.1318  0.0828
24640W        W41487   4.832  17.808   1.675 -0.1723  0.2872 -0.1705
24641W        W41488   3.763   1.335   3.241  0.0982 -0.5181  0.0368
24642W        W41489   0.629   2.383   6.217  0.1389  0.3419  0.0345
24643W        W41490  17.979  14.555  11.578 -0.0953 -0.1064 -0.3609
24644W        W41491  12.604   6.449   3.576 -0.0353 -0.0508 -0.2361
24645W        W41492  15.026   8.167   4.732 -0.3155 -0.1533 -0.0490
24646W        W41493  17.002  12.308  15.825  0.1076 -0.0283 -0.2149
24647W        W41494  14.240  16.778  12.228  0.1086 -0.0350  0.3787
24648W        W41495   3.149   9.137   2.845  0.1991 -0.1184  0.0248
24649W        W41496   6.711   1.125   4.505 -0.3847 -0.0809 -0.0184
24650W        W41497   6.383  12.583  15.830 -0.0973  0.1330  0.2474
24651W        W41498   4.705  13.777   4.560 -0.1938 -0.3587  0.6305
24652W        W41499  15.514   4.173   5.084 -0.1074 -0.0791 -0.2447
24653W        W41500  12.830  16.029  14.252 -0.0206  0.2834  0.2523
24654W        W41501   8.418  16.270  14.685 -0.4061 -0.0368 -0.0171
24655W        W41502   4.949   4.542  12.671 -0.3391  0.0988 -0.1273
24656W        W41503   4.433  14.870   0.190 -0.2673  0.0309  0.1799
24657W        W41504   3.870   2.700  15.226  0.2430 -0.0638 -0.1960
24658W        W41505  14.299  13.226  11.668  0.0401  0.1890  0.1843
24659W        W41506   6.109   6.771  14.932 -0.1294 -0.0942  0.2632
24660W        W41507   9.382  10.985  12.383 -0.1382 -0.0048  0.2262
24661W        W41508   8.464   8.834  14.484 -0.2025 -0.5502  0.1580
24662W        W41509   9.106   3.631  15.518 -0.1143  0.0703 -0.1073
24663W        W41510   4.086  17.186  15.800 -0.3837 -0.0638  0.2052
24664W        W41511  12.767   2.913   5.528  0.1443 -0.4471  0.1363
24665W        W41512  11.182  11.836  15.925  0.2600 -0.0155  0.0349
24666W        W41513   5.901  12.595  16.037  0.0701  0.0620 -0.7744
24667W        W41514  16.221  15.591   3.255  0.1755  0.0868 -0.1341
24668W        W41515   9.988  13.378  12.049 -0.1237 -0.3338 -0.1549
24669W        W41516  15.910  12.741   4.370  0.2858 -0.1745 -0.2601
24670W        W41517   8.226  11.249  11.711  0.0785  0.1667 -0.0084
24671W        W41518  17.325   6.586  15.227 -0.3262 -0.2122 -0.3042
24672W        W41519  12.409  16.086  16.027  0.1036  0.1327 -0.2457
24673W        W41520  15.224   8.723   0.144  0.1048  0.3538 -0.3414
24674W        W41521  10.305   3.876  13.727  0.1152 -0.0412 -0.1708
24675W        W41522  15.615   7.704  14.712 -0.0908  0.3400 -0.1135
24676W        W41523  11.778   8.224  15.403  0.2871  0.0394  0.0843
24677W        W41524   1.093  17.264   6.341  0.1139  0.0543 -0.0777
24678W        W41525   6.474   9.522   0.300  0.3298 -0.1750  0.0158
24679W        W41526  15.254  13.091  11.907  0.1010 -0.1509 -0.0217
24680W        W41527   6.058  10.732   0.554 -0.0348 -0.0627  0.0512
24681W        W41528  12.434  17.925  16.275 -0.0592  0.2294  0.0748
24682W        W41529   5.518  14.745  15.634 -0.1190 -0.2242 -0.1479
24683W        W41530  13.303   9.050  13.660  0.1722 -0.0800 -0.3532
24684W        W41531  11.837   5.519   0.448 -0.2402  0.3933  0.2902
24685W        W41532   8.681  14.707   4.700 -0.0385 -0.2602  0.0382
24686W        W41533  12.112   3.327  13.591  0.1164 -0.1051  0.1445
24687W        W41534  17.226  13.697   3.562  0.1609 -0.1885 -0.2232
24688W        W41535   2.209  12.252  15.133 -0.1895  0.1148 -0.2170
24689W        W41536  13.866   9.277   5.428  0.2456 -0.1286 -0.3489
24690W        W41537   8.164   5.866  15.909 -0.1561  0.4737  0.0526
24691W        W41538  16.916   5.481   3.988 -0.0965 -0.1872 -0.0573
24692W        W41539   8.841   6.258  15.540  0.0168  0.2522  0.2754
24693W        W41540  11.309   1.171   2.381  0.2032  0.2910  0.0520
24694W        W41541   4.014  14.948   0.397 -0.3689  0.1363 -0.0927
24695W        W41542  15.583  14.016  12.692 -0.0027  0.0755 -0.2257
24696W        W41543  11.064   9.628  15.216 -0.0089 -0.0396  0.1520
24697W        W41544  15.288   5.018  12.696 -0.0279  0.1716 -0.0085
24698W        W41545   5.388  10.726  12.283  0.0209  0.3210  0.0632
24699W        W41546   4.387  16.042  12.074 -0.1194 -0.3387 -0.0434
24700W        W41547  17.613  15.255   5.768 -0.0913  0.0092 -0.0543
24701W        W41548  17.327   5.680   1.846 -0.2421 -0.0460 -0.1073
24702W        W41549   2.950   0.658   4.688 -0.1274  0.0382 -0.0882
24703W        W41550   0.452  15.914  15.734 -0.0200 -0.3202  0.0358
24704W        W41551   8.025  12.092  13.160 -0.1405 -0.1218  0.1211
24705W        W41552  11.743   3.130  12.380  0.0547 -0.3531  0.1868
24706W        W41553  10.819  18.098   2.162  0.0672 -0.1932 -0.2849
24707W        W41554   7.997   0.065  12.696 -0.4619 -0.0265 -0.0498
24708W        W41555   5.885  12.336  14.485 -0.2905 -0.4372  0.1758
24709W        W41556   9.913  13.473  12.829 -0.0604  0.1996 -0.3589
24710W        W41557  10.080   2.196   0.757  0.0299  0.1662 -0.3682
24711W        W41558   1.025   3.653  12.978 -0.2712  0.0658 -0.2407
24712W        W41559  15.387  10.817   1.658  0.1821  0.2663 -0.0141
24713W        W41560   2.720   9.912   4.307  0.0247 -0.1640  0.0163
24714W        W41561   8.146   4.862   2.225 -0.2418 -0.0890 -0.2481
24715W        W41562   2.886  14.390   1.556 -0.1077  0.1639 -0.0303
24716W        W41563   4.058   6.757   3.099 -0.1659 -0.1206  0.1630
24717W        W41564  17.648  13.192   4.892 -0.1183 -0.0620  0.0405
24718W        W41565   8.924   5.289   5.166 -0.0098 -0.1408 -0.2512
24719W        W41566   9.457  14.640   3.218 -0.1068 -0.1888 -0.2824
24720W        W41567   1.717  12.040  12.755  0.0691  0.0074 -0.1185
24721W        W41568   7.001  16.952   3.956 -0.4228  0.0976 -0.2279
24722W        W41569  15.391  17.442  15.922  0.1107 -0.1061  0.0508
24723W        W41570  14.191   6.118  16.120 -0.0263 -0.1149 -0.0800
24724W        W41571  15.205  11.622  15.764  0.0485  0.0389 -0.0669
24725W        W41572   8.752   6.035  13.180  0.0501  0.4179 -0.2464
24726W        W41573   3.440   4.178   4.158  0.0353  0.0601 -0.3435
24727W        W41574  10.004  15.497  16.166 -0.3789  0.2267  0.3573
24728W        W41575   2.860  15.054   0.286  0.0533 -0.0835  0.1812
24729W        W41576   0.870   5.643  13.835 -0.1052 -0.0599  0.1067
24730W        W41577  11.288   0.937  12.608  0.1338  0.0390 -0.0455
24731W        W41578   1.946  13.682   0.685  0.0291  0.0861  0.0538
24732W        W41579  12.522  11.501   4.944  0.1396  0.0621  0.0029
24733W        W41580  16.091  17.866   5.789  0.0657  0.0294 -0.1593
24734W        W41581   8.253  11.915  15.335  0.4055 -0.1210 -0.0198
24735W        W41582   8.865   6.084   2.775 -0.0368 -0.1043 -0.1076
24736W        W41583  11.132   6.847  13.947  0.0192  0.0844  0.2379
24737W        W41584  14.184   4.102   5.342 -0.1240 -0.0198  0.2103
24738W        W41585   3.799   9.914  11.837  0.0723 -0.1553  0.0171
24739W        W41586  16.532  15.993  13.501 -0.0524 -0.0506 -0.2470
24740W        W41587   7.303   6.878   0.435  0.0588  0.1219  0.2407
24741W        W41588   2.407  12.789   1.341 -0.0567  0.1748  0.0713
24742W        W41589  17.584  17.523  14.723 -0.2912 -0.1124  0.0196
24743W        W41590  11.900   8.747   0.508 -0.0397 -0.3162  0.0958
24744W        W41591  13.289   4.991  13.405 -0.2817  0.0981  0.2453
24745W        W41592   4.687  13.793  12.639  0.2865 -0.2876  0.3401
24746W        W41593   5.242  14.687  15.083 -0.1050  0.1186 -0.3457
24747W        W41594  14.559   2.002   4.977  0.0685  0.0820  0.0567
24748W        W41595   7.451   9.256   2.483 -0.0327  0.1752 -0.0529
24749W        W41596   6.440   3.757  12.039 -0.3173  0.0293 -0.1200
24750W        W41597   9.749  12.783  14.635  0.0997 -0.2756  0.3162
24751W        W41598   0.804   3.538  13.407  0.0393  0.2351 -0.0519
24752W        W41599   4.135  16.320   5.985 -0.1364 -0.0867  0.0392
24753W        W41600  15.569  15.934   1.761 -0.2439  0.2022 -0.1476
24754W        W41601   9.439  10.832   1.524  0.3891  0.1718  0.0474
24755W        W41602  10.736   8.108  13.891 -0.2504  0.0528 -0.0844
24756W        W41603  12.065  14.511  16.280 -0.0710 -0.1704  0.0386
24757W        W41604   0.919  15.504   3.301 -0.1469 -0.0032  0.2466
24758W        W41605  11.438   6.226  11.701  0.0464  0.1782  0.0744
24759W        W41606   4.600  16.444  15.383  0.0512  0.4106  0.0370
24760W        W41607  17.668   0.803   0.024  0.3078 -0.4607 -0.0174
24761W        W41608  16.911  12.884   1.753  0.2739 -0.1107 -0.1779
24762W        W41609   0.487   1.594   3.702 -0.1178 -0.3532 -0.0179
24763W        W41610   9.266  11.717   4.086 -0.0446  0.0085 -0.4100
24764W        W41611   0.877  14.225   1.486 -0.0993 -0.0333  0.4816
24765W        W41612   3.432   8.495  16.507 -0.1467 -0.1309 -0.1243
24766W        W41613   6.322  15.689  12.533  0.0699 -0.0167  0.1049
24767W        W41614   3.481  13.593   2.469  0.0208  0.3986 -0.1920
24768W        W41615  15.542  12.139   0.894  0.4647  0.0914  0.1534
24769W        W41616   6.967   7.816   4.766 -0.2256  0.2866 -0.0897
24770W        W41617  13.614   6.768  15.238 -0.1201 -0.2366 -0.1317
24771W        W41618   2.067  14.272   5.226  0.2433  0.2490 -0.0093
24772W        W41619   9.691   3.974  12.384 -0.3308 -0.1641  0.0597
24773W        W41620   5.191   3.829   0.315  0.0781 -0.0741 -0.0215
24774W        W41621   1.401  15.061   0.621 -0.1259 -0.0238  0.2116
24775W        W41622   6.951  17.984   2.106 -0.3258  0.2029 -0.3732
24776W        W41623   3.701   8.792   5.605 -0.1419  0.3679  0.1220
24777W        W41624   3.843  10.948  13.165 -0.0787 -0.0109 -0.0964
24778W        W41625   7.891   1.355  12.973 -0.1667  0.0226 -0.0063
24779W        W41626  10.652   8.112   2.251  0.0794 -0.1272 -0.3875
24780W        W41627  15.856   1.797   5.564  0.0125 -0.0339  0.2096
24781W        W41628  16.758   2.366  13.253 -0.0223  0.2102  0.0804
24782W        W41629   1.726   6.738  11.549  0.2069 -0.1570  0.1511
24783W        W41630  10.802   9.763  16.210 -0.0910  0.1595 -0.1127
24784W        W41631  12.157   5.467  11.056 -0.2063 -0.2196  0.1114
24785W        W41632   6.995  11.171  12.610 -0.0125 -0.2324  0.0593
24786W        W41633  14.055   2.379   1.127  0.0016 -0.2083 -0.0285
24787W        W41634  12.175  14.404  13.292 -0.0047  0.1849  0.2569
24788W        W41635  17.001  13.772   4.779 -0.1710  0.1623 -0.2155
24789W        W41636   3.754  17.074   3.762  0.0425 -0.0897  0.2381
24790W        W41637   4.999  15.996   1.873 -0.0184 -0.1744 -0.0165
24791W        W41638   6.092   4.938   0.994 -0.1356 -0.0131 -0.1344
24792W        W41639   5.571  13.623   0.393  0.0888  0.1371  0.2275
24793W        W41640   2.868  13.980   5.505 -0.0764  0.0602  0.0186
24794W        W41641   3.597  13.751  14.055 -0.3631 -0.0830 -0.4867
24795W        W41642   4.254   9.984   5.414 -0.2256  0.0131 -0.2744
24796W        W41643   4.892  17.245   0.479 -0.0312 -0.0056  0.2384
24797W        W41644   8.786   5.639  11.262 -0.3285  0.3480 -0.2954
24798W        W41645   9.905   9.123   3.159 -0.0845  0.2109 -0.3559
24799W        W41646   3.871  12.177   3.628  0.2771  0.1139  0.1766
24800W        W41647   5.441   6.688   1.314 -0.1373  0.0399  0.3006
24801W        W41648  14.806   5.870   2.692 -0.2045 -0.2401  0.1357
24802W        W41649   9.742  16.589   1.634 -0.2503  0.0588  0.0903
24803W        W41650  13.467   5.081  13.945 -0.0331 -0.0416 -0.0613
24804W        W41651  16.511   2.425  13.740 -0.2315  0.0054 -0.2704
24805W        W41652  11.914   1.276  11.383  0.2274  0.0547  0.2727
24806W        W41653   2.263  12.830   3.685 -0.0994  0.2403  0.0337
24807W        W41654  13.879  17.795  14.749  0.0082 -0.0051 -0.1544
24808W        W41655   0.627  11.937  16.434  0.1532  0.1642 -0.3064
24809W        W41656   1.912  15.718  12.465  0.1379  0.1187  0.3413
24810W        W41657   9.871   6.432   1.609  0.0535  0.1723  0.0782
24811W        W41658   8.111   2.976  11.659  0.2945  0.0449 -0.0148
24812W        W41659  13.997   1.120  13.284 -0.0980 -0.2653  0.2577
24813W        W41660   2.354  14.879  16.261  0.0863 -0.2264 -0.0794
24814W        W41661  10.890  16.326  16.580 -0.0149 -0.0427 -0.0260
24815W        W41662  15.641   3.326   1.489 -0.0105 -0.0754 -0.1773
24816W        W41663  16.967  15.096   2.183 -0.1163  0.2606  0.5259
24817W        W41664   3.742  15.063   1.273 -0.0131  0.3467 -0.0005
24818W        W41665   2.490   3.651   1.367 -0.0634  0.0393 -0.4901
24819W        W41666  13.606  16.821   0.039  0.1677 -0.0533  0.3127
24820W        W41667   7.225   2.680  14.602  0.2931  0.0436 -0.2544
24821W        W41668   9.588  10.453   4.939 -0.0192  0.0045  0.1799
24822W        W41669  15.914   2.759  15.056 -0.2381  0.1343 -0.1706
24823W        W41670   1.167  15.615   2.340  0.0051  0.0192 -0.1394
24824W        W41671   4.872   6.513  11.525 -0.0449  0.1919 -0.0206
24825W        W41672   6.933  14.352   4.777  0.3295 -0.2549 -0.0471
24826W        W41673   1.696  14.309   4.898 -0.1387  0.0642  0.1575
24827W        W41674  12.211   1.819  10.420  0.1167 -0.2570  0.2283
24828W        W41675   5.738  16.757  15.557  0.0275 -0.0930  0.1369
24829W        W41676  17.594   9.000   1.706 -0.0544 -0.0914  0.0030
24830W        W41677   9.064  11.289   3.903  0.0366  0.0462  0.1337
24831W        W41678   9.971   7.919  15.488 -0.0197 -0.0064  0.0039
24832W        W41679  12.013   4.682  16.339  0.1656 -0.0554 -0.0641
24833W        W41680  17.209   3.021  14.017  0.3583  0.0536  0.0512
24834W        W41681  15.296  15.810  12.992  0.2779 -0.2008  0.0047
24835W        W41682   5.538  17.929   2.361  0.0796 -0.0746 -0.2069
24836W        W41683   4.868  15.817   2.429 -0.1061  0.2711  0.0139
24837W        W41684   5.400  12.767   5.715 -0.1682  0.2064  0.0127
24838W        W41685   2.298   5.988   5.078 -0.1711 -0.0078 -0.1265
24839W        W41686   8.977   1.685  15.151 -0.1671 -0.2532  0.0974
24840W        W41687   4.119  14.763   4.006 -0.0479  0.0597  0.3651
24841W        W41688  12.814  15.721  13.824 -0.4561 -0.3867  0.1273
24842W        W41689  13.054   4.970  12.141  0.2062 -0.1007 -0.2327
24843W        W41690  11.206   8.139   3.479  0.0955  0.0225  0.1001
24844W        W41691  13.507  15.977   4.749 -0.0905 -0.2249 -0.2048
24845W        W41692   7.302  12.635  15.623 -0.2055 -0.0870  0.3260
24846W        W41693  17.079   8.713  13.456  0.0922  0.1663  0.0230
24847W        W41694   4.557   0.022   0.365 -0.0168  0.0259  0.3465
24848W        W41695   2.040   4.008  11.244 -0.0242  0.0340 -0.0167
24849W        W41696   0.909  16.971   1.759 -0.0479  0.0828  0.2142
24850W        W41697   1.043   2.182   6.082  0.0869  0.0727  0.0602
24851W        W41698   3.331   9.582  15.470  0.2326  0.2141 -0.1584
24852W        W41699   0.626   1.779   1.977  0.0553  0.0882 -0.0912
24853W        W41700  15.108   4.262  13.659  0.2712  0.2396  0.3877
24854W        W41701   5.491   3.775  13.019 -0.0806  0.1546  0.2043
24855W        W41702  10.207  10.490   4.163 -0.1677  0.1563  0.0766
24856W        W41703   2.559   8.934  14.430 -0.0283  0.3103 -0.2339
24857W        W41704  11.323   0.969  13.578  0.0978  0.0628  0.5014
24858W        W41705  16.093  17.253  12.406  0.1516 -0.1137  0.2793
24859W        W41706  13.767   4.485  13.400 -0.1052 -0.0163 -0.1254
24860W        W41707  14.406   8.850  14.438 -0.1192 -0.4490  0.1775
24861W        W41708   9.225  11.220   2.706 -0.2252  0.3485 -0.0997
24862W        W41709  11.035   7.960   3.925  0.1359  0.2006  0.2336
24863W        W41710  10.780  10.538   3.523  0.1814 -0.1718  0.2313
24864W        W41711  15.883  17.130   1.423  0.1158  0.0291  0.0120
24865W        W41712   0.942  10.183   1.551  0.1407  0.2202 -0.1260
24866W        W41713   5.826   9.274   1.091  0.1583 -0.0330  0.1219
24867W        W41714   0.787  11.269  15.931  0.2114  0.0976  0.1153
24868W        W41715  10.219  17.291  16.135  0.1337 -0.0808  0.2348
24869W        W41716   6.824  17.886  15.485 -0.1816 -0.1870  0.0254
24870W        W41717   8.679  15.734  16.468  0.0094 -0.4317  0.1683
24871W        W41718   3.663  12.342   5.695  0.0064 -0.0865 -0.1526
24872W        W41719   7.999  11.525  15.599  0.2234 -0.0873  0.0313
24873W        W41720   4.042   5.487  11.948 -0.2297 -0.0562 -0.1171
24874W        W41721  10.446  15.210  16.002  0.1356  0.2521 -0.1031
24875W        W41722   7.544  14.097   0.918 -0.3334 -0.0410  0.2448
24876W        W41723  10.232   8.793  13.852 -0.2167 -0.0803 -0.3299
24877W        W41724  10.139  14.173   0.202  0.0745  0.2326  0.2314
24878W        W41725   3.391  15.956   2.248  0.1721  0.0599 -0.0910
24879W        W41726   2.452  13.864  12.063  0.1751 -0.1326 -0.0255
24880W        W41727   1.880  15.608  15.615  0.0443  0.0056  0.1844
24881W        W41728  17.206  15.494   0.075  0.2903  0.0735  0.0402
24882W        W41729  13.131  14.288  13.171  0.1172 -0.0031 -0.1408
24883W        W41730  14.678  16.092  14.874  0.0915  0.0281  0.1252
24884W        W41731   5.987   0.142  13.061 -0.1700 -0.2100  0.2509
24885W        W41732  17.248   9.922   2.276  0.2262  0.1413  0.0075
24886W        W41733   5.093  17.701   2.464 -0.0972  0.0728 -0.2677
24887W        W41734   6.857   9.635  14.939 -0.1116 -0.2179  0.2143
24888W        W41735  15.421  10.170  12.358  0.2099  0.1580 -0.1319
24889W        W41736   1.608  12.686   5.218  0.1278 -0.3800  0.3849
24890W        W41737  11.786  11.726   2.485 -0.2729  0.0393  0.0993
24891W        W41738   7.920  13.432  14.448  0.0795  0.2319 -0.0290
24892W        W41739  13.409   4.746  15.093  0.1288  0.1685  0.1457
24893W        W41740   0.648   3.266   4.008  0.0080  0.2479 -0.1859
24894W        W41741   2.252   9.636  15.623  0.1990  0.4476  0.2749
24895W        W41742   7.956   2.373  11.572 -0.3158  0.0931 -0.0325
24896W        W41743  15.996  10.446   0.265  0.0652 -0.2602 -0.3181
24897W        W41744   5.819   2.199   4.100  0.3076  0.0599  0.2212
24898W        W41745   2.316   0.016  15.569 -0.3023  0.1430  0.0203
24899W        W41746   5.446  16.010  13.786  0.0095  0.0530 -0.0804
24900W        W41747  11.703   0.504  15.821  0.0002 -0.0650 -0.0542
24901W        W41748  17.123  12.075  14.970  0.0355 -0.2011  0.0317
24902W        W41749   4.368   3.571   5.200 -0.1012 -0.2607  0.1475
24903W        W41750  14.507  14.300  13.214  0.3270  0.0951 -0.0454
24904W        W41751   7.433  17.969  13.023  0.1343  0.1425 -0.0308
24905W        W41752   0.737   0.330  11.814 -0.1159 -0.2397 -0.1097
24906W        W41753  14.249  15.615   0.913 -0.0586  0.0404  0.0153
24907W        W41754  16.862  13.856   5.934  0.0803  0.1541 -0.2375
24908W        W41755  10.247   1.359   4.729  0.1098  0.1874 -0.3150
24909W        W41756   9.047  10.203  13.693  0.0756 -0.3325  0.0415
24910W        W41757   3.383   5.827   4.492 -0.0362  0.2087  0.1593
24911W        W41758  10.673   1.920  11.777 -0.0321  0.1156  0.0485
24912W        W41759   2.162  13.643   5.297 -0.2570 -0.2780  0.1035
24913W        W41760  16.286  17.955   2.176  0.2085 -0.0193 -0.2513
24914W        W41761   2.938   6.017  14.831 -0.0797 -0.0100 -0.2232
24915W        W41762  11.720  16.774  13.705  0.1297  0.0964 -0.1214
24916W        W41763  10.821   7.271  11.518 -0.0645  0.0052 -0.1385
24917W        W41764   9.519   9.148   3.555  0.5890 -0.0815 -0.4112
24918W        W41765  12.699   5.676  13.251  0.0538  0.3175  0.0883
24919W        W41766   1.022  17.267  12.997  0.1343  0.0414 -0.1722
24920W        W41767   5.205   5.141   3.301 -0.0395  0.0044 -0.1904
24921W        W41768  15.835   7.157  11.068 -0.1781 -0.0160  0.0896
24922W        W41769  14.822  11.614  15.359 -0.1426  0.1187  0.1981
24923W        W41770   5.457  13.276   2.508 -0.1398 -0.1598 -0.1692
24924W        W41771   1.594  13.258   2.686 -0.0671 -0.3023 -0.1739
24925W        W41772   1.045   5.630  12.538  0.0387 -0.0385  0.1643
24926W        W41773   1.032   3.731  13.838 -0.2649 -0.0243 -0.0040
24927W        W41774   0.007   2.747  13.103  0.1262  0.0939 -0.4456
24928W        W41775  15.877  12.656  15.112  0.1803 -0.0785  0.1224
24929W        W41776   2.325   1.477  12.970 -0.1690 -0.1428  0.4213
24930W        W41777  10.507   3.996  14.234  0.0898  0.3333 -0.3118
24931W        W41778  13.326  12.047  16.255  0.1691  0.0708  0.0474
24932W        W41779   2.874  11.417  16.181  0.0667 -0.0705 -0.4322
24933W        W41780  15.897  10.491  15.145 -0.1145  0.0429  0.2563
24934W        W41781  10.043  10.499   4.652  0.0852 -0.2033 -0.0124
24935W        W41782  17.233   3.759  16.378 -0.2853  0.1682 -0.0417
24936W        W41783  14.825   9.173  13.185 -0.0795 -0.2216  0.2428
24937W        W41784   1.292   9.542  14.195 -0.1793  0.0763  0.1592
24938W        W41785   1.508   0.244   1.156  0.3285 -0.1457  0.0823
24939W        W41786   6.535   7.620   2.792  0.2153  0.1874 -0.2950
24940W        W41787   8.502  15.253   0.748  0.1977  0.0076 -0.2910
24941W        W41788   5.822   5.947  15.181  0.1239  0.1385 -0.1979
24942W        W41789   9.153  11.588   4.673  0.0659  0.0875 -0.2689
24943W        W41790   6.939   4.891   0.099  0.0329  0.0950 -0.1053
24944W        W41791  17.320   2.930   1.808  0.2710  0.0034 -0.0786
24945W        W41792   0.811   2.488  14.696 -0.3495  0.0702 -0.0181
24946W        W41793  13.896   0.289   1.741  0.2754  0.0151 -0.1576
24947W        W41794  12.914   1.482  14.359  0.0892  0.2992 -0.1154
24948W        W41795  14.423   5.681  15.910 -0.2832  0.2378 -0.0456
24949W        W41796   5.876  12.588   2.574 -0.2020  0.0665  0.2845
24950W        W41797   5.045   2.487  13.088 -0.3492 -0.2365  0.3849
24951W        W41798  17.097  10.236  16.255 -0.0441  0.0574  0.1140
24952W        W41799  11.171   8.564   1.246 -0.3105  0.1501  0.1253
24953W        W41800  12.883  12.612   3.098 -0.1064 -0.2572  0.1510
24954W        W41801   1.871  17.583   1.255 -0.0245  0.1668 -0.0435
24955W        W41802  12.786   7.681   2.642  0.4171 -0.3345  0.0090
24956W        W41803  11.979   0.565   0.502 -0.1113  0.0703 -0.2873
24957W        W41804   0.417   8.002   0.340 -0.1790  0.2436  0.0239
24958W        W41805   7.707   1.798   3.126 -0.1947 -0.1047 -0.0213
24959W        W41806   0.767   4.117  12.907 -0.0499 -0.1325 -0.0724
24960W        W41807  18.113   1.480  13.078 -0.2910 -0.2530 -0.0989
24961W        W41808   1.698   9.231   0.352 -0.0409  0.1491 -0.1452
24962W        W41809   6.517   5.140   0.096  0.1883 -0.1083 -0.2363
24963W        W41810   3.821  12.196  12.646 -0.0167 -0.1248  0.0058
24964W        W41811  13.765  18.136  12.310 -0.4023 -0.1098  0.0749
24965W        W41812   9.403   0.950  13.955  0.1115 -0.1504 -0.2804
24966W        W41813  14.466   9.860   4.034  0.0013 -0.2107 -0.0103
24967W        W41814   2.569   4.468   2.463 -0.0607  0.0836 -0.4757
24968W        W41815   9.372  15.483   1.221  0.0470 -0.1775 -0.3103
24969W        W41816   2.671   6.895   3.308 -0.0808 -0.0057 -0.2762
24970W        W41817  14.479   7.802   2.909  0.2136 -0.0327  0.1864
24971W        W41818  11.940  16.382   3.748  0.1007  0.0268 -0.0709
24972W        W41819  17.981  10.805   5.276 -0.0323 -0.1735 -0.1441
24973W        W41820  15.954  14.126   5.563  0.0769 -0.3753  0.2211
24974W        W41821  12.545   3.283   0.495 -0.0812  0.3333 -0.1099
24975W        W41822  12.697  18.040   2.301 -0.3052  0.1529 -0.2924
24976W        W41823  10.621   5.213  12.372  0.2621 -0.0360 -0.3177
24977W        W41824  13.516   7.433   1.802  0.1260 -0.1591 -0.2169
24978W        W41825  17.720   1.979   5.448 -0.7016 -0.1975  0.2245
24979W        W41826  14.419  13.840  13.659 -0.2100 -0.1776 -0.0515
24980W        W41827   0.511   5.097  13.000 -0.0381  0.0099 -0.1558
24981W        W41828   7.386  14.524   2.319  0.1456 -0.0045 -0.2598
24982W        W41829   3.671   6.923  11.725  0.1235  0.2148 -0.0504
24983W        W41830  11.642  14.098   0.855 -0.2626  0.1400 -0.1251
24984W        W41831  11.042  14.164   0.343  0.0622  0.0527 -0.2280
24985W        W41832  11.375  17.638  15.839  0.1076 -0.2095  0.2128
24986W        W41833   3.743  14.618  14.623  0.1608 -0.0842  0.1582
24987W        W41834   0.312   9.903   4.229  0.0854 -0.0133 -0.2477
24988W        W41835  10.566  14.301   4.891  0.0961 -0.0608 -0.2279
24989W        W41836   7.667  16.181  14.268  0.0100  0.0238  0.0940
24990W        W41837  16.800   8.629  12.696  0.0670 -0.2497 -0.0262
24991W        W41838  13.197  16.202   3.815 -0.1207 -0.1711 -0.1660
24992W        W41839  16.009  16.218  15.022 -0.4175  0.0698  0.0732
24993W        W41840   7.408   5.744   2.545 -0.0901  0.4101 -0.1335
24994W        W41841   7.085  16.275   1.713  0.2220 -0.0111  0.0889
24995W        W41842  12.560  17.880   1.240 -0.0665 -0.2577 -0.0658
24996W        W41843   0.811   2.267   1.691 -0.1671  0.1920 -0.1871
24997W        W41844   2.636  16.249  15.729 -0.0693  0.0375 -0.3023
24998W        W41845  10.972  18.134   1.699  0.0725 -0.2718  0.1958
24999W        W41846   1.145   2.591  16.408  0.1147  0.0079 -0.3253
25000W        W41847  11.118   3.370  11.290  0.0690 -0.3932 -0.0315
25001W        W41848   0.345   9.718  14.516  0.0383  0.1303  0.0411
25002W        W41849  14.069  14.719   5.081  0.3067 -0.0362  0.0729
25003W        W41850   5.874  16.769   3.305  0.0542  0.1206 -0.1462
25004W        W41851   4.573   8.823  13.065  0.0187  0.0440  0.0432
25005W        W41852   9.546   9.279  16.470  0.0469  0.3948  0.0969
25006W        W41853   4.930   1.734   4.986 -0.0996  0.0130  0.3909
25007W        W41854   4.926   1.703   0.715 -0.0452 -0.1711  0.1950
25008W        W41855   7.491   9.838   3.352  0.0283 -0.3453  0.0328
25009W        W41856   4.242   4.898  13.734 -0.2713 -0.0321 -0.3659
25010W        W41857   0.534  15.067   3.368 -0.0427 -0.1082  0.2682
25011W        W41858   1.485  16.446   2.118  0.2938 -0.1525 -0.1165
25012W        W41859   4.347  14.132  16.259  0.4084  0.0568 -0.0827
25013W        W41860   3.673  14.249  14.210 -0.0658  0.2315 -0.1308
25014W        W41861  12.054  15.658  15.271 -0.1400 -0.1680 -0.0112
25015W        W41862   3.018   1.992  12.374  0.1072  0.0029 -0.0319
25016W        W41863   4.370  11.640  13.730  0.2962  0.1727  0.1881
25017W        W41864   9.799   0.581  12.054  0.1233 -0.3019 -0.0490
25018W        W41865   7.538  18.101   1.679 -0.3221  0.2222 -0.2928
25019W        W41866   3.920  18.085   4.782  0.0620  0.1409  0.1010
25020W        W41867   4.335   5.792   1.246  0.3541 -0.1108  0.0262
25021W        W41868  12.540   8.082  14.902  0.2556 -0.0094 -0.1515
25022W        W41869  14.261   5.028   4.957 -0.3335  0.1683  0.2616
25023W        W41870   2.597   3.330   4.350 -0.2211 -0.2463 -0.0361
25024W        W41871   1.539  16.040  12.402 -0.2882  0.2961  0.1398
25025W        W41872   9.208   7.132   1.077  0.2264 -0.0953  0.0854
25026W        W41873   1.137  13.804  12.124  0.1553 -0.0059  0.2399
25027W        W41874   3.256   8.917   4.416 -0.1119 -0.1973 -0.0626
25028W        W41875  10.983  17.717  16.266 -0.1860  0.0503 -0.3012
25029W        W41876   8.368  16.491   5.480 -0.0941  0.0947 -0.0827
25030W        W41877   7.279   9.606  14.520 -0.0202 -0.5038  0.0072
25031W        W41878  15.313  10.166  15.700 -0.0621 -0.3947 -0.0422
25032W        W41879   8.732  16.878   0.897  0.2980 -0.0404 -0.1531
25033W        W41880   9.345  10.179  14.683  0.2314 -0.1124  0.0436
25034W        W41881  15.997   7.139   4.308  0.1200  0.1927 -0.0448
25035W        W41882   8.731  12.259  12.309 -0.0464  0.0902 -0.0564
25036W        W41883  11.361   7.077  13.111  0.4118 -0.2361  0.0643
25037W        W41884   1.448   3.246   1.905  0.1399  0.3192 -0.1978
25038W        W41885   2.724   1.428   3.802  0.2375 -0.2746 -0.2227
25039W        W41886   2.300  16.511  12.190  0.1528 -0.1433 -0.0460
25040W        W41887   7.083  12.493   0.980 -0.0073  0.1345  0.0712
25041W        W41888   9.229  13.982   0.095 -0.2924  0.1016 -0.1488
25042W        W41889   3.306  15.269  15.124 -0.2433  0.0235 -0.0959
25043W        W41890   9.854  15.733  12.941  0.1160  0.1168 -0.2014
25044W        W41891  14.443   5.327  13.333  0.0206 -0.2208 -0.3729
25045W        W41892  10.846  10.761   3.036  0.0811  0.1330 -0.2161
25046W        W41893  10.414  15.250  16.599 -0.0126 -0.1490 -0.4356
25047W        W41894  16.588   0.615  15.510 -0.2152 -0.0652  0.0657
25048W        W41895   0.081  17.957  12.343 -0.0943 -0.0351 -0.1193
25049W        W41896   3.847  14.469  13.793 -0.2289 -0.3292  0.1002
25050W        W41897  11.640  15.610  15.919  0.1207 -0.0751 -0.0746
25051W        W41898  12.247  15.234   0.461  0.1993  0.3902 -0.0401
25052W        W41899  16.812   9.741  11.866 -0.1233 -0.2225 -0.2242
25053W        W41900  14.461   5.562   2.428  0.3967 -0.1168 -0.0542
25054W        W41901  10.855   8.695   0.798  0.0498  0.2735  0.0883
25055W        W41902   9.775  16.026   3.058 -0.2434 -0.0880 -0.0635
25056W        W41903   5.173  17.218  15.332 -0.0019  0.1959  0.0260
25057W        W41904   5.399   3.145   0.041 -0.2229  0.0975  0.0092
25058W        W41905  13.993  15.681   2.998  0.0943  0.0270  0.0671
25059W        W41906   5.298   1.283   1.068 -0.1703  0.0618  0.1586
25060W        W41907  17.562   8.095   1.313  0.1380 -0.1378 -0.0108
25061W        W41908   9.205   3.637  14.398  0.1266 -0.1398 -0.0206
25062W        W41909   9.475  11.589  16.292  0.0886 -0.2760 -0.1068
25063W        W41910   6.493   1.912   1.772 -0.1968 -0.2407  0.2683
25064W        W41911  11.390   5.598   3.945 -0.0113 -0.1058 -0.2507
25065W        W41912   6.186   4.497   3.260 -0.1645 -0.1118  0.1492
25066W        W41913   8.019  16.917   1.079  0.0695 -0.1919  0.0395
25067W        W41914  12.751  16.700   5.093 -0.0261 -0.0343 -0.1614
25068W        W41915   2.175  17.760   2.539 -0.0124 -0.0584  0.0584
25069W        W41916  15.665   8.886   5.734 -0.0771  0.0971  0.0268
25070W        W41917  17.211   6.340   2.885  0.1438 -0.4585 -0.0634
25071W        W41918  14.114   6.945   3.704 -0.0317  0.1491  0.3209
25072W        W41919   0.261   6.293  14.032  0.2040 -0.0890  0.0498
25073W        W41920   0.718  10.317   5.887  0.0781 -0.2762 -0.0660
25074W        W41921   2.879  10.515   1.603  0.0853 -0.0604 -0.2185
25075W        W41922   8.366   5.030   0.020  0.2408 -0.1880  0.1024
25076W        W41923  11.257  14.829  12.932  0.2508  0.1508 -0.1053
25077W        W41924   4.459   2.787  15.194  0.2655  0.2444 -0.0447
25078W        W41925  14.541  14.620   5.116  0.0985  0.1358 -0.2240
25079W        W41926   4.123   1.561   5.379  0.5620  0.0858 -0.2653
25080W        W41927  12.101   6.959  15.176  0.0109 -0.0596  0.2445
25081W        W41928  12.804   9.672  13.573  0.0453 -0.1656  0.3111
25082W        W41929  16.452  16.956  13.334  0.0499 -0.0567  0.1156
25083W        W41930   9.300  14.336  16.292 -0.0626 -0.0250  0.5341
25084W        W41931   4.958   4.728   3.489 -0.2834 -0.0512  0.4739
25085W        W41932  10.165   8.647   3.210 -0.3281  0.0383  0.3429
25086W        W41933  10.559   9.242  11.748  0.2912 -0.0971  0.0306
25087W        W41934  14.327   9.363   3.867  0.0673  0.2953  0.3384
25088W        W41935   0.971   9.116   0.788  0.0610 -0.0587  0.1172
25089W        W41936   6.399  13.036  12.577 -0.1257  0.2836 -0.4818
25090W        W41937   1.245   5.485  16.422  0.2999 -0.2417  0.1352
25091W        W41938   7.419   4.149   0.392  0.1545 -0.0347 -0.1241
25092W        W41939  14.229   8.122   2.547 -0.2561 -0.1128 -0.2984
25093W        W41940  10.874  13.786  12.073 -0.1267 -0.0149 -0.0659
25094W        W41941   9.390  13.297   0.835  0.0086  0.2163 -0.1145
25095W        W41942   8.011   1.315  14.365 -0.1256 -0.2542  0.0535
25096W        W41943  12.631   0.187  12.438  0.3404  0.1936 -0.0124
25097W        W41944   5.121   2.973   3.207 -0.0381 -0.1302 -0.1947
25098W        W41945  17.184  11.590  13.077 -0.0398  0.1622 -0.1495
25099W        W41946   6.054  14.880   1.683 -0.0368  0.0001 -0.0606
25100W        W41947   8.453   3.253  14.699 -0.0659 -0.3299  0.0744
25101W        W41948   5.250   0.110  16.324  0.2030  0.0875 -0.0585
25102W        W41949   3.358  11.527  15.973  0.2315  0.2776 -0.1054
25103W        W41950   5.418   1.620   1.428 -0.0948 -0.0895  0.1106
25104W        W41951  12.737  15.383   4.468 -0.0745  0.1138 -0.2189
25105W        W41952  13.220  10.349  15.880  0.0092  0.0228  0.0098
25106W        W41953  16.084  13.150   2.758  0.4022  0.0491  0.1776
25107W        W41954   8.210   7.369   3.731  0.0270 -0.1237 -0.0535
25108W        W41955   8.657   9.257   2.523 -0.1972 -0.0894 -0.2997
25109W        W41956  15.091   7.425  12.999 -0.0588  0.3555  0.0959
25110W        W41957   8.302   1.149   2.338 -0.1592  0.1044 -0.5491
25111W        W41958   5.464  10.809   2.571  0.0765  0.0102 -0.1315
25112W        W41959  13.756   7.966  11.781  0.0809 -0.2146 -0.1201
25113W        W41960   7.583  10.638  11.643  0.0545  0.0710  0.4259
25114W        W41961   1.434   1.163   2.246 -0.1778 -0.2323  0.2131
25115W        W41962   7.509   7.543  11.401  0.2144  0.2320 -0.2382
25116W        W41963  16.186   1.001  12.743 -0.1194 -0.0429  0.1593
25117W        W41964   6.013  17.698   0.221 -0.2045  0.1500  0.0750
25118W        W41965  11.078  14.471  13.208 -0.0193 -0.0848  0.0634
25119W        W41966  14.103  12.517  15.589  0.1353 -0.0584 -0.0311
25120W        W41967  17.399  13.515   2.502 -0.0279 -0.0043 -0.0429
25121W        W41968   7.509  16.243   0.828 -0.0208  0.0080  0.1630
25122W        W41969  10.679  15.245  13.834 -0.1253 -0.1488  0.0958
25123W        W41970   8.965  14.676  15.006  0.2777  0.0581 -0.0000
25124W        W41971  17.488  11.248  12.323 -0.1506  0.0848  0.2652
25125W        W41972  13.373  15.312   4.083  0.0385  0.0004  0.1942
25126W        W41973  14.221   6.083  13.944 -0.0126  0.1821  0.2692
25127W        W41974   6.974   1.038  11.933 -0.0626 -0.0363 -0.1260
25128W        W41975  15.918  14.423  12.809 -0.2182 -0.1003 -0.1563
25129W        W41976   0.906   3.108   1.716  0.2591  0.1580 -0.0997
25130W        W41977   0.107   5.118  14.266  0.3442  0.0954 -0.1693
25131W        W41978   8.215   5.298   0.457  0.2669 -0.2012 -0.3753
25132W        W41979   8.793  13.934   1.058  0.1190  0.1622 -0.3545
25133W        W41980   5.727   9.136  13.263  0.0924 -0.1568 -0.3146
25134W        W41981  15.722   5.598  15.515  0.0077 -0.1086 -0.0606
25135W        W41982  12.675  12.932  14.583  0.0401  0.0102 -0.1887
25136W        W41983   9.635   3.917  14.055 -0.2743  0.1063 -0.2708
25137W        W41984  12.074   8.539  15.676  0.0338  0.1205 -0.0197
25138W        W41985   8.312   3.108   3.285 -0.0603 -0.3870  0.0143
25139W        W41986   7.196  17.182  13.505  0.2063  0.1796 -0.0048
25140W        W41987   0.078  14.821   3.348  0.6420 -0.0777  0.1581
25141W        W41988  16.299  11.881   0.380  0.1666  0.0902  0.0699
25142W        W41989  15.503  17.081   5.116 -0.0210 -0.1072 -0.0871
25143W        W41990   2.966  17.311  15.427  0.3267  0.0546 -0.2127
25144W        W41991   8.780   2.257  11.440  0.1709  0.2682 -0.1940
25145W        W41992  13.821  12.670  13.498  0.1565 -0.0094  0.2774
25146W        W41993   6.822  15.026   2.181  0.1778 -0.0352  0.2752
25147W        W41994   0.188   5.147   2.671  0.1438  0.1102 -0.0531
25148W        W41995   4.251   2.895   4.987 -0.4160 -0.1535  0.1962
25149W        W41996   9.442   5.960   1.963 -0.0956  0.1827  0.2850
25150W        W41997   1.347  17.234   5.170  0.2025  0.2137 -0.2229
25151W        W41998   8.058  15.186   4.956 -0.0751 -0.3540 -0.1951
25152W        W41999  10.507  13.217  14.613  0.0465 -0.2212 -0.1867
25153W        W42000  11.085  10.725  16.098  0.1703 -0.1496 -0.1013
25154W        W42001   8.426   7.516  12.560  0.3694 -0.1484  0.0654
25155W        W42002  15.375   9.212  12.565 -0.0472  0.0199 -0.1793
25156W        W42003   7.043   4.517  15.410  0.0372 -0.2874 -0.2486
25157W        W42004   1.456   2.117  12.294 -0.2949  0.2836  0.1839
25158W        W42005   4.194  10.057  14.525 -0.3175  0.1423 -0.3992
25159W        W42006  16.573   7.075   4.691 -0.1197  0.0215  0.0007
25160W        W42007   3.522  12.236   1.799 -0.1124 -0.0953  0.3173
25161W        W42008   8.611  15.764   2.109 -0.0198  0.1534 -0.0553
25162W        W42009   2.805   3.077  15.840  0.1015 -0.2909  0.0794
25163W        W42010  10.834   8.402   4.862 -0.2862 -0.0448 -0.1573
25164W        W42011  15.654  12.051   5.544 -0.2177 -0.2719 -0.1165
25165W        W42012  10.365  13.004  13.031 -0.1358 -0.0482  0.1079
25166W        W42013   7.668   0.968  15.560  0.1038 -0.1974  0.2853
25167W        W42014   2.656  12.349   1.420  0.1574  0.0911  0.0516
25168W        W42015  12.838   5.995  16.563 -0.2468 -0.0925  0.0971
25169W        W42016   7.447  12.516   4.731  0.3239  0.0455 -0.2395
25170W        W42017  13.373  15.057   1.794  0.4418  0.0792 -0.2582
25171W        W42018   0.983  10.895  15.061 -0.1019 -0.1913 -0.0552
25172W        W42019   9.398   6.252   3.181  0.2764  0.1831  0.0478
25173W        W42020  10.184   4.054   0.703  0.0033  0.0135 -0.0363
25174W        W42021  15.271   9.273  16.010  0.1697 -0.0211 -0.0927
25175W        W42022  16.600   9.265  11.786 -0.0573 -0.1689  0.1071
25176W        W42023   4.438  15.507   4.520 -0.1452 -0.1559 -0.2623
25177W        W42024  14.390  11.832  12.694 -0.1899 -0.3590 -0.0296
25178W        W42025   4.188   4.511   3.766  0.2412 -0.1368 -0.1753
25179W        W42026  12.113   0.061   4.282  0.0809  0.0385 -0.1492
25180W        W42027   0.648   2.441   5.151 -0.2668  0.0994  0.1479
25181W        W42028   9.389   9.858   0.474 -0.0366 -0.1583 -0.2454
25182W        W42029   9.240   7.874  12.562 -0.3601  0.1090 -0.1735
25183W        W42030  12.077  17.887   0.934 -0.2702 -0.1169  0.2915
25184W        W42031   7.680   6.218   3.480 -0.2390  0.0838  0.0476
25185W        W42032   2.343   5.526  14.423 -0.0096  0.2227 -0.2496
25186W        W42033  13.455   9.020   2.665 -0.2100 -0.2769  0.1606
25187W        W42034  16.629  11.567  13.294  0.0828 -0.1794 -0.0622
25188W        W42035  12.991   1.713  13.824 -0.1028  0.5172  0.2763
25189W        W42036   6.521  12.337  13.451 -0.4785 -0.0824  0.0474
25190W        W42037  13.161  18.028   3.447  0.2977  0.3737  0.0040
25191W        W42038  10.149   1.269  15.490  0.0088 -0.1174 -0.0549
25192W        W42039   8.330   6.129   4.718 -0.1522 -0.2487  0.0678
25193W        W42040   1.220   8.374   5.051  0.1281  0.2907 -0.3554
25194W        W42041  15.739   0.288  12.966  0.2115 -0.5521 -0.2051
25195W        W42042  11.582  15.523   3.617  0.0230  0.1067  0.0932
25196W        W42043   1.634  16.344   5.651 -0.1936  0.2991  0.0957
25197W        W42044  10.731   5.199   1.857  0.1089  0.1539 -0.2016
25198W        W42045  12.861  18.134  13.989 -0.0488  0.2787  0.1838
25199W        W42046   4.858  12.842   1.928  0.2681  0.2939  0.0343
25200W        W42047  16.766  14.831   1.159  0.0919 -0.0986  0.1127
25201W        W42048   9.820  14.555  15.852 -0.0474 -0.4245 -0.0633
25202W        W42049   7.679   7.482  14.625 -0.0910 -0.2374 -0.0165
25203W        W42050   4.388   7.870  13.967 -0.1267 -0.2237 -0.0381
25204W        W42051  13.835  10.328  16.605 -0.0903 -0.0104 -0.1735
25205W        W42052   2.104  12.690  14.778 -0.0207 -0.2920  0.0587
25206W        W42053   1.488   3.281  16.030 -0.3650 -0.0125  0.1856
25207W        W42054   4.595  14.240   4.786 -0.0770  0.0129  0.1314
25208W        W42055   6.506   3.328  14.986 -0.0390  0.1444  0.1882
25209W        W42056  14.562   0.733   5.067  0.1250 -0.2355  0.1819
25210W        W42057  10.093   0.811   3.916 -0.2476 -0.0476 -0.2029
25211W        W42058  10.270   3.617   4.870 -0.2682  0.0610  0.1620
25212W        W42059   6.399  13.913   3.081 -0.0731 -0.1189  0.1045
25213W        W42060   8.936   5.425  14.854 -0.2263 -0.2616  0.1198
25214W        W42061  11.064  15.632  14.148  0.0556  0.2896  0.3467
25215W        W42062  16.811  15.693  14.351 -0.0009  0.1454 -0.0925
25216W        W42063   5.268   2.787   0.428  0.3485 -0.1225 -0.2602
25217W        W42064  12.308  13.568  16.496 -0.0557 -0.0019  0.0067
25218W        W42065   3.072  17.298   4.251  0.1300 -0.1130  0.2781
25219W        W42066   9.661   1.002   4.620  0.2195 -0.2024 -0.0969
25220W        W42067   6.592   0.346  12.687 -0.0462 -0.0109 -0.0605
25221W        W42068   4.062  10.073  15.306 -0.1571 -0.0134 -0.1621
25222W        W42069   7.663   8.318  16.339 -0.0990  0.2409  0.1550
25223W        W42070   6.015   1.927   1.613  0.1669 -0.0454  0.0710
25224W        W42071  16.783   8.900   3.150 -0.0186  0.1476  0.0044
25225W        W42072  12.542  12.497   5.248  0.1571  0.0885  0.0377
25226W        W42073   9.091  15.885   1.916 -0.3964 -0.1000  0.1994
25227W        W42074   4.964  16.499   1.845 -0.1697  0.1819  0.3547
25228W        W42075  16.810  14.711   3.448 -0.0081  0.0085 -0.0602
25229W        W42076  17.777   1.430   2.453  0.0319  0.1604  0.1809
25230W        W42077   4.958   6.672   1.347  0.1318 -0.0675  0.0997
25231W        W42078   9.255   8.747  12.922  0.0530  0.2210  0.1833
25232W        W42079   2.631   2.793   4.226 -0.0216  0.0738 -0.3967
25233W        W42080  13.388   7.192   0.381  0.0516  0.2472 -0.1060
25234W        W42081  10.014  11.524   2.448 -0.0729 -0.0918  0.2212
25235W        W42082  11.887   1.703  11.710 -0.1024  0.0627  0.3396
25236W        W42083  12.941   5.472   1.623 -0.0333 -0.0412 -0.1870
25237W        W42084   7.697  14.066   3.714  0.0334  0.3326  0.0410
25238W        W42085  10.391   7.618   2.878 -0.0078 -0.0887 -0.1734
25239W        W42086   4.890   0.290   5.899 -0.0995 -0.0760 -0.2892
25240W        W42087  13.339  16.177   3.285 -0.1522 -0.0347 -0.1470
25241W        W42088  13.546  12.862   0.264  0.1283 -0.0047 -0.3388
25242W        W42089   9.424   9.764  16.477 -0.0643 -0.1395 -0.0995
25243W        W42090  11.893   5.319   3.119 -0.4130 -0.0152  0.0051
25244W        W42091   5.500  15.499  15.952  0.2401 -0.0417  0.2404
25245W        W42092   4.564  14.660   4.299 -0.0345  0.2822 -0.2377
25246W        W42093  11.259  12.284   5.733 -0.0707  0.0607 -0.0180
25247W        W42094   9.776  14.988   0.108 -0.0748 -0.1897  0.3749
25248W        W42095  15.514   4.372  14.479  0.3529 -0.0914  0.2214
25249W        W42096   7.704  12.509   3.418 -0.3016 -0.0264  0.1664
25250W        W42097  13.595  11.739  13.504 -0.0221 -0.0607  0.2618
25251W        W42098  13.627   4.536   0.207  0.3473 -0.0365 -0.1176
25252W        W42099  14.632  17.531   3.140  0.0371 -0.3541  0.1314
25253W        W42100  17.380   1.181  13.684  0.1502  0.1230 -0.0506
25254W        W42101  16.630   7.005  16.410 -0.2019 -0.0470 -0.0953
25255W        W42102  10.478   0.685   5.547  0.0428 -0.0841  0.3675
25256W        W42103   9.209  11.111   4.452 -0.2737  0.2131 -0.0833
25257W        W42104   1.041   4.230   1.978 -0.1674  0.2665  0.2158
25258W        W42105  10.160   1.818   2.779  0.1348 -0.2392 -0.1426
25259W        W42106   8.089   1.425  15.365 -0.1585 -0.2746  0.2930
25260W        W42107  14.151  14.011   1.283  0.4225  0.0687  0.2042
25261W        W42108  17.463   5.202  13.098  0.0880  0.0543  0.2839
25262W        W42109  10.009   9.402  16.460  0.0207  0.3790  0.0725
25263W        W42110   8.074  17.374  11.981  0.1876  0.1242 -0.0332
25264W        W42111  10.376   7.972  13.501  0.1236  0.1354 -0.0314
25265W        W42112   2.679  16.089  14.812 -0.1380 -0.1276 -0.3543
25266W        W42113  14.945   0.164  13.334 -0.2119 -0.1870  0.0925
25267W        W42114   9.584  14.608  12.075 -0.1456 -0.0574  0.1000
25268W        W42115  11.447  11.119  16.528  0.0879 -0.0837 -0.1081
25269W        W42116   0.858  14.324   5.246 -0.0004  0.0055 -0.1573
25270W        W42117   6.789  12.923  11.686  0.3535  0.0578  0.0019
25271W        W42118   2.441   7.520   1.333 -0.1287  0.1698  0.0343
25272W        W42119   9.691  13.763  13.901  0.0093  0.0860 -0.3093
25273W        W42120   7.461   5.159   3.436  0.0373  0.0291 -0.2026
25274W        W42121  12.119  10.842   1.699  0.3233  0.0911  0.0372
25275W        W42122   0.215  10.290   3.925  0.0434 -0.2578  0.1836
25276W        W42123  15.089  13.210   2.398  0.1186 -0.2517 -0.0629
25277W        W42124   2.318   0.976  14.928 -0.0595  0.1261  0.0574
25278W        W42125  10.588  10.102   5.024  0.3804 -0.1693 -0.1203
25279W        W42126  14.984   2.965  12.304  0.2217 -0.0053 -0.0097
25280W        W42127   5.326  11.908   5.692  0.1092 -0.0616 -0.1250
25281W        W42128   8.988   6.896  14.234  0.0192 -0.0360  0.1191
25282W        W42129   7.669  15.447   5.176 -0.0190  0.1534 -0.0072
25283W        W42130  14.335   2.104   2.946 -0.0808 -0.0274 -0.0072
25284W        W42131  18.095   7.822   3.737  0.3632 -0.0394  0.3561
25285W        W42132  16.275   7.255  13.985 -0.1999 -0.0327 -0.1543
25286W        W42133  11.596   9.548  16.101 -0.3736  0.3195  0.2478
25287W        W42134  17.444  10.228  15.542  0.2679 -0.0401  0.1111
25288W        W42135   7.566   3.208  16.348  0.3041 -0.1307  0.5732
25289W        W42136   1.322   0.931   0.126  0.1574  0.1061 -0.5056
25290W        W42137   4.527   8.263  13.076  0.0977 -0.3703 -0.0170
25291W        W42138   4.717   0.004  13.290  0.0557  0.2320 -0.0469
25292W        W42139   7.756  11.393   1.743  0.0447  0.0761 -0.1551
25293W        W42140   8.318   0.085   0.579  0.3470  0.1358  0.3003
25294W        W42141  11.365   8.798   3.016  0.2238 -0.3127 -0.1436
25295W        W42142  17.370   4.479   1.600  0.0890 -0.0862 -0.1537
25296W        W42143   5.402   9.935   5.830 -0.0404  0.0123  0.0871
25297W        W42144   2.585  16.533   0.581 -0.0239  0.4270 -0.0360
25298W        W42145   4.731   2.168   5.090 -0.1977 -0.1668  0.1921
25299W        W42146  11.016  14.316  14.458 -0.0680  0.2377 -0.4058
25300W        W42147   0.408  14.470   2.202  0.0407 -0.0194 -0.1327
25301W        W42148   7.873   1.979   0.054 -0.0586  0.1327 -0.2134
25302W        W42149  13.351  11.586  14.973 -0.2032  0.0579  0.1128
25303W        W42150   4.113   5.909   2.390 -0.0732  0.0199  0.1101
25304W        W42151   3.481   1.289  12.286 -0.0101 -0.1865 -0.1022
25305W        W42152   8.185   3.421   1.494 -0.1030 -0.1307 -0.0042
25306W        W42153   5.379  16.933  15.891  0.0090 -0.2213 -0.0846
25307W        W42154   1.514   8.675  12.048  0.0508  0.0154 -0.1355
25308W        W42155   3.356   2.261  12.045 -0.1972  0.2685  0.2910
25309W        W42156   1.295  17.595   2.927  0.2016  0.1400 -0.0362
25310W        W42157  15.712   7.110   1.606 -0.1180  0.0679 -0.0065
25311W        W42158  11.470  12.618   1.648  0.0068 -0.0337  0.0420
25312W        W42159  14.479   6.670  15.470 -0.0631  0.2256  0.4661
25313W        W42160  17.710  14.327   4.728  0.0979  0.2363  0.0448
25314W        W42161   7.980  15.130   3.083  0.1096  0.2553  0.0049
25315W        W42162  18.119   5.357   5.747  0.0757  0.0470  0.1664
25316W        W42163   2.721   6.980  15.870  0.1560  0.1465  0.0014
25317W        W42164   5.868   1.521   3.225  0.0120 -0.1351 -0.4312
25318W        W42165   1.732  11.499  15.486 -0.1854  0.1260 -0.2012
25319W        W42166  14.082   1.283   0.616 -0.0740  0.0469  0.2432
25320W        W42167   1.385   4.280  14.374 -0.0314 -0.1602 -0.0400
25321W        W42168   5.400   1.709   3.406  0.1588 -0.2292 -0.1695
25322W        W42169  15.001   5.066   0.464 -0.0261  0.0791 -0.0066
25323W        W42170   7.376   8.609  15.938 -0.1821 -0.2541  0.0159
25324W        W42171   7.035  10.367   0.899 -0.0193  0.0022 -0.1519
25325W        W42172  17.022   2.712  12.608  0.2674  0.1281  0.0394
25326W        W42173   1.093  15.904  13.383  0.0934  0.2214 -0.0584
25327W        W42174   8.698   6.407   4.450 -0.1092  0.1403  0.2251
25328W        W42175   9.221  15.470  15.446 -0.1149 -0.1441  0.2373
25329W        W42176   0.099   1.226  11.062 -0.1288 -0.0048 -0.2368
25330W        W42177   4.564  13.833  13.827 -0.3307 -0.1270  0.3985
25331W        W42178   3.381  16.404   3.068 -0.3633 -0.1151  0.2036
25332W        W42179  14.263   6.075  15.417 -0.0057  0.2881  0.0154
25333W        W42180   5.829   3.574   3.162 -0.3370 -0.3463 -0.0599
25334W        W42181   5.253   6.168   2.061 -0.2423 -0.5563  0.2332
25335W        W42182  17.507   3.223   4.295 -0.1126 -0.2953 -0.2329
25336W        W42183   9.665   9.413  13.800 -0.0201 -0.1148 -0.2861
25337W        W42184  11.687   6.404   0.751 -0.2172  0.0080 -0.1005
25338W        W42185   3.607  15.992  11.804 -0.2122 -0.5195  0.0312
25339W        W42186  15.055  16.342  12.248  0.0087  0.3016  0.1002
25340W        W42187   2.562   6.151  11.953 -0.1559  0.1144  0.1203
25341W        W42188   9.260  14.086   4.353 -0.2525  0.2584  0.1438
25342W        W42189   5.776   4.848  12.207 -0.0167 -0.0596 -0.0303
25343W        W42190  14.581   5.869   0.658  0.1249  0.3932 -0.0529
25344W        W42191   8.136  14.270   2.963 -0.1273  0.1156  0.1195
25345W        W42192   1.815  10.561  15.137 -0.2448  0.1704  0.1276
25346W        W42193   9.322  17.672   3.397  0.1916 -0.0703 -0.1600
25347W        W42194  16.552   3.414  12.895  0.1456  0.1408  0.0121
25348W        W42195  16.394   7.531   5.347  0.1076  0.0609  0.2186
25349W        W42196  13.896  16.839   3.504 -0.0830 -0.1653 -0.0346
25350W        W42197   5.799   3.060  13.461  0.1659  0.1605  0.1587
25351W        W42198  13.120  16.517  13.122  0.3222  0.0035  0.2265
25352W        W42199  13.018  16.558  15.623 -0.1170 -0.2193  0.2963
25353W        W42200   6.469  12.376   3.226  0.1511 -0.1155 -0.0377
25354W        W42201  18.028  10.458   4.923  0.1080 -0.2143  0.0462
25355W        W42202   3.193  12.168  12.051  0.4030  0.0532 -0.1666
25356W        W42203   5.216  10.772   3.502 -0.0777 -0.0894 -0.2018
25357W        W42204   0.068   3.638   3.945 -0.0453 -0.2358  0.2005
25358W        W42205   7.450   6.437   3.128  0.2828 -0.0325  0.0573
25359W        W42206   6.713   6.916  14.143  0.1781 -0.0069 -0.0247
25360W        W42207  13.288   4.618   3.505  0.1427  0.3647  0.0022
25361W        W42208  14.372   5.035  11.897  0.2754  0.1537 -0.1000
25362W        W42209   4.992  14.008   1.906  0.1620  0.1537 -0.2230
25363W        W42210  10.375   9.369  14.958  0.3629 -0.0719 -0.3308
25364W        W42211   3.232   7.780   2.549  0.0001 -0.0640  0.0815
25365W        W42212   4.917  17.582  12.065  0.3813 -0.2240 -0.1269
25366W        W42213  13.847  15.824  13.643  0.2612 -0.0396 -0.2039
25367W        W42214  14.080   5.299  13.770  0.3475 -0.1910 -0.1741
25368W        W42215   8.498   0.258   0.139 -0.3793  0.0326  0.2080
25369W        W42216  10.616  14.718  16.069  0.0006 -0.1912 -0.3012
25370W        W42217   5.388  13.887   0.887 -0.1124 -0.5338  0.0196
25371W        W42218   1.638   5.829  13.213  0.0525  0.0403  0.2218
25372W        W42219   9.530   8.932   0.587 -0.2137  0.0532 -0.2482
25373W        W42220  10.498   9.920  13.935  0.3423 -0.0548 -0.0760
25374W        W42221   0.081   7.515   0.397  0.1475 -0.0103 -0.0905
25375W        W42222  17.164   5.618  14.988  0.0681  0.1247  0.1525
25376W        W42223   5.198   6.720   1.754 -0.1331  0.0702  0.1342
25377W        W42224   5.156   1.078  13.099 -0.0066  0.2021  0.1754
25378W        W42225   8.227   7.682  14.416 -0.0974  0.1909 -0.1556
25379W        W42226   8.530  14.959  15.331  0.0424  0.1109  0.0046
25380W        W42227  11.312  10.131  12.048  0.0019 -0.0382  0.1023
25381W        W42228   0.846  11.697   6.063 -0.1214 -0.0016 -0.1318
25382W        W42229  16.370   2.787   1.541  0.2666  0.2100  0.4989
25383W        W42230  11.355  13.856   2.144 -0.0833  0.1710 -0.2320
25384W        W42231  17.092   2.161   4.423 -0.1666  0.1437  0.2872
25385W        W42232  16.002   9.101   4.695 -0.0134  0.0688 -0.0574
25386W        W42233   0.991  16.458   2.274 -0.0477  0.0927 -0.3238
25387W        W42234  16.034   4.882  11.628  0.1201  0.1038 -0.4471
25388W        W42235   2.187  11.760  13.125  0.0690  0.1910 -0.2923
25389W        W42236  13.494   5.459   0.844  0.0842 -0.4725 -0.0296
25390W        W42237   4.549  13.317   2.864  0.1271  0.0982 -0.1411
25391W        W42238   2.050   0.938   1.665 -0.0903  0.0883  0.1277
25392W        W42239   9.068   2.345   4.791 -0.0515 -0.0738 -0.3837
25393W        W42240  10.065   0.462   0.418  0.1473  0.0598  0.1076
25394W        W42241   0.303   8.291  13.223 -0.2684 -0.2321  0.1138
25395W        W42242   5.785   4.671  11.554 -0.2241 -0.3331 -0.0143
25396W        W42243  12.566   0.118  13.401 -0.0350 -0.2533  0.1582
25397W        W42244  13.595  17.150   0.779 -0.0583  0.1188 -0.3459
25398W        W42245   8.872   7.787   1.684 -0.1201  0.0644  0.2550
25399W        W42246  14.063  13.516  13.426 -0.2703  0.0201  0.0954
25400W        W42247   2.686   6.438   1.111  0.1675 -0.0811 -0.2371
25401W        W42248   0.201   6.073  13.123 -0.0678 -0.1087 -0.5076
25402W        W42249  13.506  13.548   0.874 -0.1286  0.3566 -0.0310
25403W        W42250  15.613   3.370  13.389  0.2403  0.0502 -0.0680
25404W        W42251   7.733  13.526  15.400  0.1536  0.2119 -0.2004
25405W        W42252   1.901  12.809   3.344  0.0948 -0.1754 -0.0717
25406W        W42253   3.334  15.766   6.448  0.0378 -0.1405 -0.0668
25407W        W42254   8.225   6.278   5.204 -0.0295 -0.0299 -0.1526
25408W        W42255   8.830   9.067  11.916  0.1791 -0.1018 -0.3621
25409W        W42256  17.822   7.343   2.024 -0.0834  0.0681 -0.1516
25410W        W42257   8.510  14.252  13.697 -0.2870 -0.1645 -0.1834
25411W        W42258  16.622  11.489  12.774 -0.0430  0.0684  0.0338
25412W        W42259   7.819  15.836   4.881  0.0411 -0.1764 -0.2392
25413W        W42260  10.820   3.074  13.575  0.0050  0.0598  0.0870
25414W        W42261   1.501   2.607  15.430  0.0802  0.2342 -0.4471
25415W        W42262  12.926  12.257   2.108 -0.1406 -0.2094 -0.2235
25416W        W42263  12.805  16.557  14.180 -0.1226  0.2903  0.0860
25417W        W42264   7.610   3.694   4.513 -0.1655  0.2267 -0.2741
25418W        W42265   9.896  10.914   4.893  0.0139 -0.2156 -0.0400
25419W        W42266   1.991   8.165   3.099 -0.2830 -0.1509  0.0723
25420W        W42267  18.018  14.540  15.705  0.0328  0.1087 -0.1622
25421W        W42268   1.104  11.871   1.613 -0.1154 -0.0077  0.3702
25422W        W42269  17.281   8.492   1.086 -0.1124  0.1890 -0.1808
25423W        W42270  16.351   5.921   1.645  0.0920 -0.0731 -0.1677
25424W        W42271   8.863   4.262   3.721  0.0112 -0.1572 -0.3744
25425W        W42272   2.092   0.203  16.007  0.0864  0.3439 -0.1191
25426W        W42273   5.675   3.201   0.667  0.1378  0.1219  0.3203
25427W        W42274   3.884   5.900   1.869 -0.0030  0.0547 -0.0113
25428W        W42275   8.901   1.303  12.945 -0.1962 -0.2115 -0.0524
25429W        W42276   7.003  14.945  14.245 -0.1203  0.0681  0.0773
25430W        W42277   0.514   6.226  12.263 -0.1225 -0.1316  0.2509
25431W        W42278   6.264   1.799  15.922 -0.1339  0.3497  0.2229
25432W        W42279  13.697   4.443  11.619 -0.2687  0.0290  0.0379
25433W        W42280  13.140  16.759   2.326 -0.1671  0.0052 -0.2154
25434W        W42281  11.377   0.893   0.471  0.0312 -0.0384  0.0596
25435W        W42282  16.425   7.127  13.520  0.0743  0.0949 -0.2960
25436W        W42283   9.802   4.702  13.885 -0.0455  0.0238  0.0805
25437W        W42284   4.078   8.861   3.069  0.0068  0.0492 -0.0911
25438W        W42285  16.514  12.376  11.990  0.1378  0.1230 -0.0400
25439W        W42286  14.407   2.844   4.383  0.0267 -0.1878 -0.0017
25440W        W42287   8.369  12.434   1.360 -0.3586  0.0534  0.0256
25441W        W42288   8.950   4.566   1.323  0.0863  0.1859  0.1524
25442W        W42289  14.629  13.694   5.264 -0.1958 -0.0435  0.0320
25443W        W42290   0.645  11.327   2.904  0.1812 -0.0788  0.1508
25444W        W42291   8.726   5.662   1.392 -0.1500  0.1300  0.0255
25445W        W42292   5.407   5.037   5.768 -0.0559 -0.1355 -0.0927
25446W        W42293  15.424   9.056   3.428 -0.1651  0.0421 -0.3350
25447W        W42294  15.141   1.028  15.330  0.1919  0.1074  0.2136
25448W        W42295  13.589  10.595   0.785  0.2448  0.2149 -0.0425
25449W        W42296  14.781  12.554  11.308  0.1666 -0.1436 -0.3456
25450W        W42297  13.045  10.859  15.834 -0.1951 -0.3745 -0.5274
25451W        W42298  16.693   3.516   1.745  0.0466 -0.5026  0.1013
25452W        W42299   5.989  10.311   0.875 -0.2314 -0.0396  0.3919
25453W        W42300  16.192   5.430   2.806  0.1950 -0.0120  0.1065
25454W        W42301  12.263   3.013   1.261  0.0787  0.2620 -0.0346
25455W        W42302   8.295   6.663   0.817  0.1728  0.1635  0.1620
25456W        W42303  17.435  14.509   1.914 -0.0534 -0.3476 -0.0721
25457W        W42304  14.936   2.069  11.710 -0.0592  0.0021  0.0393
25458W        W42305   3.381  14.735   1.096  0.0150  0.3099 -0.0301
25459W        W42306  13.231  18.001  10.459  0.1237  0.6209 -0.3548
25460W        W42307   4.802   6.789  12.626  0.4243 -0.2256 -0.0319
25461W        W42308   6.698   5.190   3.339  0.0277 -0.1754 -0.1964
25462W        W42309   3.024   1.440   0.627  0.0259 -0.0903 -0.0950
25463W        W42310   9.078  17.837  14.665  0.1366 -0.2141 -0.0145
25464W        W42311   3.173   9.963   4.681 -0.2478  0.3693 -0.2105
25465W        W42312  12.082  16.055  14.892 -0.4103 -0.0042 -0.1852
25466W        W42313  18.143   4.856   0.979  0.1234  0.1270  0.2986
25467W        W42314  12.870  12.908  13.436  0.1938  0.4284 -0.0367
25468W        W42315   2.060   5.968  13.590 -0.0669  0.1445 -0.1891
25469W        W42316   1.702  11.909   4.898  0.0029 -0.0285 -0.3141
25470W        W42317  13.059  13.984  15.460  0.0121  0.0466 -0.0764
25471W        W42318   5.606  15.766   4.401  0.0905 -0.2414 -0.1170
25472W        W42319   0.488   1.687  15.118 -0.2140 -0.1031  0.2105
25473W        W42320  14.223   5.876   1.845  0.0555  0.0076 -0.0276
25474W        W42321   0.415  18.154  14.414 -0.0265 -0.1980  0.1186
25475W        W42322   7.698   7.305  12.751 -0.2114 -0.0185 -0.3392
25476W        W42323   1.970   3.604  14.886 -0.1945 -0.0625  0.1106
25477W        W42324   7.124   0.642   0.313  0.2524 -0.2715 -0.2764
25478W        W42325   0.345   8.451  15.831  0.2450 -0.2562  0.2443
25479W        W42326  10.648  15.562  15.121 -0.2275 -0.1448 -0.0136
25480W        W42327   3.385   5.427  12.725  0.1067  0.0995  0.0298
25481W        W42328   5.836  15.908   2.373 -0.2537 -0.0032  0.0403
25482W        W42329   7.906  13.310   2.803 -0.0717  0.3183  0.1418
25483W        W42330   3.003  17.226  15.944  0.3621 -0.0311  0.0492
25484W        W42331   4.322  13.440  14.110  0.2551 -0.0345 -0.0865
25485W        W42332   9.025  15.106  14.656 -0.0574  0.1347  0.3125
25486W        W42333  10.780  15.455   5.340  0.1243  0.4500  0.4386
25487W        W42334   0.156   3.739  12.364  0.0125 -0.0292 -0.1442
25488W        W42335  14.150  10.172   5.566 -0.1703 -0.1791  0.0899
25489W        W42336   2.191  16.667  11.698  0.1797  0.1805 -0.0831
25490W        W42337  11.170   3.458   3.967  0.0288  0.1715 -0.0112
25491W        W42338   7.794   2.429  16.424 -0.2518 -0.1216  0.0024
25492W        W42339  16.185   2.729   5.075  0.1949 -0.0017 -0.0465
25493W        W42340   0.324  10.376   5.116 -0.1755 -0.1956 -0.2941
25494W        W42341   2.658   2.911   3.616  0.1669  0.1565 -0.1367
25495W        W42342   6.022  11.015   5.023  0.2206  0.0641  0.0903
25496W        W42343  11.790   0.074   1.491 -0.2555  0.0708  0.3197
25497W        W42344   9.517  17.681   1.921 -0.1304 -0.1081  0.0906
25498W        W42345   7.724  14.494   5.754 -0.1141  0.2908 -0.0887
25499W        W42346   8.825   7.916   1.008  0.1348 -0.1527 -0.2646
25500W        W42347   7.322  16.969  16.120 -0.0444  0.1806  0.0025
25501W        W42348   9.446  15.694   2.243  0.2645  0.1157  0.1450
25502W        W42349   9.257   6.579  12.676  0.0935  0.1908 -0.3092
25503W        W42350  17.089   9.335   0.909 -0.0955 -0.1352  0.0838
25504W        W42351   4.174  10.040   4.203  0.2308 -0.0904 -0.1022
25505W        W42352  15.160  13.994   5.001 -0.2645  0.0476  0.0691
25506W        W42353   2.101  17.859  11.684  0.0594  0.0923 -0.4236
25507W        W42354  15.216  12.511  15.719 -0.0682  0.0663  0.0362
25508W        W42355   5.642  11.508   5.822 -0.3322 -0.2691  0.2368
25509W        W42356   2.634   8.450   4.183  0.0403  0.0807 -0.1759
25510W        W42357   0.033  15.204  11.958  0.0120 -0.0785  0.0341
25511W        W42358   0.275   1.583  10.690 -0.0179 -0.2294 -0.1852
25512W        W42359  16.055   1.074   5.236 -0.0731 -0.2620  0.3932
25513W        W42360   6.277   2.740  12.897  0.0540 -0.0544  0.1279
25514W        W42361   4.058  17.127   3.398 -0.2082  0.1711  0.0116
25515W        W42362   9.342  15.126  15.102  0.0961  0.1064  0.2479
25516W        W42363  17.886   9.307   1.354  0.3562 -0.4700  0.0727
25517W        W42364   5.107   0.064   2.410 -0.0837 -0.3110  0.3942
25518W        W42365  13.680   8.068   0.858  0.1401  0.0378 -0.1419
25519W        W42366  10.837  17.808  12.253 -0.3309  0.2009 -0.1134
25520W        W42367   9.947   4.222  10.783  0.0917  0.0784 -0.1109
25521W        W42368   6.085  14.981  13.214 -0.0027  0.1693  0.2211
25522W        W42369  16.256  15.289  15.327  0.2260  0.2031 -0.0791
25523W        W42370  15.025   8.370   1.994  0.1952 -0.0315  0.0360
25524W        W42371  13.058   9.502  15.684 -0.2613  0.1334 -0.2024
25525W        W42372   1.298  14.762   5.608  0.1258  0.4642 -0.1484
25526W        W42373  12.446  14.291  12.201  0.1157  0.1688 -0.0644
25527W        W42374   3.093   4.183  13.625 -0.0049 -0.0499  0.1442
25528W        W42375   0.946   5.730   6.133  0.0973 -0.2226 -0.1032
25529W        W42376   2.254   4.615   3.863  0.0053 -0.1286  0.2879
25530W        W42377   9.706   0.318   4.977 -0.0721 -0.0519  0.0352
25531W        W42378   3.971   4.985   4.639 -0.2258  0.1326  0.3557
25532W        W42379  12.692   7.680   3.215 -0.0281  0.0308  0.1121
25533W        W42380  16.932   9.331   1.591 -0.1738  0.0598 -0.0489
25534W        W42381   0.545  14.218   3.924 -0.2030  0.1264 -0.2843
25535W        W42382   9.934  12.627  15.328 -0.1329 -0.0105 -0.0606
25536W        W42383  13.625   1.551   4.721  0.2920  0.3200 -0.0462
25537W        W42384   8.707   2.690   4.531 -0.1660 -0.0354  0.1146
25538W        W42385   2.308  10.297   4.272 -0.2592  0.5305 -0.1597
25539W        W42386   8.180   3.262   5.873 -0.0454 -0.0271  0.1868
25540W        W42387  14.066   8.969  15.538  0.1676  0.2051 -0.1479
25541W        W42388  16.956   6.447   5.320  0.2821 -0.0602  0.3235
25542W        W42389   0.391  13.692  15.699  0.2475  0.2906  0.2450
25543W        W42390  13.112  16.772   3.956 -0.1417  0.2429 -0.3558
25544W        W42391   7.966  13.469   3.289  0.0693  0.0954 -0.0167
25545W        W42392   9.497   2.648  11.737 -0.2617 -0.1173 -0.0090
25546W        W42393   7.945  17.272   0.594  0.0753 -0.0393  0.2173
25547W        W42394   1.829   0.935   4.525 -0.1281  0.1310 -0.3439
25548W        W42395  11.782  16.969   3.078  0.0221  0.0644  0.0877
25549W        W42396   2.576  15.493   2.677  0.2900  0.2446  0.1176
25550W        W42397  17.444  17.032   0.951  0.0325  0.2122 -0.0920
25551W        W42398  16.995   7.957  16.247  0.1339  0.0988 -0.3709
25552W        W42399   6.881   2.391   1.008  0.1238  0.3474  0.1118
25553W        W42400   9.378  15.677   4.980 -0.2579 -0.0051  0.1523
25554W        W42401  17.732   5.470  12.657  0.0637  0.0615  0.3514
25555W        W42402   7.764   8.167  10.458  0.0974 -0.3833 -0.0559
25556W        W42403   8.340   2.862   1.497  0.1376  0.3587  0.1982
25557W        W42404  14.651   6.633   3.768  0.0946  0.4369  0.2089
25558W        W42405   6.751   2.838  15.929  0.0696  0.3129  0.1745
25559W        W42406   6.049  16.030  13.102 -0.0596 -0.1657 -0.1294
25560W        W42407  14.052   1.458  14.159 -0.1386 -0.1338 -0.5131
25561W        W42408   2.467  14.515  13.652  0.0349  0.0079 -0.1655
25562W        W42409   4.272  13.037  15.499 -0.1037 -0.0571  0.0636
25563W        W42410   3.749   1.132  14.278  0.1770 -0.2011  0.0936
25564W        W42411   7.516   4.813   3.000  0.0837 -0.0915 -0.1215
25565W        W42412   1.016   3.980  13.413  0.1883 -0.2291  0.3660
25566W        W42413   8.031  10.932  16.425  0.1547  0.0382  0.0757
25567W        W42414   2.055   6.478  13.557  0.3938  0.1792  0.2735
25568W        W42415   7.253  10.939   1.078  0.1142  0.0113 -0.1541
25569W        W42416  15.042   3.432   1.898 -0.1000  0.0808  0.2744
25570W        W42417   7.039  10.253  11.903  0.0831 -0.1455  0.3922
25571W        W42418   9.283   8.631   0.914 -0.1783 -0.2447  0.0278
25572W        W42419  17.368  17.592  15.214  0.0686 -0.1761 -0.3150
25573W        W42420  11.123  14.349   2.054 -0.0347 -0.0531  0.2565
25574W        W42421   5.439   7.248  14.319 -0.0642  0.0795 -0.1518
25575W        W42422   6.823  16.029  15.941  0.1014 -0.2292 -0.0236
25576W        W42423   1.665  17.877   3.047  0.4158  0.2933  0.1517
25577W        W42424   3.586   8.945  14.262  0.2770  0.0263 -0.1404
25578W        W42425  14.938  12.051  15.868  0.1758 -0.2086 -0.0895
25579W        W42426   9.427   1.965   4.800  0.1223  0.0918  0.1006
25580W        W42427   1.248   4.925   3.718  0.0133  0.2940 -0.1955
25581W        W42428   4.112   4.571  16.440  0.0153  0.0109 -0.1987
25582W        W42429   0.545   3.702  13.854 -0.1694 -0.4915  0.0112
25583W        W42430  10.253  17.388   0.018  0.0117 -0.1119 -0.1086
25584W        W42431  13.406   4.106  14.036 -0.1335  0.1516  0.0896
25585W        W42432  10.681   9.233  15.413  0.3429 -0.2330  0.1346
25586W        W42433   2.914   0.553  11.886 -0.1947  0.2105 -0.0526
25587W        W42434  15.748   8.449   1.313  0.0130  0.1712 -0.2362
25588W        W42435  11.264  17.607  12.527  0.1105  0.2497  0.0918
25589W        W42436   8.397  16.386  12.538 -0.2883 -0.0133  0.0833
25590W        W42437   5.087   3.455   4.165  0.2155  0.0065 -0.1660
25591W        W42438   3.496  13.191  13.593 -0.1044  0.0816  0.0176
25592W        W42439  16.955   8.488  14.510 -0.4722 -0.3092 -0.0165
25593W        W42440  16.540  14.764   5.712 -0.3612 -0.0319 -0.0679
25594W        W42441  16.601   0.946  11.797 -0.2281  0.0770 -0.1750
25595W        W42442   4.516  16.200   5.138  0.4046  0.0880 -0.1331
25596W        W42443   0.205   9.488   1.563 -0.1778 -0.2824 -0.0103
25597W        W42444  16.939   7.388  15.660  0.5659  0.4728  0.4339
25598W        W42445   9.732   2.284  14.361 -0.3173 -0.3348 -0.2419
25599W        W42446  14.325   9.139   3.463 -0.0556  0.0928  0.2541
25600W        W42447   8.085   8.201   4.597 -0.1553 -0.1103 -0.0392
25601W        W42448  12.623  16.827  13.336  0.3770  0.0712  0.1169
25602W        W42449  17.967  12.305   0.834 -0.0338  0.0566 -0.1013
25603W        W42450  15.247   6.498   1.891 -0.2286 -0.2463  0.0519
25604W        W42451  16.423  15.766   4.043 -0.3040  0.2834  0.0991
25605W        W42452  17.893  11.234   3.023 -0.4039 -0.1534  0.0482
25606W        W42453   2.425  18.094   4.255 -0.0733 -0.2720  0.2924
25607W        W42454   6.393   7.335  14.011  0.0449 -0.1460 -0.2784
25608W        W42455  17.996   8.440   3.778 -0.0861 -0.2796  0.1083
25609W        W42456   0.655   7.533   0.272 -0.3205  0.1014  0.0667
25610W        W42457  14.771   7.090  12.656 -0.4494 -0.1670  0.1541
25611W        W42458  17.110  13.011   3.712 -0.1947  0.1164 -0.0321
25612W        W42459  10.901  11.535  15.616 -0.2185  0.1645 -0.2562
25613W        W42460  15.448   3.548  13.856 -0.0630  0.1629  0.2462
25614W        W42461   1.322  13.998  16.013 -0.4628  0.0850 -0.1689
25615W        W42462   0.464  17.117   2.660  0.0065  0.2911  0.0277
25616W        W42463  16.905   9.712   2.579  0.0461 -0.0830  0.3369
25617W        W42464  17.840  11.475   1.203 -0.0554 -0.0015  0.0921
25618W        W42465  13.068  16.526  14.885  0.0098 -0.0796 -0.0454
25619W        W42466  10.074   4.069  14.492 -0.1740  0.1557  0.2144
25620W        W42467  17.324   8.431   3.840 -0.0154 -0.0693 -0.1942
25621W        W42468  13.922  16.911   0.397  0.2293 -0.3232  0.0010
25622W        W42469   1.403  15.542  12.570  0.0453 -0.2599 -0.1485
25623W        W42470  15.120   6.776  12.398 -0.1493  0.0480  0.0588
25624W        W42471   3.957  11.360  16.366  0.0934 -0.0931 -0.1304
25625W        W42472   2.199  15.017   4.843  0.2080  0.0074  0.0205
25626W        W42473   2.472  16.858   4.735 -0.2075  0.2064  0.3517
25627W        W42474  13.396   0.360   3.995 -0.0259 -0.0832  0.2886
25628W        W42475   3.572   5.657  12.113 -0.2389 -0.2234  0.1969
25629W        W42476   4.972  11.604   0.042  0.0560 -0.1681  0.3133
25630W        W42477   3.507   8.097   2.204  0.1661 -0.0172  0.1564
25631W        W42478   1.989  15.039  13.745 -0.1951  0.0261  0.1461
25632W        W42479   2.041  17.279  15.790  0.3679  0.3190 -0.3210
25633W        W42480   7.939   6.305  15.451  0.1377  0.0367 -0.0309
25634W        W42481  16.362  13.952   5.206 -0.5062 -0.0248 -0.3413
25635W        W42482  10.773   6.352  15.322 -0.1652  0.0891  0.1791
25636W        W42483   8.839  10.786  11.592 -0.0176 -0.0742  0.3647
25637W        W42484   8.005  12.375   1.708  0.0053 -0.0879 -0.2762
25638W        W42485  15.242   9.311  13.408 -0.0443  0.3354  0.3553
25639W        W42486   4.368  12.588   5.095 -0.1767  0.3065 -0.2157
25640W        W42487   7.340  17.416   0.071  0.0682  0.1345 -0.0472
25641W        W42488  17.738  14.902   5.252  0.2340 -0.0263  0.0091
25642W        W42489  14.706   3.282  11.386  0.1629  0.0543 -0.0915
25643W        W42490  17.692   8.808   1.196  0.2451  0.0433 -0.3869
25644W        W42491  16.112  12.755  16.316 -0.0483  0.0663 -0.0244
25645W        W42492   3.126   3.829  16.419 -0.0490 -0.2745 -0.0247
25646W        W42493   9.304  12.986   0.425 -0.3390 -0.1599  0.2073
25647W        W42494  13.807   4.414  14.281 -0.0438  0.1360  0.0721
25648W        W42495  16.957  18.004  15.759  0.1390  0.2597  0.2119
25649W        W42496   1.595  11.729   6.500 -0.0208  0.0525  0.1842
25650W        W42497   8.215   7.136   0.686  0.0756 -0.3563 -0.1281
25651W        W42498   3.047   2.031   3.697  0.0450 -0.0379 -0.1356
25652W        W42499  12.483   9.857   3.283 -0.2484 -0.0761 -0.1843
25653W        W42500  13.937   9.226  14.665 -0.1480 -0.1002  0.1540
25654W        W42501   9.171   9.073   1.099 -0.0740 -0.1758 -0.0974
25655W        W42502   4.101  16.622  14.542 -0.0359 -0.2306 -0.2858
25656W        W42503   8.691   1.406  15.443  0.1164  0.0058  0.2375
25657W        W42504   7.350   0.056   0.683 -0.4272 -0.0085 -0.0997
25658W        W42505  17.711   8.008   3.519 -0.1324 -0.0096  0.2219
25659W        W42506  13.949   0.154   5.747 -0.3711  0.0861 -0.1219
25660W        W42507   3.346   1.592  13.122 -0.3894  0.0727 -0.4462
25661W        W42508  15.103  18.144   3.262 -0.0030 -0.0761  0.0586
25662W        W42509  11.177   5.304  16.281 -0.0567 -0.0197  0.2796
25663W        W42510   4.595  12.077   2.292  0.1291  0.1620  0.3218
25664W        W42511   1.349   1.103   4.499 -0.0414 -0.2262 -0.0940
25665W        W42512   4.157   2.585   3.647  0.0300 -0.1472  0.0230
25666W        W42513   3.781  10.192   5.650 -0.1039  0.3554 -0.1621
25667W        W42514   3.742  10.154   6.188 -0.1861 -0.1903  0.3214
25668W        W42515  13.476   7.067   3.520 -0.0545  0.1164 -0.1480
25669W        W42516   3.620   7.441   2.361 -0.2828  0.1114 -0.2270
25670W        W42517  18.119   9.014   3.929  0.0106 -0.2283 -0.3609
25671W        W42518   8.025   4.969  15.221  0.1269 -0.1252  0.2170
25672W        W42519   0.438   1.582  11.307  0.0575  0.1469 -0.2389
25673W        W42520   0.979  14.339  15.885  0.0692  0.1723  0.2828
25674W        W42521  17.602   7.605  15.253 -0.1999 -0.1674 -0.0368
25675W        W42522   7.836   0.395  14.545 -0.2494  0.0475  0.1680
25676W        W42523  12.513  11.027  16.550  0.1374 -0.1774  0.1620
25677W        W42524  17.887  14.377  14.682  0.3230  0.0202  0.0779
25678W        W42525  14.921  16.192  10.339  0.1912  0.0215  0.2365
25679W        W42526   5.063  13.798  13.710  0.1570 -0.2494 -0.5444
25680W        W42527   4.988  10.233   3.283  0.0055  0.2621 -0.3692
25681W        W42528   4.179  13.516   1.957 -0.1795  0.1288 -0.1333
25682W        W42529   8.890  10.349  14.547 -0.1512 -0.3592  0.0390
25683W        W42530   5.407  15.252   1.975  0.0357  0.0608 -0.0890
25684W        W42531   5.002   5.886   2.872  0.2771  0.2006 -0.0535
25685W        W42532  11.234   1.172   4.957 -0.0950  0.2893 -0.0423
25686W        W42533   1.299   3.279  13.774  0.1391  0.1387 -0.4528
25687W        W42534  12.309   6.746   2.289  0.1566  0.1546  0.2001
25688W        W42535   8.247  11.311  15.271  0.0482 -0.2255  0.2729
25689W        W42536  16.550  17.527   0.141 -0.1424  0.1968 -0.0507
25690W        W42537   4.802  12.421   3.197  0.2564  0.0659  0.1053
25691W        W42538   3.591   8.774   2.641 -0.2008  0.1740  0.0065
25692W        W42539  11.995  11.620   0.719  0.2810  0.0612 -0.3493
25693W        W42540  12.408  10.619  11.551  0.3666  0.2057 -0.1150
25694W        W42541  12.350   0.119   1.098 -0.1894  0.0286  0.0869
25695W        W42542  13.528  13.329   4.873  0.2900  0.0001 -0.1236
25696W        W42543  14.986  10.498  15.774 -0.2355  0.1591  0.0723
25697W        W42544  14.509  12.716   4.425 -0.2235  0.1009  0.2285
25698W        W42545  11.016   3.427   3.471 -0.0239 -0.0506  0.1780
25699W        W42546   0.512   5.206  14.021  0.1745 -0.0320 -0.0523
25700W        W42547   7.544  10.509   5.942  0.1124 -0.2500  0.0056
25701W        W42548   2.085   7.264  14.146 -0.2216  0.0715  0.0869
25702W        W42549   4.584  16.119   4.326 -0.2190  0.0475  0.3917
25703W        W42550  13.842   4.125   2.855 -0.0560 -0.1709 -0.3540
25704W        W42551   9.982   9.418   2.429 -0.1703 -0.0032  0.0217
25705W        W42552   4.366   4.921   3.468  0.3037  0.0217 -0.0796
25706W        W42553  11.913   1.833   5.707  0.0137 -0.1866 -0.3374
25707W        W42554   7.831  17.817  11.692 -0.0045 -0.1813  0.1652
25708W        W42555   0.433  17.964   5.905 -0.0541  0.2484 -0.1910
25709W        W42556   6.753  16.336   5.648 -0.3400  0.0753  0.2395
25710W        W42557   9.749   4.139   0.238 -0.0423 -0.0124  0.0200
25711W        W42558  13.943   8.637   5.156 -0.0933 -0.1813  0.1028
25712W        W42559   9.007   0.457   6.580  0.1266  0.1955  0.0138
25713W        W42560  11.577   5.209  12.164  0.0891  0.5291  0.1210
25714W        W42561  12.263  16.394  14.347  0.1337 -0.1704  0.1001
25715W        W42562  13.352   0.636   3.066 -0.2444  0.0751  0.2335
25716W        W42563   4.927   2.043  14.253  0.0467 -0.0389  0.0808
25717W        W42564  17.658  10.425   5.265  0.0572  0.0311  0.3204
25718W        W42565   3.970  16.828   1.223 -0.0049  0.0866 -0.1937
25719W        W42566  11.967  10.233   3.460  0.0702 -0.2463  0.0352
25720W        W42567  16.239   2.439  12.920 -0.3121  0.2429  0.0950
25721W        W42568   9.853  10.583   2.284 -0.0356 -0.2049  0.2213
25722W        W42569  16.760   3.360   3.876  0.1946 -0.2156 -0.0277
25723W        W42570   3.471   6.563  15.332 -0.1847 -0.2208 -0.0487
25724W        W42571   9.310   5.871  11.474  0.1751  0.1082 -0.0544
25725W        W42572   5.840   6.858   1.622  0.0606 -0.3619  0.2450
25726W        W42573   4.735   7.639  15.878  0.1149 -0.0573 -0.2538
25727W        W42574   7.713   8.660   1.117  0.1699 -0.0432 -0.0039
25728W        W42575   5.903  16.878  13.590 -0.1285  0.2147  0.1394
25729W        W42576   7.187  14.839  11.990  0.1019  0.1832  0.2121
25730W        W42577  17.794   5.169   1.097 -0.0300 -0.2077  0.0671
25731W        W42578  15.487   3.978  12.233  0.1420  0.0878  0.0084
25732W        W42579   1.071   0.819  12.816 -0.2261  0.0454 -0.1083
25733W        W42580   3.540  16.891  13.894  0.1100  0.0825  0.0631
25734W        W42581  16.730  17.453  14.510  0.0476  0.1645 -0.0268
25735W        W42582   9.864   2.580  13.565  0.0101 -0.2523  0.4782
25736W        W42583  10.003  15.091   0.519 -0.4005 -0.2230 -0.1436
25737W        W42584  10.054  15.338   2.531  0.1195 -0.3158  0.0811
25738W        W42585  15.951   3.106   6.156  0.2271 -0.3074  0.3659
25739W        W42586  13.903  15.244  11.917 -0.1262 -0.2271  0.0181
25740W        W42587  16.223   7.921  16.618  0.0556  0.0528  0.1478
25741W        W42588  12.874   6.906   4.452 -0.2638  0.3688  0.2547
25742W        W42589  11.554   8.284   2.147 -0.0247  0.1576  0.0034
25743W        W42590   5.590  11.331   2.389  0.0036  0.0416 -0.1281
25744W        W42591   7.778  13.868  13.868 -0.2076  0.2239  0.0882
25745W        W42592  11.039  14.537  16.226 -0.1086 -0.1440  0.1571
25746W        W42593  12.807  11.459  13.556  0.1865 -0.2905 -0.0502
25747W        W42594   8.162   7.962   1.797 -0.0051 -0.1988  0.1585
25748W        W42595  14.982  15.672   2.988  0.0862  0.1665  0.0890
25749W        W42596  11.708   8.217  14.440 -0.2378 -0.0406 -0.2021
25750W        W42597  13.788  11.131   1.014 -0.2706 -0.0777 -0.2431
25751W        W42598  14.024   0.410   2.502 -0.0167  0.1071 -0.2916
25752W        W42599   1.659   6.061   2.868 -0.2958 -0.1346  0.3633
25753W        W42600  12.883  15.361   2.923 -0.0417  0.2360 -0.1239
25754W        W42601  13.688   4.296   4.531  0.1749 -0.3057 -0.2090
25755W        W42602   6.459  17.512  16.617  0.2410 -0.1829  0.0795
25756W        W42603   1.108   2.440  14.178 -0.2938 -0.0235 -0.2908
25757W        W42604   4.918   3.269   0.873 -0.0530  0.3972  0.0266
25758W        W42605  16.499   7.682   0.418 -0.0249 -0.0856  0.1318
25759W        W42606   0.346   3.564   2.476  0.0640 -0.1555 -0.1357
25760W        W42607  15.087  14.569  14.495  0.0196  0.0137 -0.0483
25761W        W42608   4.977   2.111   3.489 -0.0171  0.1603 -0.0423
25762W        W42609   9.153   1.981  15.640  0.0791 -0.1467 -0.1343
25763W        W42610   5.914   7.839  13.291 -0.0407 -0.3260 -0.0977
25764W        W42611   4.364   2.653   5.852  0.2313 -0.2480 -0.1668
25765W        W42612   4.273   7.062  11.729  0.0898  0.2765 -0.0038
25766W        W42613   3.296  10.938   4.589 -0.1688  0.1295 -0.0360
25767W        W42614   0.407   0.554   5.353 -0.0256 -0.3333  0.3973
25768W        W42615  17.902   2.902   4.293  0.1266 -0.1541 -0.2702
25769W        W42616   0.886   8.134   0.277 -0.1098  0.0005  0.0603
25770W        W42617  16.206   4.222  12.463  0.0112  0.1854  0.2046
25771W        W42618   0.788   8.436   1.023 -0.0216 -0.1150  0.0723
25772W        W42619   8.108   3.431   2.383  0.2846  0.2698  0.0942
25773W        W42620   8.234   6.328   1.214 -0.0883  0.0322 -0.0691
25774W        W42621   3.765   5.876   2.831 -0.1370  0.0968  0.0496
25775W        W42622  12.555   7.231   0.858 -0.2805 -0.2363 -0.1046
25776W        W42623  12.269   3.370  12.170 -0.1832 -0.2539  0.2264
25777W        W42624   1.221   8.377   4.281  0.2341 -0.1295 -0.1385
25778W        W42625   9.285   8.369   4.002 -0.1829 -0.2119 -0.0911
25779W        W42626   7.842   9.544   4.768 -0.2113 -0.1051 -0.0236
25780W        W42627  17.205   0.072  13.501 -0.1149  0.0943 -0.1525
25781W        W42628   1.284   9.013  11.702  0.2661  0.0568 -0.0589
25782W        W42629   8.297   0.921   0.654 -0.2654  0.0076  0.2107
25783W        W42630   1.718  11.622  16.072 -0.0043 -0.0244  0.0309
25784W        W42631  13.316   3.223  14.864 -0.2742  0.1458 -0.1348
25785W        W42632  12.934   3.427   2.474 -0.1064 -0.3955  0.1689
25786W        W42633   9.628   9.627   3.791 -0.0069 -0.2746  0.0011
25787W        W42634  13.495   0.740  11.010  0.2885  0.1173  0.1163
25788W        W42635   4.825   2.810   1.746 -0.2476  0.1170  0.1066
25789W        W42636  16.618   0.374   3.181 -0.0510 -0.0464  0.3375
25790W        W42637   3.633   1.225  15.911 -0.2647  0.2039  0.0210
25791W        W42638   5.644  14.173  16.373 -0.0621  0.3683 -0.2335
25792W        W42639   5.452  17.081   1.420 -0.0193 -0.0673 -0.2023
25793W        W42640  17.060  12.585   0.483  0.2178  0.1839 -0.2486
25794W        W42641   2.284   4.201  14.031 -0.0304 -0.1242 -0.1726
25795W        W42642   7.792   4.634  13.469 -0.1335 -0.2031 -0.1854
25796W        W42643  10.318   9.215   0.162 -0.3859 -0.0534  0.0900
25797W        W42644  16.383   4.675  11.265  0.1479  0.2067  0.0386
25798W        W42645   8.876  12.337   2.321  0.0337 -0.3686 -0.0323
25799W        W42646   0.594  15.915  14.179 -0.3575  0.0570 -0.1599
25800W        W42647   6.968   8.664   0.573  0.0612 -0.1809 -0.2737
25801W        W42648  16.196  11.800  16.494 -0.2377 -0.2138 -0.0057
25802W        W42649   7.675   3.266   0.995 -0.2196 -0.2643  0.1499
25803W        W42650   0.318   6.633   3.556 -0.3412  0.1215 -0.3726
25804W        W42651  14.754   6.786  13.513  0.3436  0.0974 -0.0217
25805W        W42652  17.217  17.568  15.694 -0.1009 -0.0981  0.1850
25806W        W42653  15.474   8.422   1.761  0.3159 -0.2835  0.3307
25807W        W42654   7.719   5.551  14.902 -0.3691  0.0976 -0.2652
25808W        W42655  16.521   6.138  11.343  0.0660  0.2810 -0.1645
25809W        W42656   3.997   0.914   3.169  0.0139 -0.0752  0.0147
25810W        W42657  10.980  12.202   1.558  0.0799 -0.0057 -0.2037
25811W        W42658  16.243   7.728  13.564 -0.1442 -0.1883 -0.0001
25812W        W42659   7.357   4.180  11.874 -0.3046  0.1187 -0.1998
25813W        W42660   1.366   6.368  11.791 -0.4325  0.0754 -0.0860
25814W        W42661  10.103   3.177   0.757 -0.1885 -0.2652 -0.2172
25815W        W42662  11.814   4.543  15.675 -0.0561 -0.0761  0.0197
25816W        W42663   1.537   1.339  16.301 -0.1465 -0.0289 -0.1098
25817W        W42664  17.303  17.909   1.935  0.1662 -0.0526  0.0100
25818W        W42665  17.462   3.826  12.416 -0.0715 -0.0678  0.0753
25819W        W42666   1.769  14.076   0.557 -0.1115 -0.1659 -0.0105
25820W        W42667  13.577   0.124   3.251  0.1561  0.0300  0.3290
25821W        W42668  11.171  16.415  13.752  0.0789 -0.3358  0.1183
25822W        W42669   0.939  13.837   1.189  0.0227  0.2315  0.0619
25823W        W42670  12.390   5.283  12.824 -0.0557  0.1142  0.0238
25824W        W42671  15.549   1.399   2.605  0.0760 -0.1499 -0.0312
25825W        W42672  12.406   1.098  16.563  0.0549 -0.0272 -0.0789
25826W        W42673   5.838  15.820   1.342  0.1613 -0.4389  0.1421
25827W        W42674   9.746   5.311   5.259  0.0282  0.2066 -0.0783
25828W        W42675  12.340  11.793   3.735 -0.0080  0.0020 -0.0472
25829W        W42676   0.392  15.508  13.839  0.1364 -0.1250 -0.1558
25830W        W42677   9.648  11.734   0.125  0.2066  0.0487  0.2887
25831W        W42678   4.577  13.670   1.584  0.0034 -0.0821  0.0377
25832W        W42679  15.802   5.278  12.887  0.3177 -0.0314  0.1058
25833W        W42680   3.904   9.197   4.811 -0.0111  0.1364 -0.0209
25834W        W42681   9.718   6.234  13.407 -0.1314  0.0873  0.0067
25835W        W42682  16.297   5.742  15.598  0.0475 -0.2304 -0.0192
25836W        W42683  12.261  13.695   4.372 -0.3339 -0.3766  0.0986
25837W        W42684  10.374   6.229   4.649  0.1205  0.2556  0.0580
25838W        W42685   2.408   1.634  12.182  0.1312 -0.1572 -0.3627
25839W        W42686   8.648   7.079  12.539 -0.0325  0.0627  0.2145
25840W        W42687  11.819   9.401  11.981 -0.0260  0.2230 -0.2929
25841W        W42688  14.262   4.888   2.086 -0.2318 -0.0611  0.2040
25842W        W42689   0.314   5.186   5.420  0.1611 -0.3987 -0.1263
25843W        W42690  16.589  16.021   1.296 -0.2311 -0.1854  0.3339
25844W        W42691  16.010   2.530  11.442 -0.0144  0.0429  0.0520
25845W        W42692   5.977   7.735  16.013  0.1662 -0.0385  0.1210
25846W        W42693   6.035   4.568   4.486 -0.0882 -0.1522  0.2486
25847W        W42694   1.038   1.621  11.174 -0.0891  0.0313 -0.1052
25848W        W42695  10.607   5.372   4.243 -0.0638  0.0353 -0.0427
25849W        W42696  13.959   4.118   4.913  0.1706 -0.3657 -0.0901
25850W        W42697   6.871   9.067  12.836  0.2176  0.0540  0.3276
25851W        W42698   5.994   8.770   1.364  0.1438 -0.2025  0.2479
25852W        W42699   0.858  13.651   6.350 -0.1067  0.0341 -0.1707
25853W        W42700   4.890  16.473   0.959 -0.0649  0.0215  0.0761
25854W        W42701  13.667   9.329  15.702 -0.1092  0.1489  0.2484
25855W        W42702   6.219  12.040   4.963 -0.1967  0.0886  0.4003
25856W        W42703  13.822  13.958   1.642 -0.0603 -0.4551 -0.1414
25857W        W42704  17.345   4.041  11.336 -0.2190  0.0467 -0.1391
25858W        W42705   1.905   5.941  12.719 -0.0643  0.0212 -0.0273
25859W        W42706   0.282   0.094  16.572 -0.0999 -0.0628 -0.0174
25860W        W42707   5.659   6.658   0.233  0.4572  0.0352  0.0667
25861W        W42708  17.380   1.404  11.428  0.1158 -0.0718  0.0627
25862W        W42709   4.937   3.616   1.342  0.0517 -0.0139 -0.2928
25863W        W42710   4.657  15.346  14.559 -0.0328  0.1991  0.3048
25864W        W42711  11.627  12.694  14.971 -0.1909  0.1259  0.0582
25865W        W42712  11.732   5.575  15.431  0.1593 -0.1493  0.0652
25866W        W42713  15.446  15.630   4.533  0.0064  0.0143 -0.1375
25867W        W42714  10.576   4.819  13.347  0.0041 -0.2069  0.1180
25868W        W42715   9.714   3.314   2.771  0.0850  0.1461 -0.1511
25869W        W42716   1.952   4.694  13.197  0.0990 -0.2162 -0.2258
25870W        W42717   8.606   3.847  13.866  0.0390  0.0718 -0.2223
25871W        W42718   2.072   5.661   1.487 -0.0259  0.2698  0.3543
25872W        W42719   3.694   5.486   3.154  0.0988 -0.0084  0.3344
25873W        W42720   3.768  17.628  12.239  0.0470  0.0322  0.0463
25874W        W42721   3.935  12.074  12.154 -0.2239  0.2769 -0.0134
25875W        W42722  13.417   2.316  16.430  0.0519 -0.0991 -0.1772
25876W        W42723   3.512  11.875  12.334  0.0164 -0.1332 -0.1360
25877W        W42724   8.872   7.857   4.015  0.1427 -0.1306 -0.0036
25878W        W42725   8.418   9.226  13.961  0.2855 -0.1314  0.1049
25879W        W42726   2.363  14.816  12.122  0.2630  0.1620 -0.2493
25880W        W42727   9.732   1.852   0.910 -0.0173  0.0288 -0.2109
25881W        W42728  10.346  16.524  15.841 -0.2702  0.0679 -0.1111
25882W        W42729  14.981  12.719   2.417  0.0709  0.0921  0.1447
25883W        W42730   3.273   0.162  15.794  0.0073  0.1180 -0.2365
25884W        W42731  13.228  14.446  15.194  0.0054  0.1334  0.1711
25885W        W42732   5.111  11.487   0.935  0.0862  0.1461  0.1359
25886W        W42733  11.895   9.228  15.205 -0.1332  0.3565 -0.0149
25887W        W42734   2.686   0.054   0.792  0.4462 -0.0301  0.1452
25888W        W42735  11.099  11.571   2.887  0.0356  0.1584  0.1724
25889W        W42736  16.148   3.434  13.205 -0.0146  0.0492  0.2473
25890W        W42737   4.569   4.398  15.125  0.0846 -0.2947  0.2368
25891W        W42738  10.551  10.709  13.715 -0.2723 -0.1247 -0.1459
25892W        W42739  14.484   3.580  13.994  0.1369 -0.2039 -0.0326
25893W        W42740   6.623   4.193   3.084  0.0577 -0.1914  0.1722
25894W        W42741  16.050  15.871   0.110 -0.1631  0.0175  0.0639
25895W        W42742  16.506  18.177   3.871 -0.4278 -0.0551  0.2827
25896W        W42743   5.327  12.027  13.077  0.0445 -0.2465  0.0737
25897W        W42744   4.003  17.572   3.684  0.1021  0.0685  0.2381
25898W        W42745   5.325   9.901  13.068 -0.1251 -0.3051 -0.2919
25899W        W42746  13.127  13.741   5.481  0.0825 -0.1160 -0.1004
25900W        W42747   0.247   8.518   1.718  0.1142 -0.5048  0.1347
25901W        W42748  11.828   9.161  13.392  0.0871  0.2143  0.0000
25902W        W42749  12.180  11.638   4.614 -0.4467 -0.1719 -0.0583
25903W        W42750  11.827   1.939  14.697 -0.0496  0.4919 -0.1475
25904W        W42751  15.452   5.331  14.606 -0.0404  0.2691  0.1375
25905W        W42752  13.156   6.330   3.644  0.4111  0.1668  0.0561
25906W        W42753  15.955   6.783  15.164 -0.2623 -0.0630  0.0561
25907W        W42754   4.631  10.189  16.535 -0.0114 -0.0886  0.1751
25908W        W42755  13.516  12.272  14.315  0.3659  0.1886  0.0467
25909W        W42756   6.329  14.370   2.999 -0.1493  0.0601  0.0444
25910W        W42757  17.482   1.723   5.099  0.1609 -0.1919 -0.0480
25911W        W42758  15.625  10.232   0.609 -0.0436  0.1111  0.1016
25912W        W42759   0.413  10.081   3.266  0.0146  0.3264  0.1764
25913W        W42760   5.221   5.433   4.276  0.3010 -0.3945  0.3029
25914W        W42761  16.831  16.951  13.716  0.0441  0.0615 -0.0022
25915W        W42762  16.204   5.920   2.969  0.0130  0.2730  0.1768
25916W        W42763   7.084  10.578  14.986  0.0806  0.3363  0.4397
25917W        W42764  15.969  11.003   3.864  0.0724  0.0281  0.1443
25918W        W42765  17.742  15.479  15.038 -0.1017  0.1254  0.1126
25919W        W42766   2.624   6.040  14.306  0.0711 -0.0954  0.0545
25920W        W42767   9.622  15.202   3.343  0.4120 -0.2115  0.0453
25921W        W42768  12.090  13.923  11.797 -0.0254  0.0284  0.1150
25922W        W42769   2.141  10.745  12.912 -0.0242 -0.0175 -0.0812
25923W        W42770   2.411   8.979   0.180 -0.3576  0.3398 -0.0196
25924W        W42771  10.509  12.544  13.242 -0.0066 -0.1514  0.0752
25925W        W42772   6.908   8.632   1.429  0.1523  0.2588 -0.1049
25926W        W42773  10.403   0.699  14.497 -0.0626 -0.0600  0.2209
25927W        W42774   7.215   9.926   1.789 -0.3030  0.2675 -0.0732
25928W        W42775   0.514  14.651   1.551  0.0264  0.0439  0.0253
25929W        W42776  17.794  11.465  15.146 -0.1727  0.0688 -0.0479
25930W        W42777   5.795  16.091  14.124 -0.0708 -0.1726  0.0770
25931W        W42778   8.851  13.397  14.392 -0.1620 -0.3984 -0.2987
25932W        W42779  13.520   0.089   2.792  0.0288 -0.1343  0.0093
25933W        W42780  17.212  14.302  15.430 -0.1043  0.2194  0.1159
25934W        W42781   1.189  16.472   0.882 -0.3664  0.1626 -0.3201
25935W        W42782  16.211   7.179  10.625 -0.1678 -0.2451 -0.2642
25936W        W42783   6.843  12.114  13.762 -0.2999 -0.1378  0.1998
25937W        W42784  12.391   1.951   0.606 -0.0943  0.1642 -0.0902
25938W        W42785   2.454   6.109   0.768  0.1997 -0.3544 -0.0878
25939W        W42786   2.605   9.550  13.761  0.2284  0.0768 -0.0323
25940W        W42787   3.732  15.193   1.851  0.2789  0.0736 -0.2139
25941W        W42788   3.719   1.938  14.050  0.2441  0.1953 -0.1279
25942W        W42789   6.671   4.740   3.093  0.0323  0.0035 -0.1091
25943W        W42790  17.003  14.922   3.836 -0.2538  0.0979 -0.0165
25944W        W42791  15.201   5.245   5.466 -0.0872 -0.0719 -0.2773
25945W        W42792  13.619  12.270   1.586 -0.0304 -0.1362  0.2042
25946W        W42793   7.068   7.776   0.351 -0.3179  0.2170 -0.0050
25947W        W42794   9.705  10.843  14.617  0.0081 -0.0177 -0.0914
25948W        W42795   2.494  10.785  16.464  0.0771  0.1918 -0.0831
25949W        W42796  16.208  12.718  13.367 -0.0566  0.0299 -0.2327
25950W        W42797  14.254   6.569  11.419 -0.1092  0.1450  0.0443
25951W        W42798  14.904   9.086  14.534  0.1749 -0.0744 -0.3397
25952W        W42799   2.590   5.408  13.045 -0.1624 -0.0209 -0.0482
25953W        W42800   0.540   8.022   3.257  0.2170  0.0565  0.1445
25954W        W42801  12.278   2.545  11.272 -0.0262 -0.5369  0.0092
25955W        W42802  17.159   3.312   1.506  0.4084 -0.0387 -0.1219
25956W        W42803   0.905   0.521   0.071  0.2823  0.1625  0.0118
25957W        W42804   7.841   6.197   4.776  0.0362  0.3367 -0.0074
25958W        W42805  16.442   5.741   0.801 -0.2897  0.0034 -0.1182
25959W        W42806   0.558  17.637   2.195  0.0939 -0.1892 -0.1162
25960W        W42807   8.838  10.871  14.525 -0.2651 -0.1053  0.2680
25961W        W42808   2.230  12.991   5.904 -0.0691  0.0986  0.2775
25962W        W42809  17.992   8.393  13.488 -0.2562 -0.0534  0.0374
25963W        W42810  11.616   0.148   3.053 -0.1120 -0.0103  0.0438
25964W        W42811  13.121  11.352   3.682 -0.0667  0.0175  0.1175
25965W        W42812  13.796  12.889   2.271  0.3607  0.2065  0.0975
25966W        W42813  12.703  17.117  13.814 -0.0640  0.1957  0.1150
25967W        W42814  17.258   3.287   3.164  0.2120 -0.2284  0.4277
25968W        W42815   9.732  17.302  14.134 -0.0372  0.0574 -0.2063
25969W        W42816  12.868   8.184  11.480 -0.0785 -0.2406 -0.3592
25970W        W42817   3.790   4.104   4.768  0.0333 -0.1812  0.0820
25971W        W42818   0.529  13.015   2.385 -0.1161 -0.1095  0.1249
25972W        W42819  13.094   0.810   2.587  0.0104  0.3281  0.1232
25973W        W42820  12.712   1.834  15.237 -0.0083  0.0249 -0.2095
25974W        W42821   0.408   8.562   5.371 -0.1937  0.0399  0.1361
25975W        W42822  16.707   3.942  16.363 -0.1067  0.2854 -0.0195
25976W        W42823  11.565   1.294  13.889  0.2207 -0.4313  0.0864
25977W        W42824  12.605  12.726   4.803 -0.1023 -0.0668 -0.0891
25978W        W42825  12.657   3.328  14.985 -0.0921 -0.0044 -0.2927
25979W        W42826  10.950  11.828   5.883 -0.0149 -0.1155 -0.1414
25980W        W42827   0.727  16.066   5.909  0.0277 -0.0245 -0.0229
25981W        W42828   8.929  15.436   2.748 -0.0212  0.1423 -0.0344
25982W        W42829  14.296   0.540   4.168  0.0598 -0.2002  0.0877
25983W        W42830   8.004   9.133   1.205  0.0043  0.1137  0.2100
25984W        W42831   2.596   9.712  16.019  0.1519 -0.0529  0.4246
25985W        W42832   7.025   9.368   5.502  0.0584 -0.2587 -0.0905
25986W        W42833   3.459   4.877   1.492  0.3196 -0.4650  0.1626
25987W        W42834   9.836  15.809  13.863 -0.2787  0.0842  0.0527
25988W        W42835  14.833   3.929  14.124  0.2839 -0.0629 -0.0298
25989W        W42836   1.824  15.171  12.578  0.0935 -0.1250 -0.1935
25990W        W42837   7.841  14.473   2.088 -0.0613 -0.1427  0.2727
25991W        W42838  14.607   4.779  13.152  0.2273  0.3148 -0.3323
25992W        W42839  15.559   4.730  14.875  0.3941  0.1197  0.1745
25993W        W42840   5.311   9.581   0.822 -0.0889  0.1736 -0.1820
25994W        W42841  10.141   6.764  16.244 -0.0928 -0.0906 -0.1237
25995W        W42842  13.701  16.213   4.311 -0.0089 -0.0772  0.2082
25996W        W42843  13.441   6.435  15.554  0.0129  0.0242 -0.2186
25997W        W42844   3.209   5.579   5.436  0.2296  0.0572  0.4483
25998W        W42845  16.771  12.666  11.386 -0.2398  0.0525 -0.2163
25999W        W42846  11.649  18.136  15.741 -0.1306  0.2968  0.2307
26000W        W42847   3.238   3.001  12.903 -0.3590  0.1925  0.0879
26001W        W42848   1.559  15.971   2.310 -0.2364  0.0839  0.2214
26002W        W42849   5.028  17.113   3.670  0.1629  0.1019 -0.1170
26003W        W42850   1.798  11.591  14.380 -0.2422 -0.0701  0.1649
26004W        W42851  14.339  13.675  11.840 -0.0822  0.0581  0.0359
26005W        W42852   4.606  15.895   1.582 -0.2247 -0.1667 -0.1081
26006W        W42853  14.698  14.158   5.028 -0.0325 -0.3172  0.2235
26007W        W42854   6.002   2.613   2.233  0.0557  0.1654  0.1081
26008W        W42855  14.313   4.514   5.090  0.2179  0.0623  0.2989
26009W        W42856  14.520   1.765  14.776 -0.0532 -0.0199  0.0826
26010W        W42857  13.355  15.744  11.267  0.0417 -0.0333 -0.2734
26011W        W42858   3.453  12.428   2.857 -0.1238 -0.0461 -0.1006
26012W        W42859  17.422  15.460   1.002  0.1057  0.1672 -0.1938
26013W        W42860  15.068  17.730  12.499 -0.1853  0.2613  0.1668
26014W        W42861   5.185  17.028   1.851  0.1104 -0.1770 -0.1932
26015W        W42862  12.270   0.639   0.078  0.1528 -0.0478  0.0866
26016W        W42863  14.063   3.217  12.187 -0.1030  0.0278  0.5542
26017W        W42864   9.057   1.712   5.030  0.1812  0.0741 -0.0786
26018W        W42865  13.937  14.292   2.895  0.1984  0.1134 -0.4446
26019W        W42866   6.567   7.401   4.395  0.1441 -0.0010 -0.0054
26020W        W42867  14.016  10.600  14.079 -0.2815  0.1650 -0.4539
26021W        W42868   8.067   3.425  11.352 -0.0710  0.2691  0.0298
26022W        W42869  11.198   3.581  14.996 -0.0034  0.1286 -0.3307
26023W        W42870   9.382  15.173   4.973  0.1316  0.0901  0.0685
26024W        W42871   6.040  12.200  15.823 -0.3358 -0.1996 -0.0205
26025W        W42872   1.964  13.875  12.958 -0.5585 -0.1135 -0.2897
26026W        W42873  14.130  13.392  12.182 -0.3376 -0.2261 -0.2269
26027W        W42874   8.847   5.226   5.659  0.3740  0.1448  0.1848
26028W        W42875   3.364   7.061  13.450  0.4153  0.0133  0.1031
26029W        W42876   3.105   9.777  15.097  0.3905 -0.0142 -0.2403
26030W        W42877   5.743   9.597   2.989 -0.1924 -0.1246 -0.1763
26031W        W42878   1.640  16.782   1.062  0.1085  0.1887 -0.2647
26032W        W42879   3.664   2.494  14.795  0.0112  0.2649 -0.1637
26033W        W42880   3.713   0.664  10.998 -0.1766  0.0892 -0.2699
26034W        W42881  14.515   1.239  14.108  0.0320 -0.0284 -0.3332
26035W        W42882   6.510   1.168   0.138 -0.0208 -0.0241  0.1160
26036W        W42883   7.848   6.101  12.553  0.0516 -0.1436 -0.3347
26037W        W42884  17.677  10.724   2.120 -0.0363  0.0559 -0.0980
26038W        W42885  14.512   0.447   2.496  0.0979  0.2009  0.1915
26039W        W42886   0.109  14.443   2.649  0.1574  0.3165  0.0352
26040W        W42887   1.494  15.767  14.676  0.0602 -0.1483 -0.0184
26041W        W42888   8.298  11.420   4.251 -0.6375 -0.0976 -0.0715
26042W        W42889   1.352   6.919  16.480  0.0859  0.1875  0.0252
26043W        W42890  13.633   6.440   0.873 -0.2621 -0.0499 -0.2577
26044W        W42891   3.175  12.566   1.038 -0.1475  0.1828  0.1088
26045W        W42892  17.916  17.331   0.591 -0.1285  0.0383 -0.2206
26046W        W42893   5.126  15.556  13.624  0.0574  0.3822 -0.0103
26047W        W42894   3.035   8.711   0.406  0.0670  0.2891 -0.1412
26048W        W42895   9.394  13.105   3.181  0.0171  0.3217  0.0208
26049W        W42896   7.417  14.546   5.279 -0.1124  0.1681  0.2308
26050W        W42897  11.497   7.791   3.972 -0.0984 -0.0147  0.2158
26051W        W42898  11.856  16.594   2.744  0.0911 -0.2771  0.2069
26052W        W42899  13.990   2.226   0.216 -0.1132  0.1240  0.0355
26053W        W42900   9.435  18.049  14.284 -0.1390  0.3837 -0.1848
26054W        W42901  16.488  14.497   4.294  0.0973 -0.0671  0.1174
26055W        W42902  10.247   2.301  12.482  0.1394 -0.1287 -0.0660
26056W        W42903   6.103   5.853   0.327  0.1288  0.1122 -0.0637
26057W        W42904   0.701  10.697  12.604  0.1134 -0.0799 -0.1680
26058W        W42905   1.438  16.747  12.292  0.0196 -0.2477 -0.2096
26059W        W42906   6.641  17.748   2.679 -0.0731  0.2283 -0.2978
26060W        W42907  15.046   5.850   5.212  0.0174  0.3369  0.1265
26061W        W42908   5.316   8.709  15.327  0.1653 -0.2383 -0.1897
26062W        W42909   8.064  16.614   4.419  0.4639  0.1038  0.2628
26063W        W42910  10.684   2.856   4.595 -0.1315  0.0771 -0.0155
26064W        W42911   5.371  17.551   3.896  0.1498  0.2455  0.5133
26065W        W42912  17.933  11.882  11.264 -0.0831  0.0628 -0.0098
26066W        W42913   7.796   4.250   3.917  0.1617 -0.0241 -0.4146
26067W        W42914   4.682  13.053   3.332 -0.1239 -0.0824  0.3452
26068W        W42915   4.317   6.416  14.223  0.2726  0.0452 -0.2750
26069W        W42916  11.786   7.838  14.955  0.0017 -0.0715  0.0137
26070W        W42917  12.011   9.936   3.002  0.3154  0.0229  0.2536
26071W        W42918   9.303   2.013   3.335  0.2047  0.2368  0.0102
26072W        W42919   5.477   1.542  12.379  0.1219  0.3810  0.2774
26073W        W42920   2.842   6.138  11.495  0.1820 -0.1571  0.1098
26074W        W42921  12.651   5.498  15.251 -0.1547  0.1365  0.1828
26075W        W42922  15.039   9.826  15.357  0.1818 -0.0850 -0.1399
26076W        W42923  13.444  14.791   2.392  0.0756  0.1218 -0.2763
26077W        W42924  15.597   3.646  12.609 -0.0433 -0.0402  0.1647
26078W        W42925  14.824   1.350   3.325  0.3233 -0.2841  0.0277
26079W        W42926  11.462   9.057   3.759  0.2000  0.0602  0.0214
26080W        W42927   0.649  14.372  16.240 -0.1317  0.2194  0.0127
26081W        W42928   6.299  13.293  13.163  0.1483  0.1191 -0.0477
26082W        W42929  16.301  12.422   2.633  0.3582 -0.0789  0.1901
26083W        W42930  17.491  11.023  11.833  0.2061  0.1553 -0.0520
26084W        W42931  14.458   0.872   2.767  0.2585 -0.3835  0.1324
26085W        W42932  10.360   4.410   3.094  0.1678  0.0131  0.3558
26086W        W42933  11.175   5.343  14.059  0.1318 -0.0458  0.0942
26087W        W42934   4.537  16.728   2.728  0.0613 -0.4916  0.1232
26088W        W42935   4.998  11.823   1.522  0.2813 -0.1811 -0.1841
26089W        W42936  14.397  13.521   1.204 -0.0437 -0.3154 -0.1064
26090W        W42937   4.812  15.444   4.934 -0.0307  0.1629  0.1540
26091W        W42938  11.290  10.315   2.220  0.1142 -0.1796  0.0751
26092W        W42939  13.110  11.504   3.165  0.0492  0.0984  0.2856
26093W        W42940   2.496   1.447   0.401 -0.1936 -0.0453 -0.0489
26094W        W42941   5.497   6.125   5.851  0.1823  0.1146 -0.0712
26095W        W42942   8.850  17.199   0.428  0.0474  0.2800 -0.0134
26096W        W42943   8.679   4.764   2.168 -0.0079 -0.1015  0.3175
26097W        W42944  13.589  16.787   5.602  0.3545 -0.0581 -0.1370
26098W        W42945  14.232   8.025  13.298 -0.2775 -0.2617 -0.0919
26099W        W42946  17.286   2.859   0.236 -0.0464  0.0824 -0.2528
26100W        W42947   7.601   9.498  15.439 -0.1892 -0.2540 -0.1200
26101W        W42948   3.673   3.361   0.106  0.2775  0.1823  0.1077
26102W        W42949   3.977   4.286   0.915 -0.0891 -0.1905 -0.2541
26103W        W42950  12.402   7.339   4.938 -0.1867  0.1186 -0.0105
26104W        W42951   5.185   1.484  15.977  0.1247  0.0636 -0.4386
26105W        W42952  17.171   8.926  12.307  0.0123  0.1254  0.0950
26106W        W42953  17.437  11.389   3.982  0.1751 -0.4278 -0.2036
26107W        W42954   7.427   7.578  12.486  0.2189 -0.0224  0.1607
26108W        W42955  16.118   7.073  12.221 -0.0898 -0.1546 -0.3973
26109W        W42956  10.308  16.334   4.429  0.0360 -0.1868 -0.1440
26110W        W42957   4.490  16.846  11.993  0.1527 -0.2899  0.0691
26111W        W42958  17.741  17.853   3.569  0.2013 -0.3028  0.3285
26112W        W42959   3.203  10.528  12.154 -0.1433 -0.0307 -0.2064
26113W        W42960   8.215  16.840  14.101  0.1232 -0.2874  0.0904
26114W        W42961   0.201  10.725  11.724  0.3548 -0.3139 -0.2249
26115W        W42962   1.151   2.794   0.331  0.0104 -0.0780 -0.0920
26116W        W42963   9.103   2.800   2.976 -0.1612  0.1217 -0.1358
26117W        W42964  16.751   9.747   3.165  0.2714 -0.1162  0.1116
26118W        W42965   0.926   8.417   2.331 -0.2365 -0.3332 -0.0035
26119W        W42966   6.677   0.173  15.374  0.2698  0.3672 -0.1767
26120W        W42967   5.921  11.418  14.745 -0.2059 -0.0295 -0.1797
26121W        W42968  11.922   1.617  16.367 -0.0441  0.0099  0.1915
26122W        W42969   6.903  11.097   1.438 -0.0675 -0.2099 -0.0499
26123W        W42970  16.658   8.481   5.494 -0.3425 -0.0033  0.2232
26124W        W42971  14.929   8.819  14.127  0.0879  0.1463 -0.1230
26125W        W42972  17.570   9.753  13.355  0.0765 -0.4445 -0.3834
26126W        W42973   8.528  17.585  14.661  0.1039  0.1681  0.2336
26127W        W42974   9.255   9.148   4.491 -0.4435  0.0145 -0.3218
26128W        W42975   3.917   7.569  14.896 -0.2620  0.1177  0.1987
26129W        W42976  13.807   1.180  15.895 -0.0536  0.2036 -0.0654
26130W        W42977   2.583  11.706  12.745  0.0903  0.2430 -0.1415
26131W        W42978   6.795   7.328   3.935 -0.3081 -0.4217  0.1482
26132W        W42979   0.863  13.703   3.764 -0.1432  0.2169 -0.1230
26133W        W42980   6.313  10.320   3.969  0.1345  0.1501  0.2863
26134W        W42981  15.267  12.597  13.613 -0.0343 -0.1547 -0.0572
26135W        W42982  10.634   1.950   2.072 -0.1397 -0.0003 -0.0663
26136W        W42983   1.324   4.722   3.031  0.0685  0.0990  0.2243
26137W        W42984  13.869   0.535   0.254 -0.2305  0.3404 -0.0248
26138W        W42985   5.180   6.711  14.117 -0.1153 -0.0041  0.1354
26139W        W42986   7.558  12.370  11.996 -0.0181  0.1271 -0.3073
26140W        W42987  11.763  10.460  12.135  0.1939  0.2740 -0.0174
26141W        W42988   1.463   9.422  13.729  0.3175 -0.4038  0.2221
26142W        W42989  10.515   1.424   3.441  0.0970  0.1565 -0.0002
26143W        W42990  13.237   1.878   4.484 -0.0375  0.1280  0.2796
26144W        W42991   5.628  17.374   4.655  0.0510  0.2014  0.1286
26145W        W42992   8.345   7.737   2.688 -0.1670  0.0671  0.2192
26146W        W42993   6.380  12.034  11.382 -0.0505 -0.1387  0.2793
26147W        W42994   1.246   4.663  14.079 -0.0459  0.3421 -0.2861
26148W        W42995  14.695   9.905  12.595  0.1694 -0.0453  0.3079
26149W        W42996   3.572   6.354   1.529 -0.2799  0.0016 -0.0579
26150W        W42997   9.517   2.367  15.446 -0.3199 -0.1393  0.0540
26151W        W42998   5.066   4.484  14.066  0.0827 -0.0326 -0.1861
26152W        W42999   1.774  17.369   2.954  0.1395  0.0811 -0.1694
26153W        W43000  10.701   2.510   2.516  0.0334 -0.1720 -0.1721
26154W        W43001  16.239   8.600   0.580 -0.2475 -0.0975 -0.2933
26155W        W43002   4.511   1.443  14.397 -0.1178 -0.0713  0.2174
26156W        W43003   7.114  13.903  11.837  0.2665  0.2066  0.1090
26157W        W43004   5.680   4.227   1.023 -0.1135 -0.1657 -0.1702
26158W        W43005  12.291  16.207   3.438  0.5957  0.2052  0.1445
26159W        W43006   3.244   3.783   6.109 -0.0393  0.1904  0.0833
26160W        W43007  16.667   0.232  12.891 -0.1555  0.3458  0.0679
26161W        W43008  17.510  10.225   4.214 -0.3824  0.0021  0.2021
26162W        W43009   7.205   0.169   1.929 -0.0788  0.1217  0.0815
26163W        W43010   0.361   1.810  13.046 -0.0601 -0.0557  0.0782
26164W        W43011   9.424  12.099   0.504  0.1013 -0.1855  0.0044
26165W        W43012  14.605   4.897  14.547  0.1864 -0.0286 -0.1349
26166W        W43013  11.634   8.094   4.723  0.0645 -0.0342  0.3322
26167W        W43014   1.789   5.173  14.603  0.3058  0.1932  0.0504
26168W        W43015   3.607  16.093  15.575  0.0191  0.1217 -0.4469
26169W        W43016  13.153   1.563   4.959 -0.1802 -0.1082  0.0661
26170W        W43017   8.623  16.622  14.319 -0.0032  0.0052  0.0596
26171W        W43018  13.084   6.031  13.315 -0.0133  0.0844  0.2587
26172W        W43019   2.905  17.131  13.285 -0.4300  0.0174  0.0850
26173W        W43020  17.274   1.653   4.321  0.2177 -0.2389 -0.0527
26174W        W43021  16.698   4.331  12.726  0.0461 -0.1740  0.0850
26175W        W43022  10.483  17.312   4.383 -0.2781  0.0218  0.1370
26176W        W43023  11.892   3.475   3.317  0.0285 -0.3029  0.0437
26177W        W43024   0.538   6.812   4.730  0.0657 -0.0673  0.0588
26178W        W43025   2.202  13.834   1.723  0.0532  0.1761  0.1397
26179W        W43026   5.772  14.908  11.556  0.4458  0.3229  0.1694
26180W        W43027  15.158   5.731   4.103  0.0034 -0.0797  0.0960
26181W        W43028  13.567   6.234   3.935  0.2251 -0.1056 -0.1710
26182W        W43029  15.103  15.435   5.026 -0.0259 -0.0087  0.1002
26183W        W43030   9.758  13.518  16.351 -0.0608  0.0915 -0.0976
26184W        W43031   7.566   5.181  14.231 -0.1130 -0.0690  0.1251
26185W        W43032   2.798   5.269   2.030  0.0910  0.1479 -0.3755
26186W        W43033  16.152   0.507  15.304 -0.0255  0.1410  0.1204
26187W        W43034  17.538   5.552   0.347  0.1553 -0.1564 -0.0459
26188W        W43035  12.398  16.492   4.360 -0.2065 -0.3634 -0.2429
26189W        W43036  13.125  12.952   3.416 -0.0130 -0.1384  0.1354
26190W        W43037  11.330   7.707   2.151 -0.4642 -0.2234 -0.1698
26191W        W43038   4.994  17.444   5.720  0.0410  0.0969  0.1106
26192W        W43039   4.203   9.512   0.025 -0.2728 -0.1357  0.2217
26193W        W43040  17.983   3.228  15.240 -0.0644  0.1753  0.1262
26194W        W43041   2.672  16.638   5.315 -0.0181  0.0924  0.1836
26195W        W43042   0.413  12.319   1.622 -0.2501  0.1158 -0.1828
26196W        W43043  11.627   1.202  16.265 -0.2170 -0.0598  0.0636
26197W        W43044   9.334   6.373   1.552  0.0533  0.0399 -0.3255
26198W        W43045  17.350   8.550  14.856  0.2445 -0.0376 -0.1043
26199W        W43046  16.420   1.941   2.300 -0.3080  0.1489  0.1578
26200W        W43047   3.800   7.078  14.754 -0.3575  0.4186 -0.1701
26201W        W43048  14.388   4.905   2.591 -0.0064  0.1057  0.0197
26202W        W43049   1.597  12.863  11.947 -0.0008 -0.0111  0.2173
26203W        W43050   8.460   6.562  16.388 -0.1253 -0.0223  0.1577
26204W        W43051   2.222   8.911  16.257 -0.1572 -0.1221 -0.2001
26205W        W43052  18.164  11.487  12.938 -0.0832 -0.0343  0.1814
26206W        W43053   1.156  16.701   3.387  0.0780 -0.1661 -0.2094
26207W        W43054   7.754   7.388  13.674 -0.2228 -0.2141 -0.1901
26208W        W43055  11.385   2.103  11.441 -0.0040  0.2720 -0.1498
26209W        W43056   3.968   2.880   4.038 -0.0457  0.1195 -0.0667
26210W        W43057  13.823  16.515   0.728  0.0022 -0.0856 -0.0853
26211W        W43058  11.012   7.798   3.155 -0.1956  0.4093 -0.0439
26212W        W43059   8.007  13.442   2.073 -0.2914 -0.0272 -0.3209
26213W        W43060  11.627  14.672  12.553  0.2933  0.0509  0.2287
26214W        W43061  12.951   4.796   5.033  0.1571 -0.1270 -0.3219
26215W        W43062  15.011  14.880   0.169 -0.0491  0.0752 -0.0620
26216W        W43063  13.433  15.549   5.038 -0.3954  0.1929 -0.3857
26217W        W43064  12.011   1.471  14.915 -0.1611 -0.0470  0.0800
26218W        W43065   0.242  13.422   2.389 -0.0919 -0.3754 -0.1906
26219W        W43066   5.302  16.179   2.283  0.0072  0.4561  0.1422
26220W        W43067  13.993   9.791   4.268  0.1393 -0.1009  0.0730
26221W        W43068  12.206  17.507   4.601 -0.0141 -0.2083 -0.0663
26222W        W43069   0.298  13.717  16.478 -0.0466 -0.1894 -0.0332
26223W        W43070   0.749   0.729  12.327  0.1734  0.1395 -0.0937
26224W        W43071   3.733   2.905  13.112 -0.0545 -0.1199  0.0740
26225W        W43072  16.134   7.679   6.337  0.1577 -0.0011 -0.1063
26226W        W43073  16.519   0.820  16.200  0.0157 -0.2363 -0.2549
26227W        W43074   4.371   1.101   4.631  0.2199  0.0740 -0.1076
26228W        W43075   0.007   9.612   2.719 -0.1028 -0.0515 -0.1369
26229W        W43076   1.393  10.225   0.530 -0.3741 -0.0370  0.2250
26230W        W43077   3.730   2.400  13.329  0.2958 -0.1581 -0.0277
26231W        W43078  10.172   3.497  15.807 -0.3183 -0.0137 -0.1738
26232W        W43079   4.395  11.966  15.153 -0.3546 -0.0846 -0.0533
26233W        W43080  13.096   2.575   5.114  0.0597  0.0808 -0.2052
26234W        W43081   3.045  11.944  12.531 -0.0454  0.2015 -0.1665
26235W        W43082  17.181  13.353   4.563  0.3491  0.2256 -0.0602
26236W        W43083   3.808   2.824   5.659  0.0599  0.0287  0.0608
26237W        W43084  17.174  10.923  13.827 -0.1698 -0.0104 -0.0668
26238W        W43085  11.180  15.610  15.199  0.1054  0.2345  0.2598
26239W        W43086  12.116   0.519   1.435  0.1331  0.0288  0.3037
26240W        W43087   1.487  17.467   3.394  0.2485  0.2306 -0.0809
26241W        W43088  11.629   5.514   4.847  0.1371 -0.3941 -0.0800
26242W        W43089  10.213   9.553   0.500 -0.0048  0.0980 -0.1936
26243W        W43090  13.234  14.627  11.766  0.1492 -0.0903  0.0080
26244W        W43091  14.361  13.787  13.156  0.1999 -0.1189  0.1791
26245W        W43092   1.048   1.517  12.142 -0.2647 -0.0524  0.0682
26246W        W43093   9.916  17.299   1.537  0.0557 -0.1567  0.1265
26247W        W43094  10.733   5.308   4.799 -0.2028  0.0545  0.1493
26248W        W43095  14.365   8.772   4.379 -0.0895 -0.0744  0.1035
26249W        W43096   1.799   1.300   5.723  0.2466  0.2031 -0.0644
26250W        W43097  10.722   4.113   3.006 -0.3099 -0.4370 -0.1621
26251W        W43098   5.359  15.243   5.261  0.1049  0.0928  0.1462
26252W        W43099  15.568  13.425  13.317  0.3505  0.3337  0.1612
26253W        W43100  11.320   0.883  15.481  0.0978 -0.0709  0.2524
26254W        W43101  16.314   8.593   3.280  0.0852  0.0479 -0.2842
26255W        W43102   1.430   4.837   1.221 -0.1002 -0.4262 -0.1692
26256W        W43103   1.556   2.727   0.035 -0.0016 -0.0144  0.1778
26257W        W43104  16.507   5.902  16.088  0.2274  0.1297  0.2091
26258W        W43105  12.167   7.609   3.181  0.2463  0.2699  0.0451
26259W        W43106  15.147  11.164   3.965  0.1883  0.0410 -0.2170
26260W        W43107   1.943   4.412   5.028 -0.1189 -0.2423 -0.2358
26261W        W43108   1.852  15.241  15.275  0.0594 -0.0009  0.2688
26262W        W43109   6.977  10.971  13.753 -0.1954  0.0617  0.0124
26263W        W43110  16.272   9.519  10.366 -0.0528 -0.1145  0.1622
26264W        W43111   8.580   0.363  15.360 -0.2445  0.1572  0.1178
26265W        W43112   1.368   6.759   3.371  0.2824  0.0341 -0.1184
26266W        W43113  16.657   3.923   5.222  0.1070  0.1165  0.3149
26267W        W43114   9.667  11.305  11.357 -0.0440 -0.0162  0.2534
26268W        W43115   4.462   7.549   4.901  0.1592  0.1572 -0.2184
26269W        W43116  16.814   1.964   0.899  0.2452  0.1259  0.0253
26270W        W43117   1.437   9.406   1.495  0.2858  0.1315 -0.0116
26271W        W43118   1.203  11.753  16.256 -0.4759  0.3184 -0.1329
26272W        W43119  14.205  15.158   0.633 -0.2167 -0.4008  0.1971
26273W        W43120   1.567   8.021  16.383 -0.1574 -0.0251  0.2140
26274W        W43121   7.183  13.250  15.598  0.1851  0.1113 -0.0285
26275W        W43122  14.906   6.336  12.185 -0.1623 -0.2541  0.0591
26276W        W43123  12.102  16.072   1.487 -0.2420 -0.2576 -0.2315
26277W        W43124  14.070  10.233   1.485 -0.0096  0.0552  0.0932
26278W        W43125  16.019  10.024   4.180  0.1576  0.1790  0.0635
26279W        W43126  11.644   9.529   3.838  0.0444  0.1785  0.1582
26280W        W43127  13.886  17.101   2.113  0.3673  0.0885  0.0326
26281W        W43128   7.319  12.495   4.097  0.2793  0.2447 -0.0779
26282W        W43129   0.623  13.421   1.137  0.3804 -0.0390 -0.0586
26283W        W43130   7.916   2.116   1.247 -0.2186  0.3289  0.0048
26284W        W43131  13.486  15.510  12.725 -0.0946 -0.0223 -0.0025
26285W        W43132   3.516  14.684   0.552 -0.0066  0.2271  0.1634
26286W        W43133   6.574   5.524   4.305  0.2339 -0.2591 -0.1609
26287W        W43134   7.701   9.818   0.066  0.2078 -0.0008 -0.1905
26288W        W43135   9.723  10.503  13.930 -0.1042  0.0147 -0.0321
26289W        W43136  15.403   2.497  12.208  0.2987  0.1160  0.1851
26290W        W43137  15.302   3.188   4.681 -0.2211 -0.0122  0.1033
26291W        W43138   7.139   4.395   3.054 -0.1235  0.0790 -0.0515
26292W        W43139   0.810   6.222   2.034 -0.0265  0.0736 -0.2925
26293W        W43140   2.246  16.396  15.043 -0.2712  0.0263  0.3244
26294W        W43141  12.443   9.332  11.430  0.3569 -0.0954  0.2634
26295W        W43142   2.398   3.597   0.766  0.2063 -0.1184  0.0342
26296W        W43143  11.963   1.639  12.586 -0.2543  0.2255 -0.0895
26297W        W43144  13.197  10.546  15.362 -0.2216 -0.0904  0.1741
26298W        W43145  14.850   9.420   1.253 -0.3057  0.1883 -0.1416
26299W        W43146  15.698  11.543  15.287 -0.1576  0.1739  0.1321
26300W        W43147  13.627   8.625   3.619 -0.0933  0.1995 -0.1890
26301W        W43148   8.936  17.914  14.023  0.0798  0.0098 -0.0766
26302W        W43149   6.327  15.546   5.511 -0.1674  0.0467 -0.0029
26303W        W43150   4.763   0.525   3.361 -0.2660  0.0868 -0.1655
26304W        W43151   4.190  11.019   5.238  0.1151  0.1040  0.1368
26305W        W43152   3.283   7.261  11.616  0.2698 -0.1418 -0.1354
26306W        W43153   6.775  14.450  13.024  0.1442 -0.0651 -0.0499
26307W        W43154  17.113   3.876   0.600 -0.3609 -0.0486  0.1319
26308W        W43155  10.284   2.863  13.345  0.0360 -0.1257 -0.2361
26309W        W43156   9.046   5.332   2.174 -0.1375 -0.3182 -0.0672
26310W        W43157  12.972   8.733  15.174  0.1325 -0.0395  0.2059
26311W        W43158   0.738   5.978  14.204 -0.1829  0.1595  0.0699
26312W        W43159   8.520   8.696  15.780 -0.1716 -0.2921  0.0590
26313W        W43160  14.633  13.824   5.762 -0.2899  0.0921  0.0995
26314W        W43161   0.494   2.707  10.922 -0.2309  0.0895 -0.1070
26315W        W43162   4.059   4.243  11.779  0.0652 -0.0371  0.5842
26316W        W43163   0.463  12.285   2.588 -0.3089  0.0967 -0.2261
26317W        W43164   3.344   4.632  13.347  0.1020 -0.2019  0.0863
26318W        W43165  12.902   3.954   2.664 -0.0069  0.0218 -0.2194
26319W        W43166  11.929   5.727  12.109  0.0434 -0.1670  0.1487
26320W        W43167   6.949   9.490   1.680  0.3233  0.0234 -0.0462
26321W        W43168  14.623  18.005  11.432  0.3842 -0.1715  0.4509
26322W        W43169   2.685  10.229  11.896 -0.0536 -0.0912  0.1616
26323W        W43170   6.055   3.584   4.034 -0.0196 -0.0406  0.0872
26324W        W43171   4.600   1.717  13.976  0.0742 -0.2287  0.0539
26325W        W43172   8.142   6.525   2.508 -0.0401 -0.4964 -0.2449
26326W        W43173   8.818  12.632   1.343  0.3930 -0.1022 -0.3507
26327W        W43174  13.923  17.575  16.604  0.0590  0.0791 -0.2604
26328W        W43175   6.481  14.500   4.601  0.0890 -0.2477 -0.1309
26329W        W43176   1.909  11.338   1.882 -0.2092  0.3481  0.0766
26330W        W43177  13.760  14.450  16.370 -0.0296  0.3941 -0.0279
26331W        W43178  17.792   0.774  12.979  0.2660 -0.1548  0.1835
26332W        W43179  16.457   1.258  12.411 -0.0633 -0.1715  0.1817
26333W        W43180  15.786   8.700  15.153  0.2234 -0.1254  0.2236
26334W        W43181  15.929   2.333   0.262 -0.0934 -0.2246  0.1521
26335W        W43182   7.511   3.019  15.145  0.1697  0.0966 -0.0841
26336W        W43183   1.026   3.402   3.685 -0.2707  0.1908 -0.0558
26337W        W43184  17.555   8.634  13.822  0.4351  0.0597 -0.2269
26338W        W43185  11.014   1.774  11.423 -0.0993  0.1385 -0.0766
26339W        W43186  13.645  15.768  14.073  0.3729 -0.1027 -0.1055
26340W        W43187  17.573  10.503  14.098  0.0058  0.3458 -0.1623
26341W        W43188   3.456  17.284  14.732 -0.1779 -0.0260  0.4688
26342W        W43189   4.011  17.032  15.325 -0.1316 -0.2466  0.1453
26343W        W43190  11.361  17.892   1.575 -0.2075  0.2040  0.1397
26344W        W43191   7.169   4.091   5.255  0.0664  0.0497 -0.1415
26345W        W43192   4.216  16.869  13.230  0.0797  0.0483 -0.1076
26346W        W43193  17.716   3.183   2.188 -0.0419  0.0545 -0.0166
26347W        W43194  12.654  11.395  11.997 -0.0357  0.0269  0.0677
26348W        W43195  18.030   0.820   5.021 -0.2808 -0.1458 -0.1045
26349W        W43196   7.886  14.975   1.216 -0.1176  0.1918  0.3967
26350W        W43197  10.765  15.541   2.537  0.1875  0.0524 -0.2431
26351W        W43198   3.575   9.939  15.207  0.0334 -0.2756  0.0199
26352W        W43199   6.089   0.228   1.600  0.0673  0.0706  0.1274
26353W        W43200  11.524   9.545  13.746 -0.1159 -0.3223  0.0483
26354W        W43201   3.942  10.961   4.079 -0.2800  0.2456  0.1427
26355W        W43202   5.795   4.188  15.930  0.0188 -0.2733 -0.1500
26356W        W43203  15.650  12.994   4.039  0.1338  0.1787  0.1402
26357W        W43204   7.464   2.556  13.778 -0.2047  0.3550  0.0574
26358W        W43205   4.846   9.209   2.908 -0.1131 -0.0290  0.0228
26359W        W43206  13.093   6.194  12.355 -0.1758 -0.2733 -0.0086
26360W        W43207   9.029  16.666  14.669  0.2614 -0.0135 -0.0978
26361W        W43208  15.749   0.189  15.009  0.1620  0.1651 -0.0712
26362W        W43209   7.326   2.922   1.630 -0.0097 -0.3657 -0.1770
26363W        W43210  13.120  13.036  11.142 -0.0233 -0.2979 -0.0414
26364W        W43211   2.021  16.960  13.072 -0.0750 -0.0305 -0.1705
26365W        W43212   6.218   3.907   3.053 -0.1731 -0.0471  0.0742
26366W        W43213   2.530  15.623  12.444  0.0438 -0.2953 -0.0485
26367W        W43214  10.115   8.360   4.772 -0.2127  0.2451  0.1727
26368W        W43215  15.824  14.869   3.838 -0.0063  0.0043 -0.0536
26369W        W43216   0.205   7.913  12.456  0.0049  0.1367 -0.1856
26370W        W43217  10.151   0.545   1.866  0.1675 -0.0970  0.0269
26371W        W43218  13.729   7.170  14.612  0.0463 -0.3432  0.4489
26372W        W43219  15.060   3.691  11.562  0.2469 -0.0536 -0.2113
26373W        W43220   2.300   0.451  15.175 -0.4155  0.0662  0.1347
26374W        W43221   9.225  14.738  14.358  0.0824  0.0767  0.0813
26375W        W43222   4.124  17.495  13.868 -0.0731  0.0056  0.0347
26376W        W43223  17.211  15.856  12.815  0.0425 -0.1182  0.1959
26377W        W43224  12.570   8.011   2.332 -0.0460 -0.1424  0.1706
26378W        W43225  17.734  16.597  13.010  0.2215  0.5085  0.0857
26379W        W43226  16.456  11.065   2.101 -0.0467  0.2018 -0.2018
26380W        W43227   6.154  10.602   2.021 -0.0293  0.3022  0.1590
26381W        W43228  11.191  13.419   2.283 -0.1690 -0.0081 -0.0128
26382W        W43229  15.808  16.635   3.313 -0.0530 -0.0642 -0.5466
26383W        W43230  16.289   7.038  11.572 -0.1404  0.2159 -0.3219
26384W        W43231  12.195  12.281  12.539  0.1309  0.2444 -0.1509
26385W        W43232   0.113  13.657  12.093 -0.4416 -0.0123 -0.2850
26386W        W43233   3.898   8.994  12.984  0.2046 -0.0508  0.0417
26387W        W43234   1.054  11.602   2.858  0.1944  0.1028  0.0407
26388W        W43235  16.078  14.783   0.148 -0.0620  0.2365 -0.0082
26389W        W43236  17.153  15.518   5.692  0.0276 -0.2997  0.1475
26390W        W43237   9.954   0.979  12.669  0.0108  0.0764  0.0989
26391W        W43238  13.959  17.239  13.646  0.2446 -0.0900 -0.3821
26392W        W43239   8.938   3.068   0.800 -0.4123  0.1431  0.0477
26393W        W43240  16.199  11.037  14.835  0.1523  0.2003  0.0726
26394W        W43241   1.575   2.509   0.594 -0.1726 -0.0508  0.0430
26395W        W43242  13.789   1.789   2.081  0.0967  0.3801  0.0346
26396W        W43243  12.583  13.691   0.369 -0.0210 -0.0306  0.1061
26397W        W43244  12.561   9.558   0.387 -0.0746  0.2435 -0.1528
26398W        W43245   8.441   9.873  15.197  0.3151 -0.4016 -0.0119
26399W        W43246  12.303   9.378  11.897  0.2729  0.1846 -0.3635
26400W        W43247   8.592  17.914   2.327  0.0784  0.1283 -0.0325
26401W        W43248   6.036   3.275  13.078  0.0182 -0.2964 -0.4556
26402W        W43249  17.185   9.937   4.584  0.0814  0.0567 -0.0486
26403W        W43250   4.242   3.621   5.805 -0.2073 -0.2335  0.1354
26404W        W43251   0.243   2.099   4.399 -0.0906  0.0526 -0.0304
26405W        W43252   3.708   5.146   5.120 -0.0551 -0.0844 -0.1670
26406W        W43253  14.007   6.186   3.736 -0.2560 -0.2157 -0.1257
26407W        W43254  10.926   8.465   5.435  0.0270 -0.1062 -0.1312
26408W        W43255   9.635  12.972   1.861 -0.2160 -0.1700  0.0230
26409W        W43256   4.967   2.021  14.733 -0.1689 -0.1360 -0.0374
26410W        W43257  10.479   3.152   1.113 -0.1373  0.1589  0.1006
26411W        W43258   5.475   3.980   3.117 -0.0595  0.1715 -0.2409
26412W        W43259  16.972  15.635   1.239  0.0948  0.1313 -0.2134
26413W        W43260   1.526  14.418  16.355  0.0990 -0.0086 -0.0020
26414W        W43261   3.152   7.233  15.701 -0.0536 -0.0401  0.3042
26415W        W43262  13.933  13.905  12.118  0.3488  0.0688  0.3240
26416W        W43263   0.216   6.518  14.948 -0.0435 -0.0602 -0.1856
26417W        W43264  13.795   0.942  16.511 -0.1013  0.0971  0.0858
26418W        W43265   2.486   6.575  14.253 -0.0117  0.3112 -0.0615
26419W        W43266  14.965  11.583   6.425 -0.1495 -0.2628 -0.2424
26420W        W43267   1.900   3.717   3.055 -0.0403 -0.0173 -0.1820
26421W        W43268   3.245   5.113   1.983  0.0564  0.1288 -0.1881
26422W        W43269   0.970   7.560   4.622 -0.2665 -0.0014 -0.1432
26423W        W43270  14.194   0.404  14.453  0.1690 -0.0960 -0.1216
26424W        W43271   9.390  10.742   2.785  0.1392 -0.2131 -0.0129
26425W        W43272  14.214   6.879   2.721 -0.0688 -0.0032  0.0706
26426W        W43273   3.991   0.060  12.794 -0.3032  0.0544 -0.0323
26427W        W43274   7.554   6.599  11.490 -0.1758  0.0077 -0.2265
26428W        W43275  13.818  12.368   2.042 -0.2840  0.4164 -0.3104
26429W        W43276   4.155   8.877   5.431  0.0072  0.0565  0.1023
26430W        W43277   7.806   3.342   1.995  0.1417  0.2148 -0.1813
26431W        W43278   2.257  14.026   4.263  0.2542 -0.1427  0.0824
26432W        W43279   1.272  14.710   3.648 -0.0208 -0.0530 -0.1745
26433W        W43280  18.108  14.362   3.120  0.2815  0.0891 -0.0491
26434W        W43281   7.460  11.149   4.920  0.1624  0.0688  0.2530
26435W        W43282  11.871   7.813   2.242 -0.0494  0.2557 -0.3954
26436W        W43283   4.305  15.032   5.962 -0.2410  0.0856 -0.0329
26437W        W43284   1.630   4.069  15.695 -0.0924 -0.1559 -0.0094
26438W        W43285  11.104   8.604  14.892  0.0647  0.1614 -0.3578
26439W        W43286  14.533  17.473  13.159 -0.1992  0.0038 -0.1407
26440W        W43287   9.533   4.195   4.313  0.1240  0.1306  0.2184
26441W        W43288  17.711  16.666  14.259 -0.1938  0.1908 -0.1836
26442W        W43289  15.452  16.903  14.733  0.2460  0.0438  0.0437
26443W        W43290   7.919   6.807  12.871  0.2680 -0.0304 -0.4505
26444W        W43291   6.572   5.853   2.586  0.0484 -0.1424  0.1805
26445W        W43292   5.868   7.200   3.910 -0.0358  0.3363  0.1424
26446W        W43293  11.610   9.990  15.835  0.0580  0.0226 -0.2131
26447W        W43294  11.495  15.109  15.725 -0.0411  0.1370  0.1144
26448W        W43295  15.415  12.882   2.253 -0.1033  0.1827 -0.1503
26449W        W43296   6.737   1.154   1.264  0.0816  0.1244 -0.2792
26450W        W43297   3.548  11.290  14.556  0.0997  0.2420 -0.2263
26451W        W43298  13.273   1.303   6.105  0.3190 -0.2170  0.2752
26452W        W43299   6.204   6.909  15.994 -0.0324  0.1537  0.1140
26453W        W43300  12.032  11.935  14.687 -0.0999 -0.1708 -0.0398
26454W        W43301  17.853  14.773   1.724  0.3755 -0.0030  0.2224
26455W        W43302  13.336   9.285   2.119  0.0257 -0.0902  0.0007
26456W        W43303  16.367  17.791  14.954  0.1836 -0.0663  0.1824
26457W        W43304   8.756   5.150   4.194 -0.0120  0.3021  0.0614
26458W        W43305  17.518  15.021   3.955  0.0187  0.3059  0.0984
26459W        W43306  15.532   1.399  12.112  0.0971  0.1833  0.1744
26460W        W43307  11.429   8.904   4.904 -0.0776  0.0083  0.1608
26461W        W43308  10.024  18.007  13.186  0.2392  0.2770  0.0662
26462W        W43309   3.430  11.897  12.948  0.1213 -0.1292  0.2633
26463W        W43310   5.924   6.821   2.520 -0.2087  0.2768 -0.1860
26464W        W43311  12.127  17.893  14.796  0.0891 -0.2379 -0.0993
26465W        W43312   1.023   8.829  16.214 -0.0768  0.1312  0.4997
26466W        W43313  12.804  13.965  14.201  0.2088  0.2247 -0.0346
26467W        W43314   9.159  11.846   1.333 -0.3024  0.1328  0.3383
26468W        W43315  15.467   5.227  11.196 -0.0380  0.2806 -0.0510
26469W        W43316  12.075   5.177  11.903  0.0504 -0.1554  0.1824
26470W        W43317  16.001   8.786   4.328  0.2498  0.1894 -0.1922
26471W        W43318   2.280  13.474  14.767  0.0024 -0.2702  0.3704
26472W        W43319   3.972  16.403  12.601 -0.0421 -0.3166 -0.2033
26473W        W43320  10.138  14.328   1.592 -0.2814 -0.1333 -0.1021
26474W        W43321   4.300   7.936  11.394 -0.0590 -0.0458  0.1889
26475W        W43322   7.065   5.325   4.168  0.2539  0.1993 -0.2780
26476W        W43323   2.831   1.145   2.783  0.0860  0.1234  0.0393
26477W        W43324  15.794   6.089  14.695  0.0027 -0.0825 -0.2626
26478W        W43325  10.615   4.953  10.612  0.2045  0.0139  0.0486
26479W        W43326   6.088  10.126  16.367 -0.4272  0.0338  0.0867
26480W        W43327   4.464   5.637  15.249  0.0462  0.1844  0.0202
26481W        W43328  17.275  12.861   4.961  0.0625 -0.0022  0.4126
26482W        W43329   9.696  10.845   3.558  0.1090 -0.0313  0.1801
26483W        W43330   5.157   4.321   5.245  0.0923  0.0342 -0.0474
26484W        W43331  17.359   3.980   2.563  0.3218  0.0648  0.1033
26485W        W43332  15.704   1.370  12.606  0.0589  0.0862 -0.3351
26486W        W43333   4.941  16.319  13.670  0.3836 -0.1522  0.1340
26487W        W43334  17.068  11.732   4.146 -0.3026 -0.0873 -0.0962
26488W        W43335  15.403   4.858  14.320  0.2804  0.2994  0.0067
26489W        W43336   6.903  10.429  12.817  0.1427  0.0127  0.0369
26490W        W43337   9.222  17.104   2.220 -0.1734  0.1785  0.1937
26491W        W43338  16.225   7.754   2.554 -0.1314 -0.0171 -0.0856
26492W        W43339   4.166   8.395  12.260 -0.0479 -0.1106 -0.1846
26493W        W43340   3.307  14.070   2.444  0.0535  0.2459  0.0131
26494W        W43341   3.666  17.924   2.131 -0.4620 -0.3905  0.2821
26495W        W43342  16.733  15.515  13.322  0.2585 -0.0163  0.4241
26496W        W43343   8.939  13.370   3.129 -0.0231  0.2010  0.1475
26497W        W43344   1.813   1.086   3.428  0.3262 -0.0078 -0.0782
26498W        W43345  10.304   7.403  13.129 -0.0788  0.3248 -0.0440
26499W        W43346   6.081  14.057   4.430 -0.2499 -0.1361  0.0107
26500W        W43347  10.408  13.275   2.346 -0.0132  0.1143 -0.1617
26501W        W43348  10.641  12.456   0.624 -0.0418  0.4188 -0.0089
26502W        W43349  15.063   2.218   5.690 -0.0642 -0.0594  0.1265
26503W        W43350  13.885   7.035   2.072  0.1622  0.0604  0.0084
26504W        W43351  16.118  16.486  11.292  0.1909  0.0603  0.1494
26505W        W43352   9.279  17.002   4.674  0.0689  0.3572 -0.1711
26506W        W43353  14.698  18.108   2.303 -0.0786 -0.0666 -0.0909
26507W        W43354  14.341   8.245   4.170 -0.0737  0.3061 -0.4014
26508W        W43355   1.464   4.415  11.306  0.0109  0.1574 -0.0564
26509W        W43356   2.428   2.260  14.638 -0.2234  0.0500  0.3095
26510W        W43357  17.919  14.873   4.791  0.0460  0.1661 -0.2667
26511W        W43358  16.757  18.164  14.812 -0.0962  0.1661  0.4054
26512W        W43359   4.629   1.412  15.727  0.0357  0.0471 -0.0420
26513W        W43360   2.977  13.850   1.396  0.0538  0.0779 -0.2429
26514W        W43361   9.619  14.837  10.524 -0.0434 -0.0433 -0.0453
26515W        W43362   9.521   7.777   1.706  0.1113 -0.2050 -0.1342
26516W        W43363   6.295  14.827  12.502  0.2745 -0.1590  0.0733
26517W        W43364   9.527   4.853   0.702 -0.2588  0.0021 -0.1664
26518W        W43365  14.934  12.183   2.496 -0.1826 -0.0196  0.0035
26519W        W43366   9.970   6.650  14.779  0.2025  0.3595  0.0231
26520W        W43367  13.974   0.772   4.540  0.0967 -0.1478 -0.1836
26521W        W43368   4.980   5.377  13.158  0.4586  0.0279  0.1164
26522W        W43369   3.057  17.149  13.823  0.0356  0.0761  0.0096
26523W        W43370   3.478  16.692   1.217  0.2970  0.0925  0.0497
26524W        W43371  12.658   1.401   2.185 -0.0657  0.0128 -0.0425
26525W        W43372   9.182  12.456  12.169 -0.0219 -0.2554 -0.2598
26526W        W43373   4.349   5.355   3.111  0.0481 -0.0031 -0.1502
26527W        W43374  17.678   7.424  13.387 -0.3701  0.0047 -0.3479
26528W        W43375  12.889   5.145   4.330  0.2151 -0.0647  0.2421
26529W        W43376  17.865  16.737   6.309 -0.1872  0.4334 -0.1494
26530W        W43377  11.151  17.037  12.892  0.2596  0.1622 -0.0084
26531W        W43378   6.804  12.991  15.912 -0.0104 -0.0292  0.1993
26532W        W43379  10.580   6.108   1.370 -0.1007  0.1049 -0.1584
26533W        W43380  16.941   4.174  15.811  0.0976  0.2718  0.0483
26534W        W43381  15.937  13.535  13.980  0.1604  0.1014  0.0010
26535W        W43382  14.561   3.728  14.999 -0.0010 -0.0076  0.2253
26536W        W43383  14.383   4.226  12.561 -0.0637 -0.2071 -0.3969
26537W        W43384   4.045   2.171  15.959 -0.0434 -0.4834 -0.0174
26538W        W43385   5.126  16.499   3.776  0.0798 -0.2330  0.0847
26539W        W43386   0.823   9.925   1.977 -0.2751  0.0380  0.0236
26540W        W43387  10.745   5.561   1.504  0.1258  0.2414 -0.0952
26541W        W43388   4.185  13.273  14.579 -0.1589 -0.2773  0.1472
26542W        W43389   6.813   3.505   0.039 -0.2233 -0.2425 -0.2585
26543W        W43390  11.956   3.631   3.818 -0.0860 -0.0837 -0.1633
26544W        W43391   1.554  17.898  15.431 -0.2401  0.1811 -0.0332
26545W        W43392   5.622  15.401   4.762  0.0067  0.2956 -0.0611
26546W        W43393  10.887   6.000  13.533  0.1126  0.2312 -0.0049
26547W        W43394  11.483  17.990   2.632  0.0107 -0.0920 -0.0134
26548W        W43395   7.880  13.071   1.751 -0.1579 -0.1085 -0.0250
26549W        W43396  16.031   8.772  12.951  0.0804 -0.1636  0.1048
26550W        W43397   1.680   2.571   2.334  0.3677  0.3193  0.0238
26551W        W43398   1.612  15.735   0.410  0.1147  0.3559 -0.2718
26552W        W43399  13.040   7.638  16.283  0.1277 -0.1112 -0.2288
26553W        W43400   6.664  10.886  12.834  0.2077 -0.2080  0.1168
26554W        W43401  16.236   6.043  16.523 -0.4798 -0.0978  0.0523
26555W        W43402   7.120   7.234  11.665 -0.0409 -0.0022 -0.0339
26556W        W43403  11.318   1.345  15.843 -0.0712  0.1013  0.2600
26557W        W43404  17.927  13.855   4.465 -0.3266  0.3683  0.1897
26558W        W43405  13.991   1.209   3.077 -0.0816  0.2581 -0.1109
26559W        W43406   0.742   7.340   1.870 -0.1203  0.1213  0.1109
26560W        W43407   8.935   2.745   3.610  0.1067  0.2707 -0.1735
26561W        W43408  16.251   1.840   1.024 -0.1184  0.0519 -0.2580
26562W        W43409  10.246   3.787  12.192  0.1147  0.2155  0.0070
26563W        W43410  18.159   4.710  16.224 -0.1337 -0.2697 -0.1807
26564W        W43411  12.476  16.337   2.508  0.3175 -0.1887  0.0576
26565W        W43412   1.170   0.083   2.500  0.0138 -0.3400  0.0704
26566W        W43413  14.936  17.441  14.356 -0.2198  0.1655  0.2236
26567W        W43414  15.489   7.909   1.143 -0.1186  0.0309 -0.1053
26568W        W43415   1.365   3.051   5.106  0.2530  0.4583 -0.1982
26569W        W43416   8.728   9.789  13.688 -0.1490  0.0676  0.0085
26570W        W43417  16.504   0.908   3.186  0.0028  0.3341  0.2130
26571W        W43418   7.790   0.173  11.802 -0.0296 -0.0970  0.5820
26572W        W43419   7.470   6.537  14.752 -0.0716 -0.0126  0.0568
26573W        W43420   1.540  11.789   2.877 -0.0961  0.1884  0.0380
26574W        W43421   8.904   2.373  15.579  0.0889 -0.1417  0.3658
26575W        W43422   2.982  12.790   1.415 -0.3334 -0.1335  0.1019
26576W        W43423  17.292  17.273  13.805 -0.1461  0.0926 -0.2423
26577W        W43424   1.650   3.830  13.613  0.0841 -0.2602 -0.2621
26578W        W43425  15.321  15.943   5.976 -0.0560  0.4037 -0.0530
26579W        W43426  11.050  11.582  13.160  0.1850 -0.0585 -0.0720
26580W        W43427  12.003  10.245  14.494 -0.0110  0.0939 -0.2459
26581W        W43428  15.511   2.200  16.431  0.1449 -0.0441 -0.2673
26582W        W43429   5.346  16.951  12.501  0.1790  0.1416  0.0687
26583W        W43430   4.370  14.610   2.759  0.3465 -0.2778 -0.1254
26584W        W43431  15.177  15.459  16.238 -0.0563  0.1666  0.0978
26585W        W43432   2.006  14.252   2.659  0.2156  0.2313  0.0463
26586W        W43433   2.162  16.332  14.520  0.2768  0.0899 -0.1613
26587W        W43434   2.577  17.554   5.241 -0.3543 -0.1163  0.2627
26588W        W43435   7.613   8.255  15.681  0.0988 -0.2014  0.1184
26589W        W43436  17.347  13.223  12.920  0.2230 -0.0646 -0.0053
26590W        W43437  16.872   7.020  14.094  0.1980  0.3070 -0.0345
26591W        W43438   3.391  16.152   5.261  0.2257 -0.1262  0.0271
26592W        W43439  16.599   0.786   2.214 -0.2494  0.0813 -0.0363
26593W        W43440  14.337   1.645  13.790  0.2975 -0.0315 -0.0064
26594W        W43441   8.104   5.105  12.561 -0.1076 -0.0600  0.0528
26595W        W43442   3.903  16.833   4.766 -0.1041 -0.2518  0.0637
26596W        W43443   1.213  13.594   2.535  0.2073 -0.0884  0.0781
26597W        W43444  16.222  12.069  11.133  0.0916  0.0398  0.0140
26598W        W43445   6.695  15.979   2.474 -0.1013 -0.0441 -0.1214
26599W        W43446   7.620  13.574   2.523 -0.0820  0.0090  0.0350
26600W        W43447   2.053   9.058  14.463 -0.1715 -0.0168  0.1542
26601W        W43448  13.625  16.419   2.796 -0.1255  0.0545 -0.1210
26602W        W43449  14.249  10.939   1.682 -0.0292  0.1351  0.2106
26603W        W43450   6.554   5.397  11.872 -0.1677  0.1889  0.1915
26604W        W43451   0.993   8.896   5.975  0.2040  0.2794  0.0540
26605W        W43452   7.115   6.214   4.528  0.0044  0.1508  0.2339
26606W        W43453   6.075   5.236  12.086 -0.3588 -0.0536 -0.1531
26607W        W43454  13.507   5.068  12.414 -0.2425  0.2077  0.2240
26608W        W43455  13.459   6.372   1.641  0.1293 -0.2307  0.1358
26609W        W43456   6.234   7.714  11.944  0.4023 -0.0339  0.2297
26610W        W43457   1.884  14.732  16.040 -0.1185  0.1937  0.0397
26611W        W43458   9.098  13.097   5.261  0.1129  0.3434  0.1613
26612W        W43459   7.939   6.267  14.931  0.0229  0.0420  0.0509
26613W        W43460  17.720   2.808  15.523  0.1942  0.1714  0.2075
26614W        W43461  10.206  16.797  15.009  0.0494  0.0254  0.1903
26615W        W43462   6.896  10.310  15.899  0.4039  0.1853 -0.0121
26616W        W43463  16.304  17.413   1.427  0.0947  0.0451 -0.1769
26617W        W43464   6.779   5.050   4.510  0.2183 -0.1912 -0.2444
26618W        W43465  10.087  14.433  13.961 -0.0096 -0.1144 -0.2567
26619W        W43466   5.636  10.882   4.477  0.1943  0.0446 -0.0128
26620W        W43467  12.618  10.919   1.913  0.2610 -0.0167  0.1215
26621W        W43468  11.760   2.486   4.377 -0.2211  0.0533 -0.0243
26622W        W43469   7.348  15.938  16.142 -0.1409 -0.2581  0.3478
26623W        W43470   6.649   7.081  15.918  0.0497  0.0057  0.1039
26624W        W43471  10.527   7.023   5.572  0.2936 -0.5312  0.2428
26625W        W43472   2.061  10.325  13.318 -0.1527  0.0168  0.1406
26626W        W43473   3.235  11.141  12.091 -0.4334 -0.0840  0.1114
26627W        W43474   1.247   3.538   1.517  0.2306  0.0804 -0.0203
26628W        W43475   2.435   9.588   2.044  0.0994 -0.0491 -0.0742
26629W        W43476  14.306   0.166   2.104  0.1133  0.1438  0.0428
26630W        W43477   6.566  11.177  12.431 -0.0030  0.0168 -0.1767
26631W        W43478   9.440   0.429   1.592  0.1276  0.0071  0.1538
26632W        W43479   5.071   5.833  13.832  0.3010 -0.1091  0.0128
26633W        W43480   2.501   6.464  13.267 -0.1058 -0.1946 -0.0131
26634W        W43481  10.861   7.370  15.161  0.0051  0.0589  0.0205
26635W        W43482   0.561   9.192   5.004  0.3993  0.2723 -0.0761
26636W        W43483  16.907   7.075   2.520 -0.2879 -0.0813 -0.2787
26637W        W43484   4.786   7.835  15.358  0.1895 -0.1180 -0.0296
26638W        W43485  14.099  13.709   0.440  0.2313 -0.1765 -0.2730
26639W        W43486   1.718   0.011   0.767 -0.0700  0.0509  0.1706
26640W        W43487   2.557   0.573   3.306  0.1961 -0.0570 -0.0168
26641W        W43488   3.166   6.874   6.052 -0.0461 -0.1304 -0.3171
26642W        W43489   7.315  10.080   2.893 -0.2091  0.1614  0.0478
26643W        W43490   7.519  11.755   1.393 -0.0642  0.1196 -0.3515
26644W        W43491   9.683  18.134   3.373 -0.0069 -0.2007 -0.0084
26645W        W43492   8.665   2.412  13.321  0.3994 -0.1816  0.2282
26646W        W43493  15.785  15.926   5.719  0.0684 -0.1734  0.1579
26647W        W43494  12.271  10.991  11.115 -0.0253  0.1962  0.3718
26648W        W43495  18.102   4.647  14.236  0.1608  0.0851  0.0739
26649W        W43496   6.691  12.676   5.386 -0.1251  0.1084  0.1964
26650W        W43497  15.813   0.652   4.713 -0.0914  0.3280  0.1879
26651W        W43498  17.267   6.176   1.463  0.0271 -0.0665 -0.2357
26652W        W43499  17.627   3.455  14.865 -0.2074 -0.2260  0.0565
26653W        W43500  15.979   7.822  16.193  0.0610 -0.0390 -0.0169
26654W        W43501  13.521   9.566   3.408 -0.2192  0.0062  0.1011
26655W        W43502   8.663   6.616   4.875 -0.1310  0.0377  0.0818
26656W        W43503   1.955  12.139  16.190  0.0375  0.0286  0.0340
26657W        W43504   4.379  17.061  16.192  0.0010 -0.2866 -0.1469
26658W        W43505  17.280   2.063  15.231  0.0896 -0.1359 -0.0348
26659W        W43506  15.309   6.196  14.803 -0.2557  0.1603 -0.0222
26660W        W43507  13.290   8.578   0.755 -0.1748  0.1063 -0.1462
26661W        W43508   0.143  15.654  14.424 -0.1009 -0.2312 -0.2139
26662W        W43509   5.514  13.369   3.051  0.0786 -0.0197 -0.3051
26663W        W43510   7.712   4.447  15.589 -0.0132  0.4914  0.0221
26664W        W43511  17.116   6.561  15.884  0.2681 -0.2853 -0.0945
26665W        W43512   1.251   2.310   0.154  0.1279  0.4274  0.1971
26666W        W43513   1.714   1.002  14.317  0.0000  0.2290 -0.0331
26667W        W43514  10.437   0.938  12.931  0.1940  0.3314 -0.0882
26668W        W43515   7.193   7.058   2.719  0.0205  0.2056  0.2319
26669W        W43516  10.207  15.570  15.671 -0.0203  0.3063  0.2785
26670W        W43517   1.170   7.945   3.997 -0.1985  0.1650 -0.0928
26671W        W43518  12.952  13.497   0.680  0.0276 -0.3375 -0.0134
26672W        W43519   1.162  16.956   2.242  0.3816  0.1382  0.1972
26673W        W43520   9.644  13.818  15.403  0.0351  0.0048  0.1160
26674W        W43521  13.737  15.541   4.389 -0.1423  0.1115 -0.1619
26675W        W43522   2.376  11.614   2.117  0.1482 -0.0632  0.2254
26676W        W43523   2.857   8.873   5.839 -0.0022 -0.2569  0.0041
26677W        W43524   7.125   9.069  16.217  0.1935 -0.3011  0.0772
26678W        W43525   8.886  11.236  14.913 -0.1250 -0.2546  0.1750
26679W        W43526   6.898  12.153   1.342  0.0651  0.0330  0.1520
26680W        W43527   6.114   3.457   0.553  0.3335 -0.0011 -0.0836
26681W        W43528   8.645   5.363   0.295  0.0890 -0.0267  0.0804
26682W        W43529  13.702   2.601   3.421  0.3342 -0.1746 -0.1357
26683W        W43530  10.668   2.625  15.378 -0.0455 -0.1613  0.2376
26684W        W43531  10.451   8.769   4.649 -0.0209  0.2285 -0.2646
26685W        W43532   7.873   3.446   3.350 -0.0087 -0.0675  0.0831
26686W        W43533  17.514   2.761  11.842  0.1517  0.0759 -0.1315
26687W        W43534   5.764   6.261   4.463  0.2395 -0.0070  0.0185
26688W        W43535   3.075  15.391  12.395 -0.0484 -0.0441 -0.0488
26689W        W43536   9.885   9.592  15.139  0.2684 -0.0526 -0.0424
26690W        W43537   9.759   0.886   0.538 -0.0350 -0.0642 -0.1047
26691W        W43538   4.226   0.998   0.926 -0.0091 -0.0612  0.0610
26692W        W43539   9.157  12.208  12.696  0.0964  0.4031  0.0946
26693W        W43540   0.588  12.864  14.722  0.3336  0.2071 -0.0626
26694W        W43541   6.550  14.862   1.562 -0.3240  0.2623 -0.1434
26695W        W43542   3.665   1.383   1.485 -0.1728 -0.2198  0.2399
26696W        W43543   5.106  10.468   4.056  0.1546  0.2025  0.1127
26697W        W43544  10.893   9.625   1.105  0.0360 -0.1098 -0.2944
26698W        W43545  11.289   1.799   4.595  0.0771  0.1748 -0.1788
26699W        W43546  12.381   5.725   3.492  0.0562  0.1190  0.0020
26700W        W43547  16.409  15.145  15.996 -0.2470  0.0394  0.0194
26701W        W43548  15.620  16.418   1.842  0.1270 -0.0258  0.0344
26702W        W43549   6.920   5.719   4.724  0.1625  0.0822  0.1178
26703W        W43550  10.631   3.559   3.041 -0.0034 -0.1966  0.1377
26704W        W43551   4.816   3.429   3.322 -0.0302 -0.0107 -0.1054
26705W        W43552   2.597   5.910  13.247  0.1161  0.0343 -0.1041
26706W        W43553   3.994  15.665  15.213 -0.0537 -0.2407  0.1323
26707W        W43554  10.863  12.916   4.689 -0.0402  0.2232 -0.0958
26708W        W43555  17.240  11.879   4.655 -0.3669  0.2538 -0.1742
26709W        W43556   7.962  15.724   1.775 -0.1793  0.0627 -0.2288
26710W        W43557   4.084  16.578   3.850 -0.3821  0.1749 -0.2671
26711W        W43558  13.007   7.302  11.535  0.4116 -0.0084 -0.1049
26712W        W43559   6.292   1.484   1.544  0.1147 -0.1610  0.5674
26713W        W43560  17.780   3.879  13.561 -0.0812 -0.0190  0.0895
26714W        W43561   2.314   8.850   4.622 -0.0199 -0.2400 -0.2428
26715W        W43562  16.980  15.085  16.374  0.2382  0.0517 -0.0369
26716W        W43563   6.246  12.704   4.397 -0.2084 -0.2268  0.0369
26717W        W43564  16.840  17.110  12.992  0.0837  0.0481 -0.0738
26718W        W43565  16.461  14.583  13.223  0.0557 -0.2094 -0.1223
26719W        W43566   4.769  16.358  12.045  0.1796  0.0732  0.3422
26720W        W43567  12.596   3.379   4.937  0.1127  0.3350  0.1492
26721W        W43568   5.760   2.787  14.115  0.0954 -0.1209  0.0303
26722W        W43569   5.308  15.261   3.327  0.0562 -0.0409  0.0415
26723W        W43570   8.502   4.333   1.330  0.0411  0.0441 -0.0037
26724W        W43571   5.644  12.088  12.273 -0.1649  0.0496 -0.0987
26725W        W43572  14.288   1.149  14.881  0.1227  0.1310  0.1049
26726W        W43573   8.195  12.658   3.411 -0.0223 -0.1254 -0.2736
26727W        W43574   9.088  10.948  15.249 -0.0230 -0.0281  0.0827
26728W        W43575  17.851   9.056  12.977 -0.0918  0.0387 -0.0082
26729W        W43576   0.923   0.162  13.496  0.3385 -0.1389 -0.2648
26730W        W43577   7.055   4.252   0.072  0.0892  0.3857 -0.4208
26731W        W43578  17.649   9.909   0.180 -0.2230  0.2148 -0.1879
26732W        W43579  11.136  11.098  13.086  0.1031  0.0972  0.0978
26733W        W43580  13.791   4.280   3.620 -0.2787 -0.1593  0.1082
26734W        W43581  15.084   7.954  12.974  0.3010  0.0213  0.0314
26735W        W43582  11.464   8.141   1.282  0.1207  0.1036  0.3551
26736W        W43583   6.214   9.791   2.741 -0.2701 -0.0197  0.1387
26737W        W43584   0.041  11.121  13.299  0.2120 -0.1739 -0.2024
26738W        W43585   6.708  14.425  15.900 -0.3246 -0.0181  0.0396
26739W        W43586  17.904   1.941   4.072  0.1264  0.0789  0.2591
26740W        W43587   7.181  12.911   4.651 -0.0014  0.0205  0.2908
26741W        W43588  11.459   0.420   2.637 -0.0456 -0.0411 -0.1077
26742W        W43589   4.635   9.661  16.101  0.0770  0.5294 -0.1865
26743W        W43590  10.106   8.165   1.055 -0.1063 -0.0650  0.0587
26744W        W43591   5.569   6.594  15.384  0.0311 -0.0098 -0.1000
26745W        W43592  10.317  17.793   1.003  0.2756  0.1468  0.1473
26746W        W43593   5.796   7.530  11.800  0.1453 -0.0213  0.2317
26747W        W43594   6.743  14.944  15.963  0.3382  0.0402  0.2353
26748W        W43595   8.750   5.840   0.090 -0.0308  0.0160  0.3339
26749W        W43596  12.086   1.406   4.165  0.2031 -0.0111  0.1823
26750W        W43597   3.157  14.956  14.271  0.0255 -0.2995  0.0892
26751W        W43598   1.595  10.798   1.229  0.0774 -0.0958  0.1977
26752W        W43599  17.434   3.464   1.885 -0.0272  0.0487 -0.0958
26753W        W43600   5.743   6.189   0.142  0.0587 -0.0652  0.0239
26754W        W43601   3.551  15.926  16.069 -0.0612  0.0552 -0.0305
26755W        W43602  13.212   2.747  16.091 -0.0668 -0.0850 -0.1531
26756W        W43603   3.109   6.363  12.172  0.1884  0.2735  0.1271
26757W        W43604   8.847  11.696   0.885  0.1476 -0.1187 -0.0132
26758W        W43605   1.210   9.027   2.361 -0.0410 -0.2177 -0.0520
26759W        W43606  10.469  16.656   3.533  0.0064  0.1573 -0.0742
26760W        W43607  12.250   8.710   5.084  0.3572 -0.2553 -0.0922
26761W        W43608   7.671   2.446   1.513 -0.1152 -0.2179  0.3605
26762W        W43609  11.964  14.411   1.810  0.1884 -0.2485 -0.0291
26763W        W43610  14.753  14.765   2.628  0.1131 -0.1899 -0.1661
26764W        W43611   0.395   6.512   3.066  0.1132 -0.1013  0.2899
26765W        W43612  17.710  17.434  13.522 -0.2891 -0.0310  0.0627
26766W        W43613   0.878  15.640   2.731  0.0837  0.2303 -0.3515
26767W        W43614  17.319  15.661  13.968  0.1679  0.1820 -0.1469
26768W        W43615   9.944   2.054   4.609 -0.1151 -0.1181  0.3110
26769W        W43616  17.924  10.492   3.860 -0.0894  0.1231  0.2182
26770W        W43617   3.524  11.253   4.961 -0.4175  0.1667  0.0574
26771W        W43618  10.657  14.602   5.725  0.1230  0.0166 -0.0836
26772W        W43619   8.384   2.403   6.240  0.0519 -0.0362  0.2222
26773W        W43620   5.634  17.641  11.597  0.3858  0.4918 -0.0184
26774W        W43621   7.620   1.241  13.350  0.0943  0.3179 -0.1844
26775W        W43622   2.768   3.129   1.700 -0.1143  0.1439 -0.0517
26776W        W43623   6.307   5.991   3.443  0.0101 -0.3590 -0.0138
26777W        W43624   8.117   3.665  13.976 -0.0643 -0.0237 -0.2010
26778W        W43625  15.539   2.246   5.545  0.2831 -0.0950 -0.0218
26779W        W43626  10.749  17.337  14.090 -0.1602  0.0481 -0.0162
26780W        W43627   3.664   3.811   4.427  0.1431 -0.1269  0.0872
26781W        W43628  16.413  10.881   1.613  0.1072  0.0532 -0.0914
26782W        W43629  11.428   5.117   1.381 -0.3351  0.1587 -0.2503
26783W        W43630   5.702  17.942   2.799  0.0009 -0.0448  0.0121
26784W        W43631   4.409   8.073   3.921  0.2787  0.1236 -0.1912
26785W        W43632   0.200  16.030  13.931 -0.0342 -0.1206 -0.1260
26786W        W43633   2.177  13.983   1.004  0.1892  0.2253  0.0683
26787W        W43634   7.962   2.471   4.424 -0.0285 -0.0122 -0.0601
26788W        W43635   4.271  17.042   5.259 -0.3279 -0.0314  0.0380
26789W        W43636   1.692  13.946  16.346  0.1368  0.1028 -0.3154
26790W        W43637   9.475  16.794  14.207  0.1804 -0.0461 -0.3150
26791W        W43638   6.385   3.102  13.432 -0.2507 -0.1630 -0.0105
26792W        W43639  14.754   1.842   3.063 -0.0714  0.2661 -0.0908
26793W        W43640  12.613   6.953  16.044 -0.0601  0.0324  0.1509
26794W        W43641   0.755   3.243   2.622  0.1982 -0.0585  0.1017
26795W        W43642   4.636  12.769  12.911 -0.1261 -0.0001  0.1067
26796W        W43643  15.199  11.828   2.178  0.0618  0.1162 -0.1333
26797W        W43644  12.312   5.933   0.335  0.2283 -0.2450  0.0969
26798W        W43645  11.627  13.503   4.576  0.2814 -0.0309 -0.2194
26799W        W43646  15.178  17.933   1.894  0.0617  0.2572 -0.1790
26800W        W43647   0.477   5.418  14.515 -0.0195  0.0641 -0.2140
26801W        W43648  17.701  15.994   1.677 -0.1115 -0.1035 -0.1175
26802W        W43649  17.884   4.170   3.338 -0.1162 -0.0901  0.2327
26803W        W43650  14.188   0.658  12.489 -0.0800 -0.0821  0.1481
26804W        W43651   4.497   9.601   0.927 -0.1454  0.0871 -0.0926
26805W        W43652  11.830  12.914  14.422 -0.1444  0.2951 -0.2659
26806W        W43653  16.183  13.182   4.113 -0.1710  0.2296  0.1513
26807W        W43654  11.054  12.853  16.190 -0.2118 -0.0979  0.3186
26808W        W43655   1.822  17.197  14.854  0.0093 -0.2881  0.0230
26809W        W43656  17.523   2.807   3.823  0.1307  0.0663  0.0743
26810W        W43657   0.753  14.803   1.075  0.1908 -0.2297  0.1499
26811W        W43658  15.131  16.825  12.081 -0.1727  0.1911 -0.0983
26812W        W43659   9.857   8.615  11.052 -0.0520 -0.0152  0.2209
26813W        W43660   7.421   7.029  14.592 -0.3929 -0.0247 -0.1393
26814W        W43661  14.872  11.688   1.307 -0.2073  0.0017  0.1942
26815W        W43662  13.567  10.948   1.680  0.2248  0.3190  0.2897
26816W        W43663   1.237   5.933  14.991 -0.1790  0.0029 -0.0029
26817W        W43664  16.702  12.667   3.615 -0.2321  0.3520 -0.3870
26818W        W43665   4.453  16.500  12.418  0.1713 -0.1087 -0.0194
26819W        W43666  12.384  14.011  12.597  0.1078 -0.0170  0.0229
26820W        W43667   4.599  17.191  11.079 -0.1478  0.1090 -0.0680
26821W        W43668  10.378  14.370  15.797 -0.0433  0.0822  0.1877
26822W        W43669   9.136   9.172  12.604  0.1661 -0.2738  0.1884
26823W        W43670   4.732  10.955  14.379 -0.1800 -0.0091 -0.2838
26824W        W43671  11.953   2.652  12.134 -0.0957 -0.2624 -0.0303
26825W        W43672  10.564   7.447  15.540  0.2056 -0.0864  0.1602
26826W        W43673   4.957   2.821  15.064 -0.1662 -0.0010 -0.0717
26827W        W43674   8.355   7.248  11.192  0.1421  0.0787 -0.0328
26828W        W43675   2.867   7.714   2.873  0.1499 -0.0803 -0.1232
26829W        W43676   9.967   0.807  15.279  0.1868  0.2204  0.0246
26830W        W43677   9.865   8.095  13.507 -0.0586  0.0604 -0.1103
26831W        W43678   4.968  12.853  15.908  0.2720  0.0825  0.0684
26832W        W43679  14.174   8.215   1.746 -0.1177 -0.0820 -0.2363
26833W        W43680   4.292   4.156  14.324  0.1169  0.1318 -0.0139
26834W        W43681  12.403  13.170  14.284 -0.0850 -0.0073  0.0881
26835W        W43682  17.707   6.653   0.453  0.3052 -0.4543 -0.1278
26836W        W43683   4.568   7.400   2.032  0.1262  0.0682 -0.1862
26837W        W43684   1.526   8.249   1.191 -0.2299 -0.0134  0.0328
26838W        W43685  11.363   4.853  13.013  0.2936  0.0338  0.0842
26839W        W43686   4.673   3.920  14.528 -0.0390 -0.1014  0.1463
26840W        W43687  18.052   2.005  14.833  0.0792  0.1051 -0.0679
26841W        W43688  12.145   2.320  11.710 -0.0421 -0.1271  0.1417
26842W        W43689  15.045   4.310   3.729 -0.0721  0.1519 -0.3019
26843W        W43690  16.938   4.299   2.801  0.0768  0.0449 -0.1284
26844W        W43691  18.072  12.268  15.201 -0.2546 -0.3155 -0.2467
26845W        W43692   8.162   6.801   1.522 -0.1301 -0.0171  0.1141
26846W        W43693   9.929  15.849   2.536  0.0464  0.0126 -0.1180
26847W        W43694  12.940  11.711  13.149  0.0822 -0.0425 -0.0567
26848W        W43695   8.270  10.373  12.361  0.0673  0.0375 -0.0328
26849W        W43696   9.190   1.619   2.044 -0.1460  0.0349  0.2018
26850W        W43697  15.969   8.622  10.666  0.1251 -0.0780  0.1525
26851W        W43698  11.226   2.091   3.173  0.3761 -0.0754  0.1835
26852W        W43699  16.110   0.428   3.915 -0.2654  0.0758  0.1591
26853W        W43700   4.258   7.449  12.508  0.0308 -0.0504 -0.1384
26854W        W43701   2.279  12.133   2.180  0.0241 -0.0824 -0.1065
26855W        W43702   5.319   4.035  16.185 -0.1507 -0.1183 -0.0235
26856W        W43703  14.672   7.635  15.370  0.4559  0.1469 -0.0019
26857W        W43704   2.704   2.019  12.736 -0.0823 -0.4447 -0.1172
26858W        W43705  11.003   8.563   2.136  0.2409  0.3780  0.0263
26859W        W43706  13.724  12.385  16.492  0.2000  0.0882 -0.0178
26860W        W43707  17.736  10.401   1.720 -0.3752 -0.1519  0.1892
26861W        W43708   0.350  11.211   1.979  0.0236 -0.1104 -0.0042
26862W        W43709   0.903  13.435  11.856 -0.0009  0.1277  0.2183
26863W        W43710   8.946   3.011  14.926  0.2040  0.1025  0.0069
26864W        W43711  14.811   7.672  12.602 -0.1357  0.3738 -0.3078
26865W        W43712  14.072   6.598   0.638  0.1168  0.0834 -0.3175
26866W        W43713   4.237  17.054   0.882 -0.3435  0.0139 -0.2775
26867W        W43714   7.141  17.392   2.973 -0.0987  0.0380  0.1084
26868W        W43715   4.783  16.408   4.704 -0.2618  0.2844 -0.0584
26869W        W43716   9.400  15.839   2.708 -0.0746  0.1071  0.0902
26870W        W43717   1.303  12.856  12.482 -0.0413  0.6336  0.0611
26871W        W43718   1.709  11.431  13.915 -0.0938  0.0268  0.0711
26872W        W43719  14.801   0.074   4.527 -0.1189 -0.2955 -0.1437
26873W        W43720   7.986   7.748  12.824  0.1711  0.1958  0.0616
26874W        W43721   0.518  17.623  14.349  0.1499  0.0186 -0.1835
26875W        W43722   1.541   1.286  11.780  0.1433  0.0624  0.1444
26876W        W43723   9.036   9.636   0.133  0.0308  0.6030 -0.5051
26877W        W43724   4.531   7.118  12.270  0.2127  0.1420  0.0593
26878W        W43725   4.003  13.997  12.495 -0.3275 -0.1190  0.1844
26879W        W43726   6.433   7.447   2.079 -0.2632  0.2480 -0.1533
26880W        W43727  17.064   9.254  11.951 -0.3672 -0.0594  0.1687
26881W        W43728  17.589  13.168  16.479  0.2119  0.1929 -0.0618
26882W        W43729  14.225   9.468   0.749 -0.2212 -0.3118  0.0651
26883W        W43730  12.144  16.023   5.099 -0.0247 -0.1973 -0.1104
26884W        W43731  10.417  11.031   2.818 -0.1912  0.1670 -0.1804
26885W        W43732   2.534   0.608  14.650  0.0107 -0.1468 -0.1986
26886W        W43733  11.836   8.929  16.378  0.1525  0.2376  0.1136
26887W        W43734   7.584   1.844   2.105 -0.0627 -0.0436 -0.3146
26888W        W43735  13.644  16.147  12.083 -0.0328  0.0956 -0.3065
26889W        W43736   6.954  15.429  10.824  0.1480 -0.1516  0.0055
26890W        W43737   6.570  14.767   3.683 -0.2198  0.0671 -0.1217
26891W        W43738   9.012   0.522  14.014  0.2977  0.1733  0.2238
26892W        W43739  16.104   8.780   3.852  0.1192  0.0410  0.1399
26893W        W43740  15.521  10.542  10.682 -0.3398 -0.0030  0.1821
26894W        W43741  17.620   9.121  15.551  0.0595 -0.1386 -0.1773
26895W        W43742  15.928  16.965  13.304 -0.1942 -0.1861  0.0120
26896W        W43743   5.944   8.224  16.317 -0.3966 -0.2094 -0.2114
26897W        W43744  14.732   6.290   1.771 -0.1141 -0.1117  0.1420
26898W        W43745   5.507   4.257   1.570 -0.4023  0.6351 -0.3717
26899W        W43746   6.946   0.517  14.118 -0.1479  0.0073  0.1727
26900W        W43747   9.358   4.365   0.523  0.1044 -0.0472 -0.1894
26901W        W43748  10.448   2.025   5.297  0.2289  0.0334  0.0020
26902W        W43749   8.120  12.189   3.523 -0.3050  0.2825 -0.1398
26903W        W43750   7.443   6.857  12.611  0.2860 -0.0332 -0.1001
26904W        W43751  14.584   2.203  15.953 -0.1367 -0.0505 -0.1814
26905W        W43752   6.768  16.031  11.766 -0.1618  0.1695  0.2234
26906W        W43753   6.797   2.536  12.201 -0.4531  0.3386  0.0406
26907W        W43754   9.345  10.259  14.154  0.0825 -0.0680 -0.0757
26908W        W43755   7.484   0.839   4.799  0.2368 -0.1802  0.1216
26909W        W43756   7.277  15.775   4.918  0.2525 -0.0984 -0.0554
26910W        W43757   7.483  16.877   2.203  0.1373 -0.0661 -0.1701
26911W        W43758  14.436  16.132   1.870  0.0587 -0.0300 -0.1385
26912W        W43759   3.679   3.021  14.595  0.0428  0.1624 -0.1683
26913W        W43760  12.558   7.391   1.690  0.0668 -0.0203 -0.2124
26914W        W43761   9.895  16.393   0.122 -0.0392  0.2575 -0.0257
26915W        W43762  14.244   3.354   4.678  0.1451 -0.2207 -0.1312
26916W        W43763   7.837   7.886  11.228  0.2701  0.0810  0.0989
26917W        W43764  14.602   9.295   3.085  0.0165  0.0960 -0.1392
26918W        W43765  15.146   1.032   3.015 -0.3957 -0.3066  0.0128
26919W        W43766  10.299   5.609  12.511  0.1447  0.1126 -0.0346
26920W        W43767  15.939  12.668   0.220  0.0847 -0.0503  0.0643
26921W        W43768  17.183   4.762   0.381 -0.2013  0.1269 -0.2492
26922W        W43769   2.166  10.297   5.293  0.2590 -0.1578  0.2492
26923W        W43770  15.819   0.096  13.425 -0.1048 -0.0952  0.0642
26924W        W43771   9.931  13.216  13.856 -0.3125 -0.0369 -0.1289
26925W        W43772  16.309  17.849   2.931  0.2544 -0.0040  0.2868
26926W        W43773   4.321  17.750  15.065  0.4364  0.0309  0.2167
26927W        W43774   5.236  13.134   1.224 -0.2368 -0.1136  0.1767
26928W        W43775   2.791   3.783   0.995  0.0734 -0.0129 -0.1609
26929W        W43776   8.596  13.267   5.931  0.0666 -0.0041 -0.0234
26930W        W43777   6.060  16.748   2.096 -0.1760  0.1926 -0.3324
26931W        W43778  17.661   2.506  16.139 -0.0593 -0.1507 -0.1021
26932W        W43779   8.027  17.422   4.976  0.0683  0.0971 -0.0819
26933W        W43780  15.528   9.211   0.854 -0.0696  0.1972  0.0004
26934W        W43781  16.639  13.838   3.055  0.0103  0.0318  0.2279
26935W        W43782  10.408  11.506  16.458  0.1103  0.1045  0.0587
26936W        W43783  10.468   8.531   5.168  0.1753 -0.1445 -0.0742
26937W        W43784   9.238   2.484   2.479 -0.0193  0.0511 -0.1652
26938W        W43785  14.268  15.519   4.450  0.0550  0.0177 -0.1180
26939W        W43786   3.215   9.761   2.638  0.1015  0.2753  0.2780
26940W        W43787  10.735   1.225  13.382  0.0300  0.0303  0.1805
26941W        W43788   9.016   9.667   3.747  0.0392 -0.0757  0.0991
26942W        W43789  16.482  13.251  14.549 -0.4504 -0.7146 -0.3383
26943W        W43790   0.855   2.269  11.752  0.0812 -0.0043 -0.0276
26944W        W43791   3.528  10.430  14.443  0.4736 -0.1675  0.2671
26945W        W43792   2.219   6.113  12.293  0.0790  0.0022  0.2131
26946W        W43793   7.961   6.905  15.277  0.2062 -0.1380 -0.0232
26947W        W43794  15.341   2.919  13.144  0.2338 -0.0588 -0.0715
26948W        W43795  15.847  17.968  13.058 -0.0515 -0.1306  0.1380
26949W        W43796   6.780   1.880   0.836 -0.0582 -0.0402  0.1368
26950W        W43797   8.643   1.701  12.673  0.1777  0.2966 -0.0023
26951W        W43798   9.536  15.226   4.519  0.2647 -0.0408  0.0451
26952W        W43799   1.136   7.888   5.446 -0.2849  0.1700  0.4235
26953W        W43800   1.239   6.355   3.653 -0.0273 -0.0125  0.1892
26954W        W43801  11.923  15.106  11.660  0.2507  0.2410  0.2683
26955W        W43802   8.493   2.223  13.794  0.1362 -0.1213  0.1264
26956W        W43803  16.548  11.583   5.784  0.1485  0.1357  0.3816
26957W        W43804  15.054   2.229   4.365  0.1198  0.0698  0.1489
26958W        W43805   5.902  18.017   3.802 -0.2924  0.1022  0.4280
26959W        W43806   5.091   6.502  13.093 -0.2429 -0.0099 -0.0671
26960W        W43807  12.880   8.806  13.530 -0.0950 -0.0235  0.0330
26961W        W43808  16.158   6.361   0.309 -0.1681 -0.0283  0.0375
26962W        W43809  17.656   8.817   0.589  0.0634 -0.0625  0.1498
26963W        W43810  12.332  16.972  14.993 -0.5541 -0.0364  0.0986
26964W        W43811  11.763   2.734  15.366  0.0432 -0.2427  0.0704
26965W        W43812   2.809   2.033   1.753  0.0538 -0.3786  0.1443
26966W        W43813   0.406   3.381   3.043  0.3808 -0.0616  0.2358
26967W        W43814   0.003   1.808   4.788  0.4866  0.1445  0.2998
26968W        W43815   0.159  14.661   4.914  0.0114  0.1859  0.2497
26969W        W43816   0.345   1.062  15.122 -0.0157 -0.0681  0.0276
26970W        W43817  17.364   5.029   1.676 -0.0435 -0.0462 -0.0713
26971W        W43818  11.662  11.771   4.484  0.4549 -0.1913  0.0659
26972W        W43819   7.634  15.758   0.917 -0.1949  0.2459 -0.1981
26973W        W43820   8.043   3.142  12.128  0.1740 -0.1377  0.1563
26974W        W43821   0.593  16.249   4.276  0.0783  0.0606 -0.0031
26975W        W43822   3.651  12.327  15.337 -0.1682  0.0690  0.1040
26976W        W43823  12.794   4.534   5.419 -0.2165  0.1376  0.0462
26977W        W43824  10.621   8.830   0.411  0.1206 -0.0648 -0.1101
26978W        W43825   4.401   7.476  15.518 -0.1064 -0.2848 -0.1070
26979W        W43826   8.972   9.418  12.235 -0.2061  0.0831 -0.0626
26980W        W43827  17.588  12.812   4.519 -0.3549  0.4317  0.0485
26981W        W43828   4.686   9.905  12.941  0.3447  0.2043 -0.2254
26982W        W43829   5.958  16.648   6.014 -0.1818 -0.0496  0.0885
26983W        W43830  15.586  16.816   4.690  0.2978  0.2613 -0.1835
26984W        W43831  16.534   8.513   2.632  0.1460  0.1003 -0.0579
26985W        W43832  13.822   5.611  16.023 -0.0002 -0.1257  0.1690
26986W        W43833  13.442   5.668  15.667 -0.3251 -0.2025  0.2392
26987W        W43834  13.261  10.314  14.808 -0.1977 -0.1044 -0.1387
26988W        W43835  11.361  10.061   4.594  0.0119 -0.0821 -0.1626
26989W        W43836  14.855   9.975   4.737  0.0608  0.1228  0.1181
26990W        W43837  12.960   0.556  12.178  0.0131 -0.3725  0.0103
26991W        W43838  15.955   4.413  14.891 -0.0704  0.1864  0.0935
26992W        W43839   9.816   9.710   4.382  0.1052 -0.1422 -0.0341
26993W        W43840  12.549  14.902  14.240 -0.2260 -0.0842 -0.1462
26994W        W43841  17.582  11.387   3.494 -0.3029 -0.1171 -0.1242
26995W        W43842  14.530   8.573  16.367 -0.0783 -0.0179  0.0413
26996W        W43843  15.885  15.284   1.181 -0.0086  0.0189  0.2529
26997W        W43844  15.421   3.059   1.926 -0.1038 -0.5004  0.2704
26998W        W43845   1.638   7.390   4.518  0.0623 -0.2620  0.0263
26999W        W43846  13.287   9.817  16.003  0.1271  0.2886 -0.2145
27000W        W43847   1.537  11.243  15.858 -0.2363  0.2820  0.0656
27001W        W43848   1.413   7.334   5.438  0.0342  0.3178 -0.0879
27002W        W43849  11.051  18.165   5.883 -0.1150  0.1361  0.2576
27003W        W43850   3.305  15.880   3.814 -0.6512  0.1823 -0.2150
27004W        W43851  12.135   7.566  11.108 -0.0472 -0.2490  0.0812
27005W        W43852  10.502   3.873  10.902 -0.1562 -0.0973 -0.0505
27006W        W43853  14.115   7.600  16.264  0.1203  0.2518 -0.0022
27007W        W43854   6.176  17.142   3.438  0.0644  0.1690 -0.0025
27008W        W43855  11.209   2.183  16.375 -0.0090  0.0276  0.0081
27009W        W43856  14.394  17.841  14.889  0.2943  0.1989  0.3492
27010W        W43857   7.082   7.731   3.720  0.2787  0.0175  0.1522
27011W        W43858  11.397   1.602   5.023 -0.1906  0.1505 -0.0980
27012W        W43859   8.517   9.244  12.910 -0.1197  0.1769  0.2437
27013W        W43860  11.457  13.908   3.009 -0.0825 -0.0252  0.0804
27014W        W43861   9.489  12.149  16.498 -0.2860  0.1097  0.0265
27015W        W43862   7.344  16.575  14.232 -0.0808  0.2309  0.0339
27016W        W43863  17.281   4.345   0.799 -0.3192  0.0805  0.5167
27017W        W43864  13.182   0.053  12.369 -0.1524  0.0545 -0.2106
27018W        W43865   5.820  16.443  12.721  0.2593  0.2227  0.1147
27019W        W43866   3.211   7.635  14.888  0.0849  0.1127 -0.0239
27020W        W43867   7.505  15.284  14.397  0.0185 -0.0035  0.1385
27021W        W43868  16.400   4.556   5.285 -0.1423 -0.3943  0.2185
27022W        W43869   6.706   6.373   2.516  0.0349  0.1616 -0.2164
27023W        W43870   0.885  18.051   5.688  0.0173  0.0274 -0.2147
27024W        W43871   9.015   3.527   3.404 -0.0498  0.1445  0.1198
27025W        W43872  16.882  10.188   1.913 -0.1117  0.2439  0.2289
27026W        W43873   4.029  18.126   3.795 -0.0530 -0.0248  0.0750
27027W        W43874  11.483   6.616  12.018 -0.0288 -0.1248  0.0517
27028W        W43875  11.937  12.583  12.881  0.0462  0.0499  0.4011
27029W        W43876   9.303   1.950  14.294 -0.0502  0.0927 -0.1379
27030W        W43877  14.587  11.000   6.063 -0.3305 -0.0947  0.1281
27031W        W43878   0.705   8.154   2.739  0.0238  0.1242 -0.0464
27032W        W43879  15.157   1.056   2.461 -0.1263  0.2894  0.0276
27033W        W43880  17.163   2.820  15.976 -0.0289 -0.0581  0.1349
27034W        W43881  12.012  11.250   1.471 -0.2292  0.2732  0.2887
27035W        W43882  11.984  13.435  14.239  0.1202  0.0685  0.1317
27036W        W43883   1.793   3.893  14.408  0.2224 -0.1928 -0.2196
27037W        W43884   3.748  15.840   4.124 -0.2155 -0.1682  0.0372
27038W        W43885   0.181  16.015   2.219 -0.1999 -0.2194 -0.1132
27039W        W43886   6.782   5.789  12.119 -0.1086  0.2244 -0.0023
27040W        W43887   7.638   1.289   4.588  0.1508 -0.0940 -0.0367
27041W        W43888   5.139   4.789  13.024  0.1179  0.0322 -0.3195
27042W        W43889  11.615   6.504  14.584 -0.1896  0.0460 -0.2435
27043W        W43890  12.106   5.711  13.952 -0.1118 -0.1686  0.2359
27044W        W43891  10.258  10.380  14.834  0.4309  0.2355 -0.1694
27045W        W43892  11.048   2.213  11.914 -0.1425 -0.1166 -0.0178
27046W        W43893   7.883  13.223   4.057  0.2835 -0.1465 -0.1846
27047W        W43894   5.992  10.577  14.712 -0.1993 -0.0400 -0.0691
27048W        W43895  15.659  16.008   4.034  0.1381  0.1790  0.0517
27049W        W43896   1.379  16.515   0.407 -0.0779  0.0305 -0.0425
27050W        W43897  17.430   1.222   0.953 -0.2001  0.0201 -0.1592
27051W        W43898   2.015   3.124  14.954  0.4583  0.0846 -0.3033
27052W        W43899   6.965  10.243   5.293 -0.0812 -0.0868 -0.1327
27053W        W43900  12.566   5.218  12.320  0.3359  0.0125 -0.0611
27054W        W43901  16.678  15.318   3.938  0.0715 -0.2794 -0.1822
27055W        W43902   9.895  16.337   5.467  0.2310  0.1234 -0.2154
27056W        W43903   5.422   5.306   2.307  0.2754  0.0409  0.1177
27057W        W43904  17.715   8.170   2.258  0.0190  0.3951 -0.1012
27058W        W43905   1.046   1.062   3.988  0.1445  0.2177  0.0988
27059W        W43906   6.941  18.113  12.824 -0.0486  0.0124 -0.0178
27060W        W43907  15.594  15.554   0.849 -0.0410 -0.0026 -0.0584
27061W        W43908   9.855   9.330  13.355  0.1401  0.0452 -0.2375
27062W        W43909   2.797   5.597  14.461 -0.1928  0.0805  0.1018
27063W        W43910   0.449   9.956  11.447  0.2015  0.2233  0.1938
27064W        W43911   1.123  15.242  15.322  0.0221  0.1372  0.0659
27065W        W43912   9.795  10.775  11.193 -0.0093 -0.0612  0.2092
27066W        W43913   9.885   9.831  12.207 -0.1535  0.0260  0.3599
27067W        W43914   2.012   8.359   1.150 -0.0833  0.2495 -0.2474
27068W        W43915  16.153   7.414  13.170 -0.1867 -0.1071 -0.3745
27069W        W43916  10.613   3.872   0.362  0.0938  0.3339  0.0107
27070W        W43917  15.977  17.674   1.182 -0.0571 -0.1433 -0.0953
27071W        W43918  12.994   8.711   2.852 -0.1864  0.0259 -0.0948
27072W        W43919   9.383  16.902  12.177  0.1954 -0.2357  0.0210
27073W        W43920  13.578  10.654  11.383  0.1505 -0.0939 -0.3030
27074W        W43921   0.004   2.533   0.200  0.0143 -0.0867 -0.3297
27075W        W43922   1.426  15.627   1.903  0.0044  0.1745 -0.0979
27076W        W43923  14.551   9.147  14.901  0.2125  0.0280  0.2712
27077W        W43924   0.162   2.499   5.356  0.1022  0.3292  0.2220
27078W        W43925   0.249  14.128   1.897  0.1374 -0.0451  0.0979
27079W        W43926  17.255   7.985   4.331  0.1289 -0.1224  0.2394
27080W        W43927  12.704   0.998  11.488  0.2567 -0.1997  0.1287
27081W        W43928   5.706  10.589  16.332  0.1650 -0.5327 -0.3655
27082W        W43929  16.688   8.917  12.132 -0.1211  0.0837  0.0500
27083W        W43930  17.220  17.511  14.346 -0.0877  0.0049 -0.1359
27084W        W43931  14.499  10.805   2.093  0.1558  0.0305  0.0381
27085W        W43932   4.701   7.715   2.897 -0.0934  0.0294 -0.0163
27086W        W43933  14.111  16.486   4.039  0.2320  0.0233  0.2598
27087W        W43934  13.871  15.848  15.909  0.2055  0.0732  0.0172
27088W        W43935  16.260   1.050   2.507 -0.1210 -0.0086 -0.0348
27089W        W43936   1.069  14.750  15.604  0.0463  0.0163 -0.1517
27090W        W43937   6.176  10.017   2.186 -0.2801 -0.0152 -0.0591
27091W        W43938   7.140   8.311   2.436  0.0693 -0.1530 -0.0680
27092W        W43939  16.447  12.388   5.272  0.0517  0.1554 -0.1458
27093W        W43940   5.530  18.035  11.952  0.2048  0.1317  0.3225
27094W        W43941   1.011  14.520   4.099  0.3274  0.1981 -0.1897
27095W        W43942  17.314  15.475   6.145  0.0354 -0.2330 -0.1992
27096W        W43943   9.883  14.911   4.188  0.3384  0.1722 -0.0394
27097W        W43944   9.094  13.283  12.743  0.2055 -0.0004 -0.2865
27098W        W43945   8.186  15.611   5.227  0.0407 -0.3364 -0.2184
27099W        W43946   4.628   1.959  12.992  0.2789 -0.1378  0.2519
27100W        W43947   3.531  13.315   4.115  0.0262  0.1275  0.3266
27101W        W43948   3.814   4.810   5.478 -0.4100  0.2936 -0.0535
27102W        W43949  12.876   5.850   2.871  0.0941  0.1472 -0.0281
27103W        W43950  17.333  14.170   0.520 -0.1942  0.0716  0.1855
27104W        W43951  17.420  11.332   1.611  0.1694  0.1334 -0.1368
27105W        W43952  11.489  12.573  14.133  0.1983 -0.0793  0.2264
27106W        W43953  10.149   8.003   4.194  0.0708  0.1301 -0.2656
27107W        W43954  18.171  14.027  13.588  0.0212  0.0168 -0.1080
27108W        W43955   5.428   7.130   5.223  0.1069  0.2040 -0.0399
27109W        W43956  10.458   9.417   1.843  0.0393 -0.0474 -0.2696
27110W        W43957   7.360  16.870   4.815 -0.0342  0.0598 -0.1297
27111W        W43958  15.232  11.739  12.898  0.3158 -0.0302 -0.4142
27112W        W43959   2.150   5.184  13.073 -0.1672  0.1818 -0.0156
27113W        W43960   8.813  10.513  16.465 -0.0524 -0.2932 -0.0054
27114W        W43961  10.868   8.653   4.337 -0.2555  0.1740  0.2769
27115W        W43962  15.033   7.821  14.306  0.1642  0.1699 -0.0602
27116W        W43963   8.905   4.871  12.337 -0.2316 -0.1656 -0.2423
27117W        W43964  16.695  12.572   0.124 -0.1142  0.1569  0.2044
27118W        W43965   0.521   3.662  12.848 -0.1986  0.1679 -0.4825
27119W        W43966   9.751   1.503  15.423  0.0967 -0.0455  0.0379
27120W        W43967  16.968   6.861   4.998 -0.1828  0.0496  0.0334
27121W        W43968   0.592   2.230  13.044 -0.1972 -0.0361 -0.1960
27122W        W43969   0.092   3.881  15.600  0.1769 -0.1711 -0.2043
27123W        W43970   7.872  12.888   3.141 -0.1409 -0.1336  0.0283
27124W        W43971  17.427   2.279   2.289 -0.1319 -0.0857 -0.2859
27125W        W43972   9.477  15.765   4.480  0.2184 -0.1579  0.1782
27126W        W43973   8.667   8.801  13.776  0.2365  0.0199  0.1511
27127W        W43974   5.890  14.004  13.897  0.0126 -0.0695  0.0453
27128W        W43975  12.254   0.794   0.883  0.1991  0.0267  0.1778
27129W        W43976   8.673  14.401  12.322 -0.0136  0.2619 -0.1637
27130W        W43977  15.497   5.130  10.224  0.1547  0.0642 -0.2678
27131W        W43978   6.980   3.050  16.328  0.0562 -0.1768 -0.0001
27132W        W43979  14.784  14.811  15.768  0.1099 -0.0295 -0.2687
27133W        W43980   7.512   2.639   2.324  0.3459  0.0133  0.0032
27134W        W43981   0.025   6.654  13.764 -0.1206 -0.1705 -0.0376
27135W        W43982  12.142  11.777  13.163 -0.0962  0.0910 -0.2773
27136W        W43983   8.085  14.734  14.974 -0.1626 -0.1032 -0.1824
27137W        W43984   9.131   0.886  15.732 -0.0907 -0.0941 -0.0777
27138W        W43985   9.914  13.224   2.225  0.2036 -0.0382  0.1058
27139W        W43986  10.095   7.709   4.819 -0.1156  0.0385  0.1548
27140W        W43987  14.165   1.368   2.635 -0.2140  0.0380  0.0573
27141W        W43988  11.459   8.221  14.877 -0.2753 -0.1002 -0.1619
27142W        W43989   5.282   7.549   5.927 -0.2475 -0.2890  0.0786
27143W        W43990   1.654   3.053  11.485  0.3272 -0.1653  0.0095
27144W        W43991  16.987   7.568   1.323  0.1503 -0.0836  0.0677
27145W        W43992   9.442   0.919  13.302 -0.2197  0.0403 -0.0963
27146W        W43993   7.871  16.021  13.132  0.3812 -0.3523 -0.3314
27147W        W43994   2.599   5.559  15.452  0.1279 -0.2060 -0.0234
27148W        W43995  14.138   9.425  13.441 -0.5184 -0.1521  0.2449
27149W        W43996   0.600   6.961  15.439 -0.1811  0.0753 -0.1095
27150W        W43997  17.929  12.054   2.084 -0.3854  0.2824 -0.1782
27151W        W43998  17.355   2.069   0.814  0.2318 -0.2654 -0.4338
27152W        W43999  12.318  15.257  11.973 -0.0418 -0.0685 -0.2810
27153W        W44000   5.993   5.166   1.510  0.1719  0.2691  0.1590
27154W        W44001   2.935   7.877  16.256  0.1679 -0.1459  0.1992
27155W        W44002   6.914   4.937  14.954  0.0900  0.0024  0.1702
27156W        W44003  10.283   3.680   2.444 -0.1199 -0.0920  0.0593
27157W        W44004   0.089   1.557   3.321  0.2473 -0.0287 -0.1897
27158W        W44005   2.073   1.439  15.567  0.0160  0.0071 -0.3444
27159W        W44006   9.710   8.612   5.805 -0.7642  0.0375  0.0084
27160W        W44007  17.374   7.073   3.373 -0.1337 -0.0347 -0.2073
27161W        W44008   8.899   8.952  14.172 -0.0242  0.0276 -0.0641
27162W        W44009   0.603  15.627   5.121 -0.2375  0.3795 -0.0158
27163W        W44010   7.882  10.895  14.253 -0.0645  0.2212 -0.0119
27164W        W44011   5.248  12.596  14.600  0.0952  0.0368  0.2528
27165W        W44012   3.015   9.886  12.313  0.2440 -0.2922  0.0687
27166W        W44013  14.849  13.910   2.557 -0.0163 -0.1008 -0.0162
27167W        W44014   6.166   9.390  15.199  0.0338  0.1261  0.1869
27168W        W44015   8.567  11.981  13.273 -0.2460 -0.0950  0.2837
27169W        W44016  11.610  11.799  13.564  0.0856 -0.0272  0.1716
27170W        W44017   1.449   1.094   2.756 -0.2372 -0.0046  0.2427
27171W        W44018  17.036  16.490   3.047 -0.2292  0.1120  0.0806
27172W        W44019   9.196   7.816  16.252 -0.1855  0.2681 -0.2340
27173W        W44020   2.244   9.517  14.282 -0.1664 -0.0929 -0.2434
27174W        W44021   7.837   2.996   4.136  0.1726 -0.1903 -0.1050
27175W        W44022  16.044  14.621   5.641 -0.1914  0.0180 -0.0567
27176W        W44023   2.905  16.214  16.205  0.0830  0.0667 -0.2865
27177W        W44024  17.144   0.454   5.101 -0.2126 -0.1297  0.0304
27178W        W44025   9.979  13.189  13.265  0.0871  0.1481  0.0825
27179W        W44026  17.587   5.016   0.132  0.0266 -0.2981 -0.1772
27180W        W44027  11.059  13.658  11.559 -0.3286 -0.1238 -0.1715
27181W        W44028  11.019  10.193  12.924  0.0282  0.0409  0.0678
27182W        W44029   9.236  11.556   3.263 -0.3915 -0.1147  0.0373
27183W        W44030   6.554   8.287  14.913 -0.1235 -0.1164  0.1242
27184W        W44031  10.427  16.660   2.575 -0.3095 -0.0705  0.0155
27185W        W44032  10.330   9.832   2.650 -0.1694 -0.3147 -0.1275
27186W        W44033   9.427   4.262  15.068  0.0111 -0.3077 -0.2004
27187W        W44034   6.726   2.582  14.762 -0.0679  0.2020  0.2764
27188W        W44035   2.738   0.749   2.333 -0.0175  0.0209 -0.3551
27189W        W44036  16.304  14.765   1.401 -0.3096 -0.2662 -0.0201
27190W        W44037  17.593  13.407  16.000  0.2518 -0.1582  0.3486
27191W        W44038  12.291   7.678   2.617 -0.1481  0.0125 -0.2689
27192W        W44039   9.300   9.403  15.929 -0.0244 -0.1398 -0.0218
27193W        W44040  12.753   3.778  12.608  0.1143 -0.0823 -0.3457
27194W        W44041   4.992   6.513   4.857 -0.1019 -0.1446  0.1676
27195W        W44042   6.876   0.571  12.314 -0.3140 -0.3059 -0.2233
27196W        W44043  14.680   9.364  12.640  0.0373  0.0728 -0.0044
27197W        W44044   8.367   8.731   2.479 -0.1015 -0.1402 -0.1097
27198W        W44045  12.137   0.697  14.687 -0.0235 -0.5207 -0.1120
27199W        W44046   1.531  11.863  12.071 -0.0387  0.2969 -0.0125
27200W        W44047  10.778   8.266  15.101  0.1340 -0.1179 -0.0609
27201W        W44048   1.918   2.810   0.275 -0.0439 -0.2366  0.4205
27202W        W44049   6.856  14.538   1.970 -0.2113  0.1395 -0.0160
27203W        W44050   8.420   5.058  11.151  0.1423 -0.0752 -0.0957
27204W        W44051  15.782   2.907   2.760 -0.1579 -0.2504  0.1552
27205W        W44052  15.301   8.252  13.376 -0.0175  0.1494 -0.0957
27206W        W44053   1.010   7.769  11.867  0.0180  0.3164 -0.0809
27207W        W44054   8.175  17.394  13.464 -0.1288  0.1699 -0.1026
27208W        W44055  14.750   0.332   4.047  0.0197 -0.1610  0.0405
27209W        W44056  10.600   3.885  12.594  0.1372 -0.1240  0.0262
27210W        W44057   7.354   8.311  13.669 -0.1133 -0.3491  0.0553
27211W        W44058   9.516   7.754   2.584  0.2282  0.1576  0.1323
27212W        W44059  10.667  16.443   4.013  0.3024  0.2126 -0.1052
27213W        W44060  11.196   5.463   1.658  0.1155  0.0013 -0.5279
27214W        W44061   9.468  17.563  15.927  0.1602  0.3140  0.3306
27215W        W44062   8.384   2.989   2.373 -0.0943  0.2196 -0.0848
27216W        W44063   5.531   4.605  14.315  0.0780  0.1467 -0.0465
27217W        W44064   4.173  14.375   2.329  0.0787 -0.0867 -0.2199
27218W        W44065  15.016   6.007  12.734 -0.1856  0.0331  0.1011
27219W        W44066  10.435   8.832   2.792  0.3191 -0.1049 -0.0068
27220W        W44067  10.124  12.669   0.424  0.3558 -0.0437  0.0310
27221W        W44068   3.187  17.241  14.311  0.0815  0.1044  0.0565
27222W        W44069   3.636   9.383   0.368 -0.1212  0.2816 -0.1056
27223W        W44070  17.110  11.513  11.756  0.0610  0.0130 -0.0121
27224W        W44071  12.178   6.434  13.558  0.0049 -0.0509 -0.0324
27225W        W44072   4.604   7.054  13.686  0.2244  0.1244 -0.4881
27226W        W44073   7.455   9.470   2.892  0.0962  0.0420 -0.0038
27227W        W44074   5.390   4.984   4.398 -0.4141 -0.1855  0.1503
27228W        W44075  10.244  10.246   3.484  0.3212 -0.3922  0.1447
27229W        W44076  14.189  16.436   3.509  0.1030  0.0978  0.0014
27230W        W44077  11.534   9.070  15.899  0.0295  0.0820  0.2059
27231W        W44078   4.117   1.641  11.337  0.2159 -0.1134 -0.5105
27232W        W44079  17.645  13.001   5.433  0.0777  0.2601  0.4102
27233W        W44080   6.238   0.620   1.914 -0.0662  0.3778 -0.0879
27234W        W44081  10.718   5.239  13.618 -0.1697 -0.0409 -0.1581
27235W        W44082  10.199   6.972  12.832  0.1143 -0.0825  0.0390
27236W        W44083   8.652  16.611   3.591  0.1696 -0.1422  0.1254
27237W        W44084  17.913  10.807   0.142 -0.1275 -0.2402  0.2626
27238W        W44085  13.814   4.225  14.931  0.1871 -0.0194  0.1827
27239W        W44086   1.086   6.516   2.739 -0.3068  0.5181  0.0184
27240W        W44087   2.848   1.459   4.945  0.2841 -0.3871  0.2923
27241W        W44088   9.972  10.066   3.876  0.0502 -0.0066 -0.0649
27242W        W44089   9.276  11.487  15.795  0.0745  0.1262 -0.2328
27243W        W44090  17.078   4.238  16.503  0.1306 -0.3922 -0.0595
27244W        W44091  15.469  14.874   4.473  0.1882  0.1475  0.0818
27245W        W44092  14.982  13.680  11.970 -0.2083  0.0245  0.1898
27246W        W44093  13.675  12.868  15.438  0.0721  0.1132  0.2902
27247W        W44094   4.969  10.620  14.673 -0.0378  0.0449  0.0336
27248W        W44095   3.009  12.466   1.776 -0.0655 -0.1665  0.0881
27249W        W44096  16.514   6.139  15.215  0.2229 -0.0536 -0.3212
27250W        W44097   9.927   7.940   1.498 -0.1428 -0.1539 -0.0341
27251W        W44098  17.146  11.391  14.053 -0.3605  0.0089  0.1687
27252W        W44099  10.242   7.776   0.622 -0.1790  0.2927  0.1240
27253W        W44100   2.232   6.610  16.598 -0.1946  0.0890  0.0560
27254W        W44101   1.276   6.126  16.493 -0.2183  0.0409 -0.0848
27255W        W44102  10.472   0.643   0.847  0.0866  0.0738  0.0963
27256W        W44103  13.613   6.384  14.518  0.0695  0.1653 -0.0519
27257W        W44104   8.096  15.580   0.554  0.1316 -0.0282  0.1666
27258W        W44105  17.401   9.117   5.112  0.3745  0.2119 -0.0355
27259W        W44106  15.848  12.564  13.700  0.1170  0.1781 -0.1927
27260W        W44107  15.056   2.035  15.646  0.1789 -0.1514  0.1118
27261W        W44108   1.611   6.241  13.485  0.0255 -0.1213 -0.1833
27262W        W44109  10.684   2.654  16.304  0.2368  0.0832 -0.3577
27263W        W44110  16.059   8.028  11.813  0.2487  0.1869 -0.1194
27264W        W44111  15.691   5.482   1.086  0.1741 -0.1387  0.1852
27265W        W44112   8.939   2.197   6.132  0.1441 -0.3352 -0.1810
27266W        W44113   1.129   0.579   1.054 -0.0779 -0.2115 -0.2493
27267W        W44114   4.522  16.871  15.605  0.3450  0.1507 -0.1184
27268W        W44115   3.965  12.340   2.733  0.0799  0.1224  0.1099
27269W        W44116   4.076  13.481   2.909  0.0074  0.4223  0.0521
27270W        W44117   2.824   1.301   1.367 -0.2283 -0.0116 -0.0062
27271W        W44118  10.339   0.089   0.329  0.2822 -0.1146  0.0595
27272W        W44119  11.835  10.334   1.564 -0.0079 -0.0608 -0.0266
27273W        W44120   4.667  17.321  15.843  0.3129  0.2664 -0.0872
27274W        W44121   2.249  10.713   5.050 -0.3105 -0.0991  0.0409
27275W        W44122   9.765   6.733  11.572  0.1181 -0.1248 -0.2692
27276W        W44123  14.279   0.095   4.483  0.1911  0.0163  0.0600
27277W        W44124  14.401  15.682   5.943  0.0716  0.2651 -0.1240
27278W        W44125  14.165   2.360   4.822 -0.2487 -0.1466 -0.1120
27279W        W44126   3.340  13.757  12.274 -0.2409  0.2477 -0.1411
27280W        W44127  12.554   7.284   2.945 -0.1606  0.0025 -0.3076
27281W        W44128  16.928   2.779  13.630 -0.2898  0.3081  0.0806
27282W        W44129  13.168   3.057  12.261  0.2188 -0.0015  0.0021
27283W        W44130   8.680   3.232  13.529 -0.0404 -0.4625  0.3894
27284W        W44131   7.716  17.508  15.705 -0.1618 -0.2676 -0.1436
27285W        W44132   7.583   1.304   2.270  0.3223  0.0065 -0.0811
27286W        W44133  16.199   4.653  13.409 -0.0486  0.0615 -0.0003
27287W        W44134   7.300  15.029   1.364  0.1523 -0.0659 -0.2146
27288W        W44135   4.171   7.892  12.283  0.2346  0.1681  0.0102
27289W        W44136  11.093  12.325  11.860 -0.2461  0.0532 -0.1533
27290W        W44137  10.668  12.760   5.123  0.0791  0.4635  0.0988
27291W        W44138   9.676  16.205   3.604 -0.2594 -0.0114 -0.1306
27292W        W44139   1.079   8.065   1.273 -0.0072 -0.3139 -0.0764
27293W        W44140  16.698   6.397  16.082  0.0349  0.1008  0.1110
27294W        W44141  18.133   5.021   0.025 -0.1693 -0.1053  0.0612
27295W        W44142   4.754  13.431  12.259 -0.4257  0.0112  0.0415
27296W        W44143  17.538   8.143  15.317 -0.1993 -0.3364  0.0291
27297W        W44144  17.400   8.542   1.604  0.0059 -0.1167 -0.0703
27298W        W44145   3.493   8.916  15.232 -0.0351 -0.3054  0.1018
27299W        W44146  12.950  11.243   5.224  0.0541 -0.1936 -0.2107
27300W        W44147   4.428   0.436   4.773 -0.3025  0.1649 -0.0023
27301W        W44148  11.176   8.134  13.639 -0.0121  0.1250  0.1331
27302W        W44149   4.052   5.707  12.815 -0.1093  0.2109  0.0588
27303W        W44150   0.947   3.091  12.111 -0.3452 -0.2369  0.1358
27304W        W44151   3.613  17.393   3.302  0.1453 -0.0161  0.0125
27305W        W44152  18.101   6.540  13.067 -0.3575  0.0239  0.2255
27306W        W44153   2.981  10.347   5.000 -0.0680 -0.2473  0.1851
27307W        W44154  16.937   1.386  13.396 -0.2899 -0.0368  0.0921
27308W        W44155   8.941   1.470   0.719 -0.0830  0.0550 -0.2100
27309W        W44156  11.244  17.777   3.008  0.0392  0.2330  0.3633
27310W        W44157  15.031   3.864   4.929  0.3717  0.0160 -0.1439
27311W        W44158   1.024   9.338   4.273  0.0882 -0.0071  0.0778
27312W        W44159   5.455  13.274   3.878 -0.2352  0.0881 -0.2852
27313W        W44160   4.367  18.165   4.578  0.0195 -0.2781  0.0756
27314W        W44161   2.379  13.231  13.689 -0.0691 -0.1470  0.0321
27315W        W44162  12.107   6.991   2.752 -0.0892 -0.2156  0.1193
27316W        W44163   3.457   8.136   3.425  0.0273 -0.2392 -0.4251
27317W        W44164   2.027  16.585   0.816  0.0493 -0.1327  0.0169
27318W        W44165  17.624   1.537  16.077 -0.1135  0.0790  0.1371
27319W        W44166   0.935   5.475  14.328 -0.0059  0.1654  0.0725
27320W        W44167   9.535  12.865  14.195  0.2757  0.2642 -0.1726
27321W        W44168  14.441   9.198   4.620  0.2413 -0.0633 -0.5173
27322W        W44169  10.763  12.008   0.368 -0.1374  0.1692  0.1167
27323W        W44170  15.808   1.262   1.697 -0.2026  0.0429  0.1159
27324W        W44171   5.052   7.056  15.152 -0.2309  0.0602 -0.0185
27325W        W44172  13.117  10.930   2.031  0.0572 -0.1403 -0.2575
27326W        W44173  13.625  15.279   2.156  0.0291 -0.1091  0.1703
27327W        W44174   2.940   4.319  13.116  0.0864 -0.2241 -0.0443
27328W        W44175  17.683  17.212   1.422 -0.1543  0.3143  0.1016
27329W        W44176   5.100   9.830  12.146 -0.0015  0.0361  0.3523
27330W        W44177   1.540  11.044   3.271 -0.4547 -0.1618  0.5019
27331W        W44178  10.189  16.342   0.556 -0.2387  0.0903 -0.1955
27332W        W44179  12.038  17.081  12.233  0.0141  0.0434 -0.1010
27333W        W44180   7.959   7.943  13.696 -0.0303  0.2563 -0.0365
27334W        W44181  12.406   2.858  12.006 -0.0103  0.1246  0.0732
27335W        W44182   7.444   5.691  12.708 -0.0428  0.2228 -0.1453
27336W        W44183   3.020  11.427  14.114  0.0113  0.2811 -0.1492
27337W        W44184   1.815   2.369  15.811  0.1496  0.1522  0.0670
27338W        W44185   4.858   8.127   4.176 -0.1018 -0.3065  0.2942
27339W        W44186  12.881  17.921   0.377 -0.0616  0.1907 -0.0322
27340W        W44187  13.609   5.158   2.968  0.3274 -0.0171 -0.4185
27341W        W44188   4.501  12.534  16.448 -0.0864  0.0359 -0.2026
27342W        W44189  15.926   0.707   2.261  0.0016  0.1215 -0.1894
27343W        W44190  13.265   4.161  15.606 -0.2218 -0.1890  0.2678
27344W        W44191  17.320  15.591  15.257  0.0068  0.0194  0.0297
27345W        W44192  12.063   7.836   5.015 -0.2640 -0.0605 -0.2916
27346W        W44193  17.305   5.251   1.167 -0.0582  0.3616 -0.3069
27347W        W44194   8.027  11.315   3.851  0.3406  0.1053 -0.0149
27348W        W44195  17.508   8.502   4.263 -0.1867  0.0713  0.0281
27349W        W44196  15.704   3.262   5.098  0.3268  0.3366  0.3494
27350W        W44197  15.996   3.343   0.145 -0.0324 -0.2156  0.0505
27351W        W44198   8.278  10.218   2.145 -0.2437  0.1987  0.2141
27352W        W44199   2.059   8.373   3.995  0.0796  0.1794  0.1040
27353W        W44200   2.821   7.841  15.648 -0.2044  0.1650 -0.2136
27354W        W44201   7.259  17.801   4.160  0.1991  0.1698 -0.2189
27355W        W44202   3.535  10.164  12.178  0.1032  0.1000 -0.0842
27356W        W44203   5.798  17.098   4.283  0.3112 -0.0697 -0.0176
27357W        W44204   7.699   3.738  16.456 -0.2304 -0.0697  0.3221
27358W        W44205   6.027   3.365  16.341  0.0777 -0.0706 -0.0223
27359W        W44206  12.166   3.678   4.302 -0.0924  0.2825 -0.0670
27360W        W44207   2.992   4.582  14.632 -0.1950  0.0227  0.0527
27361W        W44208  14.036   4.421   2.549 -0.1851 -0.1901  0.3604
27362W        W44209  10.648  14.059   3.468  0.0526 -0.0096 -0.0949
27363W        W44210   3.924  10.484   3.013  0.1989  0.0952 -0.0284
27364W        W44211  12.150   2.882   0.407  0.2696  0.1675 -0.0816
27365W        W44212  14.321   4.469  15.063  0.2077 -0.0742 -0.2863
27366W        W44213   5.772   5.736  14.075 -0.2117 -0.2949  0.1943
27367W        W44214   8.248   5.242   4.080  0.0622 -0.3405  0.1904
27368W        W44215  10.685  11.454   3.632  0.1014 -0.0886  0.1205
27369W        W44216   7.216  16.976  12.983 -0.1908  0.2152 -0.1349
27370W        W44217  10.404  15.182   0.862 -0.0034 -0.0803  0.4210
27371W        W44218   0.901   6.406  11.622  0.3561 -0.2054  0.0619
27372W        W44219   0.180   7.886  15.722  0.3487 -0.0696  0.1700
27373W        W44220   7.816  11.304  13.853  0.2208  0.1444 -0.1360
27374W        W44221  16.672  10.474  15.253 -0.2800 -0.0683  0.0451
27375W        W44222  14.348   0.016   2.667  0.2836 -0.1549 -0.3213
27376W        W44223  13.975  18.030   0.382  0.2712 -0.1975  0.2813
27377W        W44224   4.422  13.037  12.545 -0.2840 -0.0288  0.0680
27378W        W44225   4.873   8.138  16.619 -0.1478  0.0240 -0.0471
27379W        W44226   5.716   9.229   2.629 -0.0699  0.0544 -0.1943
27380W        W44227  15.888   9.286   1.697 -0.2921  0.0582 -0.2985
27381W        W44228   0.893   2.550  15.945  0.3826  0.3243 -0.1752
27382W        W44229  15.202   7.046   1.791 -0.1940  0.0513  0.0848
27383W        W44230   0.395   7.103   2.221 -0.2768  0.1724  0.2831
27384W        W44231   1.067   3.310   4.754 -0.0662  0.3659 -0.0478
27385W        W44232   4.092   8.600   0.364  0.0097  0.1849 -0.1493
27386W        W44233   9.733   0.074  13.930 -0.2099  0.2339 -0.3495
27387W        W44234  10.563   2.057   2.572  0.1497  0.1290  0.1687
27388W        W44235   9.621  10.849   4.466 -0.2791  0.0306 -0.0718
27389W        W44236   0.803   2.026  15.778 -0.1998 -0.0969  0.1490
27390W        W44237  12.949  11.819   0.286 -0.0103 -0.1777 -0.1122
27391W        W44238  11.335   8.783  16.327 -0.2981 -0.3854 -0.0889
27392W        W44239  17.197  13.653  13.134  0.2225 -0.0336 -0.0713
27393W        W44240   6.937  17.061   2.364 -0.0767  0.0447  0.2593
27394W        W44241   4.889   3.022   3.920 -0.3759 -0.2419  0.0017
27395W        W44242   7.352   0.604  14.486  0.2399  0.2188 -0.2614
27396W        W44243   7.007   4.261   1.833 -0.1421  0.0125  0.0915
27397W        W44244   5.924  14.385   1.937 -0.1002  0.2448 -0.3450
27398W        W44245  12.419  12.872  11.758  0.0335  0.0317  0.0376
27399W        W44246   2.074  13.493   1.378 -0.3917 -0.0559 -0.2352
27400W        W44247   1.668  14.740   4.025  0.2047  0.0734 -0.1137
27401W        W44248  17.618  14.117  12.351 -0.2030 -0.0755  0.2419
27402W        W44249   9.582   0.647  15.684  0.2084  0.0961  0.4757
27403W        W44250   1.734  13.492   5.485  0.1625 -0.0052 -0.1487
27404W        W44251   8.104   0.983   1.109 -0.3667  0.1241 -0.0561
27405W        W44252   4.268  11.942   1.915  0.3111 -0.2562 -0.2737
27406W        W44253   4.178  13.211  12.100 -0.0821 -0.0258 -0.1053
27407W        W44254   0.484   4.355  11.077 -0.3415  0.1366  0.0617
27408W        W44255   7.995   7.490   0.402 -0.1473 -0.2708 -0.2875
27409W        W44256  14.631  13.158   2.590 -0.0200 -0.1990 -0.0894
27410W        W44257  16.378  17.716  14.022  0.0601 -0.0999 -0.2140
27411W        W44258  15.038  17.071  15.154  0.0900  0.0715 -0.1741
27412W        W44259  12.489   4.150  14.118 -0.0629 -0.0530 -0.0972
27413W        W44260  14.594  11.386   5.642  0.4209  0.0691  0.1003
27414W        W44261  12.190   4.754  11.671  0.3219 -0.2276  0.1634
27415W        W44262  16.200   0.021   4.310 -0.0579 -0.0534  0.0215
27416W        W44263   4.345  14.220   0.838  0.2557 -0.1206  0.0910
27417W        W44264  16.614   1.626  15.791  0.1477  0.0086  0.1331
27418W        W44265   2.255   9.062   5.337 -0.1202  0.0930 -0.0798
27419W        W44266  12.453   2.981  16.077 -0.0397 -0.0614 -0.1093
27420W        W44267   8.856   8.659   1.383 -0.0371 -0.1450  0.3518
27421W        W44268  14.507  11.500   0.901  0.0177 -0.2599  0.1697
27422W        W44269  10.930  12.424  13.038 -0.2543 -0.0386 -0.4010
27423W        W44270   0.827  16.188   1.132  0.1964 -0.0910  0.5316
27424W        W44271  12.399   2.741  13.545 -0.1058  0.0739 -0.1614
27425W        W44272   0.856  16.956   5.177 -0.0366 -0.2521 -0.1833
27426W        W44273  13.281  10.433   3.708 -0.1032  0.2552  0.0168
27427W        W44274   4.153   1.736   3.270 -0.0524 -0.1184  0.0170
27428W        W44275  11.259   1.197   4.013 -0.2671  0.1105  0.0131
27429W        W44276   8.335  16.019   0.773  0.1555 -0.2314  0.0663
27430W        W44277   9.684  14.270   5.637 -0.0420  0.1914 -0.0328
27431W        W44278   1.405   4.520  15.759  0.2449 -0.2741 -0.0851
27432W        W44279   5.124  18.051  15.736  0.0310  0.2955  0.1084
27433W        W44280   2.828   4.214   2.054 -0.1866 -0.0680  0.2063
27434W        W44281   9.421   1.427  15.117  0.2029 -0.1649  0.3176
27435W        W44282  14.703  10.067  15.660 -0.2855 -0.1122  0.1957
27436W        W44283  10.840   6.016  11.838 -0.1412 -0.0941  0.0661
27437W        W44284   4.746   5.559   3.994 -0.1419  0.3326  0.0438
27438W        W44285  15.124   4.068  11.818  0.1529 -0.0265 -0.0476
27439W        W44286  11.933  13.037  15.162  0.0512 -0.0610 -0.1021
27440W        W44287  17.889  13.978  14.052 -0.0390 -0.3093  0.1598
27441W        W44288   0.012  11.938   2.618  0.4290 -0.0956  0.2015
27442W        W44289   6.247  10.062  13.536 -0.1935 -0.1181 -0.2564
27443W        W44290   7.858  16.380  11.659 -0.3694 -0.1736 -0.3498
27444W        W44291   8.679   6.253  14.393 -0.0611  0.1359  0.1836
27445W        W44292   1.797   5.099   2.870 -0.3572 -0.1017  0.0710
27446W        W44293   2.837  11.186   3.904 -0.1393  0.0033 -0.0362
27447W        W44294   2.432  11.335  16.503  0.0796  0.0221  0.3999
27448W        W44295   1.942  12.423   2.578 -0.0156 -0.1112 -0.2099
27449W        W44296  16.488   9.507  12.815 -0.1514 -0.0399 -0.0319
27450W        W44297   4.039  17.724  12.675 -0.1819  0.0081 -0.0246
27451W        W44298   3.020  17.058  16.540  0.0379 -0.0068  0.1598
27452W        W44299  12.651   3.677  12.072 -0.0777 -0.2287 -0.0214
27453W        W44300   4.659  17.594   0.129 -0.2038  0.1151 -0.1366
27454W        W44301   2.180   3.759  12.735  0.2760  0.1360 -0.0221
27455W        W44302  17.630  12.687   1.388  0.1582 -0.0727  0.2787
27456W        W44303   4.063   6.842  12.160 -0.1183 -0.0511  0.1003
27457W        W44304   5.853  12.683   0.355  0.0019  0.1157  0.2483
27458W        W44305   7.795   1.405  16.554  0.0870 -0.0633 -0.1110
27459W        W44306  15.054   3.919  15.821  0.1512 -0.0307 -0.0950
27460W        W44307   7.341  16.060   4.157 -0.0798  0.2312  0.2938
27461W        W44308  18.081  15.654   4.450 -0.2109 -0.1298  0.1502
27462W        W44309   5.182   5.291   6.179  0.0754 -0.1924  0.1113
27463W        W44310   3.694  16.216   1.958  0.1720 -0.0126  0.0501
27464W        W44311  17.938   8.912   5.940 -0.0009 -0.2557 -0.2044
27465W        W44312  16.138  12.220   3.053  0.2956  0.0047 -0.0495
27466W        W44313  15.111   8.674   4.976  0.0042  0.1500 -0.4019
27467W        W44314  13.554  17.147   4.682  0.0725 -0.0419  0.1206
27468W        W44315  10.502   6.698  11.013 -0.3349 -0.0116  0.0874
27469W        W44316   2.445  14.181   3.800  0.0257  0.2250 -0.1839
27470W        W44317   4.790   5.439   1.229 -0.0270  0.0589  0.0648
27471W        W44318  12.090  17.681  12.989  0.0348  0.0865  0.1123
27472W        W44319   6.721  14.107   5.792 -0.0461 -0.0474 -0.2378
27473W        W44320   1.934   6.083   4.395 -0.0908 -0.2585 -0.0334
27474W        W44321  13.030  13.436  11.856  0.0003 -0.0257 -0.2898
27475W        W44322   3.124   0.322   0.488  0.2232 -0.1652 -0.1063
27476W        W44323   7.002   3.320  10.498 -0.0751 -0.2138  0.3378
27477W        W44324   9.716   4.131   2.931 -0.3434  0.2462 -0.1885
27478W        W44325   5.197   7.687   2.800 -0.1382  0.0115  0.0496
27479W        W44326  14.032  11.479  15.387  0.0225 -0.3312 -0.1667
27480W        W44327   5.803  11.347   5.375 -0.4643 -0.2240  0.0470
27481W        W44328  16.960  15.383   5.038 -0.2787  0.3373  0.0019
27482W        W44329  17.174   1.202  10.985 -0.0725 -0.0509 -0.2668
27483W        W44330   8.258  12.759   4.104  0.1953 -0.2785  0.1194
27484W        W44331   0.206   5.458   2.300 -0.2084  0.1240  0.2189
27485W        W44332  14.429  13.882   4.168  0.3621 -0.1754  0.1797
27486W        W44333   5.531  14.160   1.991  0.1677 -0.0818 -0.2755
27487W        W44334  14.202  17.806   1.488  0.2833  0.2226 -0.0152
27488W        W44335   7.772  12.401   2.915  0.1756 -0.2410 -0.1026
27489W        W44336  13.356   6.384  15.027 -0.4522 -0.1765 -0.1493
27490W        W44337   2.698   6.526  15.656 -0.2691  0.2404 -0.0774
27491W        W44338  15.109   9.383  11.903 -0.1849  0.1464 -0.1848
27492W        W44339   8.897   8.788  15.343 -0.2252 -0.3898  0.5163
27493W        W44340  14.839  12.229  12.652  0.2693 -0.2601 -0.2520
27494W        W44341   5.629  14.555   0.136 -0.1603  0.2107  0.0326
27495W        W44342   2.308   9.879   4.542  0.2375 -0.0187 -0.2604
27496W        W44343   5.087  13.139  14.316  0.1710 -0.0231  0.0376
27497W        W44344  14.268  11.369  12.902  0.2976  0.3293  0.0343
27498W        W44345   8.073  17.238  14.515 -0.1538 -0.1704  0.0788
27499W        W44346   8.361  10.927   2.078 -0.1711  0.0180 -0.1284
27500W        W44347  17.729   1.943  11.653 -0.1986 -0.1925  0.1155
27501W        W44348  11.203   3.167  13.131 -0.0181 -0.0370  0.0760
27502W        W44349  11.165   9.955   0.384 -0.1424  0.1924 -0.1274
27503W        W44350  13.156  12.454   0.456 -0.0192  0.1224  0.2321
27504W        W44351  10.767  17.431   0.229 -0.0691  0.3230  0.2230
27505W        W44352   4.367   5.407  16.217  0.2247  0.1249 -0.0404
27506W        W44353  12.348  16.778  12.557  0.0910 -0.2611  0.0108
27507W        W44354  12.500  15.791  16.445  0.0761  0.0583  0.3890
27508W        W44355   9.951   3.327   1.205  0.1378  0.0535 -0.3408
27509W        W44356   5.939   6.143   1.970  0.1131 -0.1739 -0.0379
27510W        W44357  12.927  14.256  11.625  0.0525 -0.3928  0.0213
27511W        W44358  10.092  15.643   3.452 -0.0804 -0.1938  0.1914
27512W        W44359   4.102  16.563  15.575 -0.2260  0.1204  0.0211
27513W        W44360   9.816   8.367  12.946  0.0910 -0.2773 -0.0261
27514W        W44361   8.443  16.570   2.371 -0.1512  0.0704  0.2179
27515W        W44362  16.190  10.337  12.985  0.0256 -0.0932  0.0739
27516W        W44363   3.867   1.533   0.129  0.0403 -0.2858  0.0686
27517W        W44364   2.574  11.660  13.966 -0.2080  0.1349  0.1548
27518W        W44365   1.040   6.681   4.538  0.1039 -0.0676  0.0950
27519W        W44366   2.654  14.230  13.281 -0.2604  0.2433 -0.2041
27520W        W44367  17.032   3.548  13.451  0.1712 -0.2475 -0.1486
27521W        W44368   1.832   3.274   3.451  0.1475  0.0664 -0.0429
27522W        W44369   4.893  13.275   0.800 -0.0128 -0.1922  0.2100
27523W        W44370  16.872   9.640  14.790 -0.0573 -0.0503  0.1623
27524W        W44371   8.721   8.582   3.285  0.1405  0.4517  0.0313
27525W        W44372   4.155  17.199   0.045  0.0193  0.0516 -0.3883
27526W        W44373  17.253  15.179  13.952 -0.2675 -0.1244  0.0276
27527W        W44374  16.922  14.597   2.204 -0.2412  0.1689  0.1869
27528W        W44375   6.598  16.458  13.146  0.0413 -0.0418 -0.0400
27529W        W44376  13.039   0.695   5.520 -0.1844 -0.1544  0.2150
27530W        W44377  16.206  13.472   2.294 -0.0366  0.0681 -0.0790
27531W        W44378  15.550  14.930   3.422 -0.0520  0.2559  0.0566
27532W        W44379  17.951   9.141   2.074  0.1876  0.0678  0.0140
27533W        W44380   0.164  13.222   1.000 -0.1114 -0.0592 -0.1469
27534W        W44381   9.249  12.099  16.073  0.0066  0.2077 -0.2946
27535W        W44382  10.548  17.284   1.929 -0.0535  0.3116 -0.1279
27536W        W44383   0.346  15.135   5.077  0.2178  0.1084 -0.2125
27537W        W44384   2.415  17.479   3.364  0.2195  0.2019  0.0185
27538W        W44385  17.658   8.693  12.179 -0.1127 -0.2444  0.3325
27539W        W44386  17.875  12.342   4.763 -0.0555  0.1325 -0.2881
27540W        W44387  10.990   3.497   2.085 -0.1215  0.0479  0.0810
27541W        W44388   2.497   1.539  15.813  0.0899  0.0248  0.0625
27542W        W44389  13.339  17.898  11.423  0.0484 -0.0085  0.2094
27543W        W44390  11.276   7.305   1.288 -0.0634 -0.0964  0.1291
27544W        W44391  14.716   0.374  14.173  0.3214 -0.0545  0.1151
27545W        W44392   7.835  12.965  13.558 -0.1891  0.2115 -0.1387
27546W        W44393  15.944   3.427   5.638  0.0153  0.0728  0.0205
27547W        W44394   4.722  11.326  15.630 -0.5400 -0.1550  0.0426
27548W        W44395  10.521   0.185   1.844 -0.1307  0.0076  0.1740
27549W        W44396   7.081   5.780   4.271  0.0677  0.1439 -0.0536
27550W        W44397   8.347  15.311   3.466 -0.1124 -0.3870  0.1239
27551W        W44398  10.761  13.546   4.676 -0.2287 -0.2572 -0.0362
27552W        W44399  13.367   9.742   1.283  0.0513  0.2438 -0.1196
27553W        W44400   9.632  13.511   2.514 -0.0651 -0.3448  0.3069
27554W        W44401   0.395  10.419  16.178  0.3287  0.1965  0.0849
27555W        W44402  11.074  10.946  11.510 -0.0011 -0.0535 -0.1779
27556W        W44403  17.415   1.614  13.258  0.0060  0.2238 -0.0197
27557W        W44404   9.393  12.719   5.457 -0.1354 -0.0266 -0.1218
27558W        W44405  14.053  13.094   6.195  0.1051  0.0090 -0.1947
27559W        W44406  17.319   9.475   2.576  0.1541  0.0379 -0.2757
27560W        W44407  15.825  16.523  10.704 -0.1708 -0.1706  0.1830
27561W        W44408  17.080  15.405   0.677 -0.3321  0.1640 -0.2012
27562W        W44409  17.057   7.161   0.021 -0.2315  0.1570 -0.3479
27563W        W44410  14.788  17.419   0.539 -0.0209  0.2845  0.1548
27564W        W44411  11.955  16.288   2.376  0.2760 -0.0594  0.3661
27565W        W44412  10.589  17.878   0.524 -0.3489  0.1657  0.0807
27566W        W44413  14.472  14.160  14.110  0.2276 -0.0978  0.0478
27567W        W44414   9.523  16.768  16.433 -0.0936 -0.1287  0.2346
27568W        W44415   8.111   4.799   3.012 -0.0479 -0.3798  0.1638
27569W        W44416  15.352   7.237   5.905 -0.0512  0.0206 -0.2679
27570W        W44417   0.928  17.777   2.667  0.0830  0.3425  0.1606
27571W        W44418  17.111  16.589  12.184  0.0888 -0.0019  0.2273
27572W        W44419   9.493  10.394  11.231 -0.1028  0.2324 -0.1973
27573W        W44420  12.711  16.601   2.144  0.0627 -0.2495  0.0760
27574W        W44421   7.653   9.292  11.549 -0.3282  0.0636 -0.1599
27575W        W44422  12.121  14.984  14.046  0.1539 -0.1096 -0.2053
27576W        W44423   0.443  16.798  11.930  0.0736  0.2007 -0.0915
27577W        W44424  11.634   3.144   0.513  0.0281 -0.0756 -0.0341
27578W        W44425   0.161  17.706  15.318 -0.0312  0.0299 -0.0555
27579W        W44426   5.373   9.283   3.712 -0.4614 -0.0111 -0.0490
27580W        W44427   6.174  12.712  12.235  0.1407 -0.2251  0.2355
27581W        W44428   1.563   1.550  15.410 -0.1397 -0.2263  0.2878
27582W        W44429  13.606  13.447  14.764  0.0955 -0.1505  0.0493
27583W        W44430  10.489   1.386  15.843 -0.3765 -0.3133  0.1066
27584W        W44431   0.867   4.403   1.199  0.0547 -0.0665 -0.1759
27585W        W44432   8.810   1.426   6.036 -0.0354 -0.0127  0.0455
27586W        W44433   9.284  13.996   6.001  0.1466  0.0379 -0.1115
27587W        W44434   3.774   5.968   4.748  0.0126 -0.0574 -0.0499
27588W        W44435  10.390  17.900   5.086 -0.1387  0.1456  0.4105
27589W        W44436  10.678  12.433  16.238  0.2557  0.0207  0.3220
27590W        W44437   5.084   1.149   3.152  0.0851  0.0835 -0.1135
27591W        W44438  14.764   1.173  13.116 -0.0651  0.0285  0.1662
27592W        W44439  13.871  16.655   4.871  0.1677 -0.0728  0.0340
27593W        W44440  17.283   6.244  16.342 -0.0217  0.2729  0.3101
27594W        W44441   8.319   0.232   3.544 -0.0205 -0.0854 -0.1688
27595W        W44442  13.305   7.056  15.568 -0.2140 -0.2608  0.0940
27596W        W44443   7.426  16.443  14.823  0.0747 -0.1642  0.0989
27597W        W44444  18.105   0.467   0.445  0.1928 -0.1032  0.0375
27598W        W44445  17.489   7.437   3.769 -0.0268  0.0099  0.0114
27599W        W44446   0.945   5.897  10.963 -0.0306  0.0012  0.2802
27600W        W44447   3.962   3.638  12.299 -0.2939 -0.3276  0.0588
27601W        W44448  11.684  17.765  11.663  0.1604 -0.2162  0.0500
27602W        W44449  17.740   8.565  14.503  0.2640  0.0415  0.1373
27603W        W44450  13.188   3.500   1.952 -0.3005 -0.0237  0.0063
27604W        W44451   8.470   7.847  13.542  0.0851 -0.0248  0.1556
27605W        W44452  11.343   7.832   1.605 -0.2893 -0.2700  0.2791
27606W        W44453   7.734   3.595   5.997 -0.1338  0.2197 -0.2737
27607W        W44454  14.541  17.461  11.689 -0.0318  0.1489 -0.1246
27608W        W44455  15.594  12.476  12.588 -0.0236 -0.0395 -0.0909
27609W        W44456   8.404   3.183   4.937  0.1355  0.3977  0.1922
27610W        W44457  17.187  12.305   4.213  0.0394  0.0168  0.1041
27611W        W44458   6.389  11.890  13.811 -0.0217 -0.1632  0.2263
27612W        W44459  17.757  12.586  15.520 -0.3914  0.0463 -0.4248
27613W        W44460  11.504   3.937   0.086 -0.3098  0.1445 -0.0054
27614W        W44461   2.086   2.555   5.540 -0.4122 -0.2654 -0.3348
27615W        W44462  13.346   3.593   3.260  0.2754 -0.1126  0.2306
27616W        W44463  16.985  13.974   3.928  0.1269  0.1381  0.0140
27617W        W44464   5.259  11.143  13.201  0.0584  0.2902 -0.0688
27618W        W44465   0.564   3.487   4.868  0.0326  0.0969 -0.3696
27619W        W44466   6.125   0.940   3.677  0.1393  0.0890 -0.0794
27620W        W44467   0.276  14.728  11.553  0.1408 -0.0397  0.0817
27621W        W44468   6.156   8.512   2.975 -0.0945 -0.3658  0.2651
27622W        W44469  14.631  10.155  15.138 -0.1367  0.0161  0.3832
27623W        W44470   7.192  12.630  15.138 -0.0741 -0.0381  0.0676
27624W        W44471  15.567   7.863  12.747 -0.3164 -0.0447 -0.1078
27625W        W44472  11.058   4.175   5.061  0.2707 -0.3216 -0.3561
27626W        W44473   2.194   9.085  12.535  0.0048  0.0480  0.1167
27627W        W44474  13.558  17.447  11.996  0.3914  0.3182  0.0468
27628W        W44475  10.935  11.881   4.984  0.0308 -0.1917  0.4327
27629W        W44476   7.264  12.269   3.610 -0.0176 -0.1996 -0.3229
27630W        W44477   4.454   9.548  13.283 -0.0651  0.0242 -0.1564
27631W        W44478   3.180  11.915  16.424  0.1476 -0.4647  0.3756
27632W        W44479   0.477   4.100   1.476 -0.2508  0.0698 -0.0911
27633W        W44480  17.852   6.706   2.934  0.5155  0.0837 -0.2430
27634W        W44481   7.004   9.758  12.142 -0.0236  0.2464 -0.1138
27635W        W44482  13.421   0.148  16.136 -0.1599 -0.2344 -0.0697
27636W        W44483   7.867   6.497  13.446 -0.0321  0.5192  0.0395
27637W        W44484   0.020   6.185   2.860 -0.3485  0.0059  0.0415
27638W        W44485  11.820   2.429   5.315 -0.1020  0.1149  0.0496
27639W        W44486   4.581  15.123   1.864 -0.1469  0.0300  0.0399
27640W        W44487   0.189  12.685   0.230  0.0114 -0.0336 -0.1476
27641W        W44488  12.250  10.574  15.623 -0.1026 -0.2802  0.0124
27642W        W44489  18.172  10.374   2.777  0.1524  0.0870  0.1474
27643W        W44490  16.345  13.272  16.302 -0.1034 -0.1792 -0.1100
27644W        W44491   9.917  12.027  13.951  0.0956  0.4157  0.2338
27645W        W44492  15.565   0.771  12.874 -0.1470  0.1531  0.3748
27646W        W44493   0.949  11.934  13.959 -0.0425  0.2283 -0.1607
27647W        W44494   1.546  12.492   1.036 -0.0247 -0.2365 -0.1824
27648W        W44495   6.128   3.819   3.584 -0.2200  0.1581 -0.0709
27649W        W44496  15.359   0.361   4.701  0.0899 -0.4958 -0.1755
27650W        W44497  16.502   7.336   2.674 -0.0420 -0.4953  0.0917
27651W        W44498   1.932   7.996  13.220 -0.1330  0.0387 -0.1651
27652W        W44499   0.442  17.657   2.700  0.0466  0.1074  0.2251
27653W        W44500  10.752   8.120  12.619  0.0321 -0.3322  0.2502
27654W        W44501   7.916   9.000   3.353  0.1164  0.3205 -0.1069
27655W        W44502   2.243   6.264   1.280  0.0689  0.2327  0.0050
27656W        W44503  11.632  15.232  12.473 -0.0032 -0.2913 -0.1969
27657W        W44504   4.904   1.846  16.417 -0.0314 -0.3616 -0.1864
27658W        W44505   4.610   2.679  16.147  0.0583  0.3353 -0.0368
27659W        W44506  10.660  13.988   0.051  0.1550 -0.2708  0.0754
27660W        W44507  14.724  16.643   1.719 -0.0701 -0.0053 -0.1022
27661W        W44508   2.862   7.988   4.293 -0.0999  0.2215 -0.1197
27662W        W44509   5.788   8.861  11.506  0.1938  0.2233 -0.1830
27663W        W44510   8.636   1.204  12.535  0.3244  0.1553 -0.3235
27664W        W44511  12.531   2.282  12.971  0.0294 -0.0577 -0.3243
27665W        W44512   8.791   3.627   0.551 -0.1472 -0.0942 -0.1184
27666W        W44513   2.275  15.675  16.534 -0.0962  0.1725 -0.0295
27667W        W44514  12.605  10.781   2.388  0.0617 -0.0523 -0.0968
27668W        W44515   6.502   8.000  14.438 -0.1690  0.0987  0.0593
27669W        W44516  11.877  14.245   5.293  0.0066 -0.1731 -0.0566
27670W        W44517  17.842   2.841   0.470 -0.1835 -0.0089 -0.1019
27671W        W44518   7.611  10.366   3.265 -0.0294  0.0663 -0.0371
27672W        W44519   9.196   6.949  15.845  0.0814 -0.0362 -0.1340
27673W        W44520  12.752   4.846  11.704 -0.3599 -0.3626  0.0099
27674W        W44521  11.987  13.159   4.515  0.1532  0.1230 -0.2981
27675W        W44522  14.136   9.388  15.824 -0.0987  0.1279 -0.3353
27676W        W44523  14.459  17.023   0.791  0.1764  0.0599  0.1182
27677W        W44524  15.553  13.993  11.717 -0.0058 -0.0709  0.0975
27678W        W44525   6.743  10.554  15.369  0.0649 -0.1829  0.0931
27679W        W44526   2.697   9.591   1.584 -0.1757 -0.2819 -0.1097
27680W        W44527  17.630   7.091   0.735 -0.2330 -0.2320 -0.3149
27681W        W44528   6.267   1.139   1.957  0.1125 -0.3352  0.0369
27682W        W44529   6.293  10.572  16.280 -0.0542  0.2461  0.0173
27683W        W44530   7.096  16.179  14.500 -0.1192  0.2786  0.0825
27684W        W44531   4.319  18.044   2.327  0.2103  0.3431  0.0339
27685W        W44532   2.572   2.004  11.468  0.2467  0.2907 -0.2710
27686W        W44533   7.301  14.841   1.956  0.3805  0.1483 -0.1242
27687W        W44534  16.217  13.623   0.098  0.1694 -0.3188 -0.0535
27688W        W44535  15.632  14.884  15.481 -0.4247  0.0032 -0.0433
27689W        W44536   2.341  12.049   4.191 -0.0680 -0.1058  0.1201
27690W        W44537   7.670   6.434   2.203 -0.2286 -0.3956 -0.1535
27691W        W44538  13.063  16.253  12.696  0.1544 -0.0948 -0.0705
27692W        W44539  17.826  16.473   1.790 -0.0569  0.2861 -0.0836
27693W        W44540   9.913  14.962   3.018 -0.3927 -0.1556  0.0529
27694W        W44541   8.187   7.230  11.940 -0.0178 -0.0300 -0.2376
27695W        W44542   8.350  13.101   3.072  0.1052  0.0255 -0.0734
27696W        W44543   8.258   2.832  12.484  0.1090 -0.2161 -0.1872
27697W        W44544   7.759   2.112  13.612  0.1619  0.0615  0.0001
27698W        W44545  13.576  17.222  13.372  0.0767  0.1244 -0.0638
27699W        W44546   7.803   0.614   1.171  0.1588 -0.1008 -0.0353
27700W        W44547  16.105   3.675   1.354 -0.1930 -0.0575 -0.1982
27701W        W44548  14.870   9.518   3.917  0.0806 -0.1262 -0.0720
27702W        W44549   0.442  11.872   2.293 -0.0777  0.1322 -0.0652
27703W        W44550   0.011  13.894   1.553 -0.4040 -0.1018  0.2012
27704W        W44551   1.647   2.824  13.581 -0.1946  0.1294 -0.2724
27705W        W44552  12.775  11.841   1.247  0.4443  0.3832 -0.2713
27706W        W44553   9.429   6.781   3.945 -0.2845 -0.2546 -0.1091
27707W        W44554   8.039   8.379  15.477 -0.2605 -0.0855 -0.1818
27708W        W44555  11.639   2.519  16.210  0.2489 -0.3922 -0.0353
27709W        W44556  10.549   7.603  13.841  0.0042 -0.1540  0.2070
27710W        W44557   7.956   3.667   0.905  0.1377 -0.0636 -0.0213
27711W        W44558   8.901  11.170  16.060 -0.0031 -0.0568 -0.0889
27712W        W44559   1.187   0.485  12.065 -0.1269  0.3633 -0.1523
27713W        W44560  15.442  10.983  16.435 -0.0358 -0.0606 -0.1686
27714W        W44561   5.881   6.254   3.463 -0.1713  0.1251  0.2867
27715W        W44562   3.266   6.615   2.013  0.1218  0.1371  0.0085
27716W        W44563  16.733   7.143  13.068  0.0675 -0.0222 -0.2348
27717W        W44564  13.200   4.823   2.782  0.0965  0.0957  0.4025
27718W        W44565   8.078   3.412   4.445 -0.1288  0.0297  0.0580
27719W        W44566  15.369   9.643  14.251  0.1298 -0.2208 -0.2529
27720W        W44567   5.503   6.145   4.900  0.0772 -0.0276  0.0190
27721W        W44568  12.996   8.880  14.171  0.0988 -0.0837  0.2544
27722W        W44569   7.846   5.019   4.352  0.4196  0.0538 -0.0427
27723W        W44570  14.053   0.956  14.208 -0.3715 -0.1074  0.0437
27724W        W44571   7.806  16.952  12.748 -0.1947 -0.0798 -0.4346
27725W        W44572  12.816   6.025   5.691 -0.1022 -0.0373 -0.0521
27726W        W44573   1.974   1.177  11.910 -0.3685 -0.1633  0.0137
27727W        W44574  17.214   9.422  13.592  0.2913  0.1606 -0.1973
27728W        W44575  17.467   0.008   4.007  0.3276  0.0156  0.2723
27729W        W44576  15.280  10.926   5.078  0.1183  0.0163  0.0907
27730W        W44577   6.811   8.675   5.086 -0.3824 -0.2625 -0.1409
27731W        W44578   5.354   2.680  16.546 -0.1298  0.0720  0.0239
27732W        W44579   4.710  15.251  16.052 -0.1835 -0.1706 -0.0053
27733W        W44580  15.751  12.652   0.668 -0.0010 -0.1793 -0.3471
27734W        W44581  12.522   7.372  12.436  0.0263  0.3143 -0.4199
27735W        W44582  13.356   8.486  12.774  0.0092  0.1763 -0.0195
27736W        W44583   1.985   6.910  12.550 -0.0329 -0.1437  0.1288
27737W        W44584  17.632   5.014  11.741 -0.3141 -0.1254 -0.6484
27738W        W44585  18.023  16.228  11.345  0.0316 -0.0599 -0.0470
27739W        W44586   6.495   9.118  15.584 -0.0206  0.0783  0.1916
27740W        W44587   0.575  17.179   0.417  0.0672 -0.1935  0.0854
27741W        W44588   5.493  17.549   1.154  0.0246  0.0027 -0.0131
27742W        W44589   3.809  11.773   1.814 -0.1109 -0.3200 -0.0482
27743W        W44590   3.686  15.208   4.432  0.0199  0.5111  0.0386
27744W        W44591   4.626  16.662   5.202  0.2858  0.0187 -0.0193
27745W        W44592   2.202   0.838   3.416 -0.0624  0.1484 -0.0723
27746W        W44593  16.493   6.757   1.423 -0.1129 -0.0624 -0.1106
27747W        W44594   9.795  11.189  12.225 -0.1852  0.1963  0.0945
27748W        W44595  11.603  16.695   3.434  0.1229 -0.3378 -0.2183
27749W        W44596  15.477   6.188   4.188  0.1814 -0.3241  0.0358
27750W        W44597  12.054   6.722  12.522 -0.0371  0.0354  0.0072
27751W        W44598   1.540   0.848  11.941 -0.2183  0.2512  0.0889
27752W        W44599  15.738  18.154   3.972 -0.4156 -0.0269 -0.1321
27753W        W44600   9.547  15.935   0.096  0.4327  0.0484  0.2547
27754W        W44601  12.853   5.189  13.149  0.1981  0.1647 -0.0511
27755W        W44602   0.057   8.262   2.405  0.1984 -0.2908  0.1778
27756W        W44603  17.860   0.863   2.932  0.0749 -0.0937  0.2200
27757W        W44604   3.630   1.752   5.145  0.2613  0.0614  0.0860
27758W        W44605   5.009  14.959   2.121 -0.0801 -0.0896 -0.1645
27759W        W44606   7.151  10.304   3.422  0.1557 -0.1248 -0.0974
27760W        W44607  17.689   7.181   5.418  0.1282  0.1524 -0.2163
27761W        W44608   0.050   2.031   5.383 -0.0524  0.2703 -0.1339
27762W        W44609  15.121   4.000  16.286 -0.1311 -0.1835 -0.0397
27763W        W44610  12.881   6.693  12.372  0.1516 -0.2557 -0.3041
27764W        W44611   1.177   1.986   4.225  0.1334 -0.0593  0.1649
27765W        W44612  11.388  17.297   4.549  0.1508 -0.4029  0.0344
27766W        W44613  13.508   5.135  14.767  0.0607 -0.1359 -0.1305
27767W        W44614  12.181  11.661   5.378  0.1201  0.0478 -0.0701
27768W        W44615  14.435   5.157  12.369  0.1142 -0.0835  0.2035
27769W        W44616   4.803   1.896   2.527 -0.1644  0.0437 -0.0914
27770W        W44617   3.402   1.182   3.578 -0.3146 -0.1775 -0.1664
27771W        W44618   1.916   2.310  15.291  0.0173 -0.1292 -0.0938
27772W        W44619   6.537   4.915   1.222 -0.2464  0.3843 -0.1299
27773W        W44620  14.694   0.326  16.565  0.0806  0.2271  0.3308
27774W        W44621  17.334  10.809   3.983  0.1277  0.0983 -0.2704
27775W        W44622  12.304   6.957   0.478  0.1701  0.2076  0.0963
27776W        W44623  14.343  12.963   0.108 -0.0091 -0.1035 -0.1249
27777W        W44624   5.366  11.210  12.405 -0.2019 -0.0163 -0.0767
27778W        W44625  16.646  16.965  15.636  0.0638  0.1860  0.1031
27779W        W44626   6.182  10.096  14.423  0.1567  0.1444  0.2217
27780W        W44627   1.939  14.608  13.454 -0.2459  0.0541  0.2197
27781W        W44628   3.775  16.641   3.413  0.0735 -0.0722 -0.0763
27782W        W44629  13.957  16.180   4.749 -0.1358  0.0824 -0.0202
27783W        W44630   3.172   6.262  15.606 -0.1925  0.4121  0.0741
27784W        W44631   8.226   8.764   0.926 -0.0408 -0.4221  0.0497
27785W        W44632   3.761   0.345   6.322  0.1143 -0.0998  0.2019
27786W        W44633  13.946  17.786  12.009  0.1694 -0.2113 -0.1149
27787W        W44634   7.423   4.412   4.858  0.0410  0.0715  0.0362
27788W        W44635  11.776  12.709  13.373  0.2484  0.0463 -0.0066
27789W        W44636   6.796   6.992  15.408  0.1230 -0.2844  0.0690
27790W        W44637   5.462   2.344  12.843 -0.0449 -0.0599 -0.2489
27791W        W44638   3.211  17.959   3.613  0.1168 -0.3074  0.4216
27792W        W44639  13.791   8.698   2.888 -0.1799  0.0806  0.1384
27793W        W44640   4.169  14.374  14.423 -0.0166 -0.3894  0.3093
27794W        W44641   3.792   1.759   1.915  0.0146  0.1456  0.0813
27795W        W44642   1.348  16.410  15.621  0.0894  0.0713  0.0121
27796W        W44643   4.202   1.322   3.545  0.1286  0.0463  0.0695
27797W        W44644   8.183   3.871   2.980  0.1065  0.0209 -0.2079
27798W        W44645   0.182   0.143   5.098 -0.0476  0.1616  0.0999
27799W        W44646  17.509   4.219  13.999  0.2197  0.1238 -0.2800
27800W        W44647   5.117   4.950  14.387 -0.2680  0.0969  0.1289
27801W        W44648   2.751   7.527  14.720 -0.0112 -0.2959 -0.0505
27802W        W44649   1.390  10.644  12.178 -0.1700 -0.2830  0.1857
27803W        W44650   4.751  17.613   5.305 -0.0161  0.1936 -0.4111
27804W        W44651   1.942  12.353   0.736  0.2525  0.1051  0.2495
27805W        W44652   0.150  14.799  13.900  0.2593 -0.0180  0.1832
27806W        W44653   8.796  11.935   4.892 -0.2813 -0.1574  0.0661
27807W        W44654  10.045  12.181  15.598  0.1451  0.1098 -0.2359
27808W        W44655  12.429  10.292  13.069 -0.1666 -0.0888  0.0110
27809W        W44656   6.775  17.944   0.848  0.1185 -0.2874  0.2924
27810W        W44657  11.668  10.519  13.706 -0.1739  0.1001  0.2635
27811W        W44658  14.095   7.298   1.685  0.1258  0.1184 -0.2221
27812W        W44659   1.790   6.252  15.077 -0.2749  0.0207  0.3519
27813W        W44660   5.492  17.844   0.340  0.1802  0.0175  0.0932
27814W        W44661   3.464  12.913  15.413 -0.2659 -0.4580  0.2403
27815W        W44662   7.877  12.094  11.668 -0.1400  0.0176  0.0598
27816W        W44663   0.795   6.110   3.021 -0.0509 -0.2717  0.1654
27817W        W44664  10.512   6.230  12.511  0.1152  0.0835 -0.2609
27818W        W44665   5.274   8.767   0.705 -0.0181  0.0144  0.0892
27819W        W44666   9.628   1.410  15.937 -0.0050 -0.1476 -0.1010
27820W        W44667   1.392   7.279   5.917 -0.1683 -0.1533  0.0707
27821W        W44668   5.121  12.325  12.420  0.2105  0.2375 -0.0461
27822W        W44669   6.498   9.450   4.617 -0.4028 -0.2513  0.2351
27823W        W44670  15.685   4.428  12.332  0.0204 -0.3933  0.0720
27824W        W44671  12.245   2.190  14.382  0.1698  0.3395 -0.1400
27825W        W44672   7.456   7.544  11.995 -0.0509 -0.1334  0.0478
27826W        W44673  16.093   6.126   3.782  0.0772  0.0021 -0.0249
27827W        W44674  13.424  16.886  15.673  0.0586 -0.3061  0.1335
27828W        W44675  10.555  17.988  13.151 -0.5000  0.0302  0.1377
27829W        W44676   4.038  13.663   4.148  0.1072 -0.1360  0.2898
27830W        W44677  11.010   9.324  12.339 -0.3325  0.0226 -0.1443
27831W        W44678   7.152  10.546   2.899  0.0483  0.2485  0.0518
27832W        W44679  10.299   4.853   2.545 -0.0994 -0.1090 -0.1807
27833W        W44680  17.066  10.277  12.923 -0.0882  0.2425 -0.3316
27834W        W44681  11.026  15.438  13.493 -0.1002  0.0473 -0.1766
27835W        W44682  13.415   9.469  12.714 -0.1083 -0.2761  0.2783
27836W        W44683  15.183  17.371  14.797 -0.1643  0.1684 -0.1366
27837W        W44684   6.442   4.624   4.011  0.0984 -0.1069 -0.0839
27838W        W44685  16.828  13.082   5.930  0.1359 -0.0879  0.0038
27839W        W44686  10.805   0.726  15.839 -0.0937 -0.0860  0.3469
27840W        W44687   9.895  12.716   1.521 -0.1159  0.0512  0.2459
27841W        W44688   8.172   3.439   5.349  0.1630  0.0856 -0.1413
27842W        W44689   0.917  14.844   6.456  0.1747 -0.0555 -0.0438
27843W        W44690  17.102   9.349  14.434 -0.3787 -0.1327  0.2001
27844W        W44691   1.597  16.016   4.930 -0.1154 -0.2124  0.1701
27845W        W44692  17.690   0.370   3.031 -0.0449 -0.0185 -0.1466
27846W        W44693   8.027  17.859   0.484  0.0322  0.1073  0.1242
27847W        W44694   7.237   1.113  14.468 -0.0659 -0.2587 -0.0184
27848W        W44695   7.149  14.579  15.963 -0.2634  0.1627  0.2532
27849W        W44696   8.865   7.771  12.042  0.0030  0.1499  0.1003
27850W        W44697  17.858   6.301   2.540  0.1200  0.0468  0.0107
27851W        W44698  16.426  10.067   1.724  0.1978 -0.1495  0.0089
27852W        W44699   5.652   0.296  16.074  0.3126 -0.1264 -0.2078
27853W        W44700   8.046  17.799  16.078 -0.0488 -0.2593  0.0853
27854W        W44701   4.493   7.214  15.955  0.0993  0.1125 -0.0197
27855W        W44702   1.206   3.029   2.763 -0.3161  0.0125  0.0351
27856W        W44703   2.006   8.973  12.096 -0.2828 -0.1634 -0.1992
27857W        W44704  10.153   3.198  14.299  0.1929 -0.1852  0.0565
27858W        W44705  12.446   2.346   3.333  0.0148  0.1693  0.1428
27859W        W44706  15.258   0.891  14.620 -0.0938 -0.0977  0.2688
27860W        W44707   2.311  11.411   1.508 -0.0256 -0.0465  0.2839
27861W        W44708   5.528  10.236   3.239  0.2125 -0.0745 -0.0368
27862W        W44709  17.149  17.651  11.485  0.1254  0.1658  0.0309
27863W        W44710  18.022  12.840   1.066 -0.2433 -0.0558  0.2462
27864W        W44711   8.128  15.330   1.513  0.1686  0.0583 -0.1210
27865W        W44712   9.346  17.457   3.964  0.0918  0.4553  0.1588
27866W        W44713  16.667   3.112   4.410 -0.1985  0.1784 -0.3281
27867W        W44714   1.687  16.538  12.648 -0.0179  0.2084 -0.1632
27868W        W44715  15.557   3.624   5.449  0.1568  0.1991  0.0830
27869W        W44716   3.270  17.510  16.439 -0.0382 -0.5193 -0.0919
27870W        W44717  15.717   2.005   4.326 -0.3851  0.0420  0.2462
27871W        W44718  17.850  10.535   0.623  0.0844 -0.0835  0.1143
27872W        W44719   6.135   5.305   0.590  0.1964 -0.3468 -0.1122
27873W        W44720  14.473  10.507   4.771 -0.4532  0.0166  0.1974
27874W        W44721   0.085   7.281   2.554  0.0889  0.1833 -0.0806
27875W        W44722  15.469  15.744  14.721 -0.0496  0.0549 -0.4696
27876W        W44723  14.935  10.568  12.950  0.1337  0.0301  0.4112
27877W        W44724  11.154  11.947  14.914 -0.2743 -0.1493 -0.0824
27878W        W44725   8.958  17.548  16.148  0.1406 -0.0295  0.3278
27879W        W44726   9.716  17.165   4.455 -0.1492 -0.1450  0.1479
27880W        W44727   2.284   3.107  16.057 -0.1725  0.1294 -0.1734
27881W        W44728   9.434   5.106  13.369  0.2682 -0.1934  0.3903
27882W        W44729   5.658  18.053   1.276  0.0870  0.1197  0.0360
27883W        W44730  12.984   0.896  14.934  0.1572 -0.0371 -0.1421
27884W        W44731   5.748   6.986  12.972  0.0474 -0.1717  0.0427
27885W        W44732   3.371   5.364  13.640 -0.1159  0.0955 -0.1315
27886W        W44733  13.005   3.229   4.227 -0.1927  0.0573  0.0736
27887W        W44734  14.337  10.445  15.554 -0.1880  0.3929  0.0826
27888W        W44735  10.324   7.002   4.450 -0.0387 -0.1593  0.2035
27889W        W44736   4.065   6.355  12.263 -0.0208  0.1303  0.0431
27890W        W44737   1.353  15.016  12.833  0.1275  0.2342 -0.0113
27891W        W44738  14.855   0.089  15.592 -0.3272 -0.0196 -0.1796
27892W        W44739  12.763  11.160  12.753 -0.0866 -0.1789  0.0219
27893W        W44740  16.660  16.099   0.710  0.0120  0.0755 -0.0357
27894W        W44741   1.036   9.214  14.515  0.0340  0.0977  0.0546
27895W        W44742  15.123  13.178  15.127  0.1589  0.0482  0.0811
27896W        W44743  11.912   0.978  11.843 -0.4076  0.0239 -0.1022
27897W        W44744   0.754   1.917  12.708  0.2056  0.0830  0.2668
27898W        W44745   8.608   0.217   1.071 -0.1987  0.2520  0.1461
27899W        W44746   8.235  15.985  16.322  0.0856 -0.0583  0.0103
27900W        W44747  15.771   0.082   4.582  0.1716  0.1115 -0.2205
27901W        W44748  12.857  12.049   1.698  0.2910  0.0622  0.0299
27902W        W44749   6.728  10.154   3.596 -0.0377 -0.0478  0.0486
27903W        W44750   8.324   4.894   4.922 -0.0293 -0.1007 -0.0335
27904W        W44751   0.801  17.433   3.023 -0.0840 -0.0938  0.0571
27905W        W44752  12.867   0.292   2.582 -0.0444  0.2484 -0.0067
27906W        W44753  16.689   9.140  15.051 -0.0299 -0.0367 -0.4887
27907W        W44754  16.375  13.517  12.579  0.0043 -0.0721  0.3843
27908W        W44755   2.883   1.117  13.454 -0.3188  0.0107 -0.2311
27909W        W44756   8.061   1.598  16.178  0.1812 -0.2813  0.2377
27910W        W44757  12.929  17.819  14.441 -0.2565 -0.2060 -0.1244
27911W        W44758  17.040   6.044   1.032 -0.2540  0.1418  0.1057
27912W        W44759  15.660   1.213   0.686  0.5062  0.2091 -0.3475
27913W        W44760  15.899   4.184   0.661  0.2584  0.1098  0.0309
27914W        W44761  16.884   1.954   2.509 -0.0517  0.0762 -0.1986
27915W        W44762  11.577  14.519   2.321  0.1270  0.2847 -0.0381
27916W        W44763   0.870   1.471  12.923  0.1177 -0.0051  0.1921
27917W        W44764   8.000   7.987   0.480 -0.2257  0.0389  0.2971
27918W        W44765   0.063   9.987  11.747 -0.2945 -0.2782 -0.0117
27919W        W44766   7.439   2.023   1.531 -0.3933 -0.2735  0.0425
27920W        W44767   5.652   1.543  15.989  0.2456  0.0761 -0.2513
27921W        W44768  10.159  10.469  16.203 -0.2928 -0.0573 -0.2674
27922W        W44769   6.111  11.354  12.267  0.0301  0.1301 -0.1775
27923W        W44770  10.878  13.110   2.550  0.0107 -0.1895  0.3538
27924W        W44771  10.082  12.810   1.994  0.2017  0.2705 -0.1266
27925W        W44772   0.938   9.949  12.623  0.1446  0.1704  0.1562
27926W        W44773   5.570   3.828  13.831 -0.0855  0.1004 -0.2905
27927W        W44774  15.396  11.375  12.546 -0.1573  0.0865 -0.0787
27928W        W44775   0.102  13.539   0.610  0.0502  0.0092  0.0493
27929W        W44776   7.161  17.419  12.049  0.1472  0.2361  0.3411
27930W        W44777  15.308  10.305   1.014 -0.1983 -0.2424 -0.0608
27931W        W44778  11.198  17.145   2.076  0.4172 -0.2903 -0.2035
27932W        W44779   5.569  15.705   3.379 -0.0738 -0.2218  0.0752
27933W        W44780   9.418   2.005  16.489  0.2426  0.2365  0.1476
27934W        W44781   9.768   8.707   2.921  0.2563 -0.0625 -0.2310
27935W        W44782  10.569   5.614   5.853  0.1391  0.0061 -0.0661
27936W        W44783  12.416  10.760   5.871 -0.2288 -0.0770 -0.1233
27937W        W44784   7.486  12.236   6.231 -0.1688  0.0216  0.0914
27938W        W44785  14.954  16.897  14.399  0.1472 -0.0943  0.0837
27939W        W44786   9.589   8.569   4.821 -0.1369  0.1670  0.1209
27940W        W44787   9.800  10.536   3.060 -0.1998  0.0785 -0.0626
27941W        W44788   2.361   8.627   0.553  0.0392 -0.0374 -0.1685
27942W        W44789  14.329   0.274   3.762  0.0593 -0.0673 -0.2070
27943W        W44790   8.756  13.749  11.508 -0.0536  0.0328  0.0135
27944W        W44791   2.465   2.242   5.437 -0.3308 -0.1953 -0.1724
27945W        W44792   5.658  10.574   4.868  0.1373  0.2555  0.1255
27946W        W44793   0.434   2.978   1.897 -0.1316 -0.1176  0.0554
27947W        W44794   9.430   3.578   4.418 -0.0039 -0.2381  0.0471
27948W        W44795   8.733   1.788   3.347 -0.0545  0.0548 -0.1633
27949W        W44796  14.243  15.319   3.963 -0.0172 -0.0205 -0.2081
27950W        W44797   7.121   6.839  14.972 -0.0644  0.3452  0.3593
27951W        W44798  16.660   1.159  12.943 -0.1535  0.1527 -0.0214
27952W        W44799  16.682   9.795   5.699  0.1913 -0.0782 -0.1616
27953W        W44800  10.710  16.074   1.021 -0.1565 -0.1584  0.1902
27954W        W44801   0.752   5.831  14.757 -0.3011 -0.4124  0.0185
27955W        W44802   0.236   8.638  13.537  0.2306 -0.2513  0.2253
27956W        W44803   0.141   9.465   4.001 -0.0566  0.0065  0.1185
27957W        W44804   3.157   2.001  12.922 -0.3663  0.1431 -0.0627
27958W        W44805   3.051  13.928  15.739  0.1436  0.2123  0.2442
27959W        W44806  11.015   2.501  12.380  0.1580  0.0202  0.1344
27960W        W44807   4.755   1.830  15.293  0.0337 -0.2304  0.3183
27961W        W44808   3.898   3.698   1.709  0.1593  0.0027 -0.1390
27962W        W44809   1.391   3.305  12.399 -0.0478 -0.1046 -0.0546
27963W        W44810  15.284   7.847   5.013  0.1942 -0.0498  0.1033
27964W        W44811  14.636   1.732  12.107  0.1652 -0.0792  0.1397
27965W        W44812   8.685  16.154   3.859 -0.4473  0.1931 -0.2636
27966W        W44813   9.994   4.665   2.131  0.2585 -0.2583 -0.0095
27967W        W44814   7.055   9.154   2.758  0.1908 -0.1632  0.0689
27968W        W44815  14.175  14.628  11.610  0.1294 -0.0676 -0.2434
27969W        W44816  15.460   8.675   0.952 -0.0815 -0.1882 -0.1431
27970W        W44817  10.848   0.334  11.496  0.1476  0.1232  0.1726
27971W        W44818  14.610   7.180  15.566 -0.2660  0.1990  0.0068
27972W        W44819   1.632   2.805   3.521 -0.0361  0.1587  0.0964
27973W        W44820   6.525  13.968   1.353 -0.3745 -0.0781 -0.1874
27974W        W44821  12.854   8.274  12.799 -0.2084  0.0815 -0.0043
27975W        W44822   9.560  16.558   0.629 -0.3005 -0.0376  0.1054
27976W        W44823   7.046   6.818   5.842 -0.1880  0.0985 -0.1862
27977W        W44824   1.068   7.771  14.742 -0.2040 -0.2588 -0.0498
27978W        W44825   5.683   3.551   2.084  0.4826  0.0221  0.2271
27979W        W44826   2.397   9.278   1.070  0.0904  0.3621 -0.2405
27980W        W44827   0.713   1.929  14.346  0.1335 -0.3157 -0.0572
27981W        W44828   8.098  12.969   4.513 -0.0512  0.0002 -0.3754
27982W        W44829   3.357   0.159   0.066  0.3254 -0.2545 -0.4563
27983W        W44830   7.960   0.158   3.192 -0.0941 -0.0295 -0.1108
27984W        W44831  12.016  11.541   0.159 -0.0340  0.0752  0.0755
27985W        W44832  10.209  14.733   3.828  0.0954  0.0392  0.2837
27986W        W44833  18.003  10.389  15.286  0.1840 -0.1818 -0.1111
27987W        W44834  11.292  11.723  14.404  0.2269  0.3681 -0.1320
27988W        W44835  14.743   9.101   3.674 -0.1425 -0.1509 -0.1946
27989W        W44836   4.413  12.887   1.513  0.1161  0.3718  0.0448
27990W        W44837   4.559   0.960  15.450  0.2008  0.0315  0.1077
27991W        W44838   7.584   5.885  11.662 -0.2190  0.3024  0.0899
27992W        W44839  17.932   4.238  15.318 -0.2581  0.4608  0.1035
27993W        W44840   3.802  10.967   0.973 -0.1797 -0.2313 -0.0280
27994W        W44841   6.824  16.158   4.230 -0.0817 -0.0310  0.4382
27995W        W44842   5.864   4.263   2.884  0.0708 -0.2767  0.0573
27996W        W44843  14.230   5.130   4.333 -0.3008 -0.2356  0.2375
27997W        W44844  12.325   6.812   3.750 -0.1067 -0.0150  0.2350
27998W        W44845  11.955   9.068   1.222  0.1890 -0.1728  0.0447
27999W        W44846   1.620  12.988  15.356 -0.4203 -0.1302  0.1537
28000W        W44847   9.341   5.746  12.567 -0.7737  0.0955 -0.0628
28001W        W44848  16.776   5.574   5.346  0.2463 -0.0838  0.0292
28002W        W44849  16.861   8.587   4.500 -0.0165  0.1212  0.1968
28003W        W44850   8.411   1.191   4.280  0.3257  0.0430 -0.3361
28004W        W44851  11.193  15.829   0.846 -0.2596  0.1515  0.0565
28005W        W44852   7.616   1.748   1.140 -0.4620 -0.0478  0.0574
28006W        W44853   7.481   2.155   2.587 -0.2401 -0.1291  0.1528
28007W        W44854   6.485  11.375  11.968 -0.1615  0.2213  0.0258
28008W        W44855  14.002  11.822  13.732 -0.3096 -0.0441  0.0344
28009W        W44856  10.961  14.587  11.602 -0.2226 -0.1152 -0.1277
28010W        W44857  16.939  11.061  13.022  0.0280  0.2118 -0.2475
28011W        W44858   6.268   7.515  14.749  0.2823 -0.3194 -0.0745
28012W        W44859   8.317   1.898   2.640 -0.0261  0.0305 -0.1952
28013W        W44860  15.164  17.281  13.889  0.0634 -0.1534  0.4281
28014W        W44861   5.036   2.092   5.463  0.3011  0.0690  0.0380
28015W        W44862   1.044   5.522   5.282 -0.1333  0.3137 -0.1280
28016W        W44863  13.785   4.631  16.234 -0.2341 -0.3880  0.0982
28017W        W44864  12.811   1.340  12.840  0.1858  0.2448  0.0335
28018W        W44865  17.974   9.271   4.371  0.1855 -0.2590 -0.2663
28019W        W44866  11.627  11.504  13.989 -0.2052  0.0342 -0.1281
28020W        W44867  13.127  13.289  13.639  0.0903  0.0037  0.1109
28021W        W44868  14.236  15.018   5.438 -0.0793 -0.1547  0.2526
28022W        W44869  17.318   9.699   4.991 -0.1764 -0.0541  0.1227
28023W        W44870  12.195  14.388   3.314 -0.0804  0.0701  0.0432
28024W        W44871  16.824   5.788   1.597 -0.1401 -0.0702  0.1420
28025W        W44872   7.372  14.464  12.305  0.0694 -0.0752 -0.1065
28026W        W44873  15.592   6.709  14.806  0.0501  0.0974 -0.1101
28027W        W44874   1.638   0.359   3.841 -0.1199 -0.0878  0.0129
28028W        W44875  15.134   8.746  13.279  0.3360  0.1338 -0.0799
28029W        W44876  16.969  13.907   2.638  0.0019  0.2942 -0.0662
28030W        W44877   3.627  12.288   1.123 -0.0301 -0.1113 -0.0228
28031W        W44878   3.870  17.502   4.726  0.2438  0.2676  0.1922
28032W        W44879   8.410  17.905  13.993 -0.1711  0.2479 -0.0124
28033W        W44880  17.044  11.140  12.143 -0.4171 -0.0735  0.0756
28034W        W44881   5.507   3.103   2.835 -0.2719 -0.2427  0.0990
28035W        W44882   8.757   4.676   4.760 -0.1794 -0.0429  0.1912
28036W        W44883   3.160   3.925   2.326  0.1786  0.0632  0.0343
28037W        W44884  13.038   6.830  13.659 -0.1400  0.0584 -0.0678
28038W        W44885   9.366   7.044  14.523  0.0207 -0.0843  0.0641
28039W        W44886   4.218   8.410   6.200 -0.1461  0.2199  0.1303
28040W        W44887   0.717  14.556   3.571  0.3459  0.1311 -0.0099
28041W        W44888   5.288   6.718  12.457 -0.2279  0.0477  0.1326
28042W        W44889   5.304  10.314   2.640 -0.0201  0.1318  0.0649
28043W        W44890   2.328  12.889  15.197 -0.0690 -0.0906  0.2218
28044W        W44891  14.201   3.085  15.033  0.0222 -0.0389  0.3406
28045W        W44892   6.244   9.553   1.048 -0.0066 -0.1657 -0.0954
28046W        W44893  12.597  12.338   4.463  0.0372  0.0657 -0.0422
28047W        W44894   4.837  12.559   1.522  0.2774 -0.2127 -0.0313
28048W        W44895  10.901  10.727   4.396 -0.1020  0.1312 -0.0344
28049W        W44896  13.143  14.594   3.536  0.1100 -0.0490 -0.0319
28050W        W44897   0.626   9.426  11.866  0.0731  0.0936 -0.0082
28051W        W44898   9.258  11.107  13.559  0.2865  0.1526  0.4747
28052W        W44899  11.706  13.216  13.346  0.0844  0.4094 -0.1394
28053W        W44900   3.083  15.101   4.339  0.0448 -0.1449  0.1892
28054W        W44901  15.473  17.889  15.642  0.1201  0.3872 -0.0862
28055W        W44902  16.248  15.752   0.966  0.1685  0.0038  0.0485
28056W        W44903   9.625   7.227   0.617 -0.0009 -0.2075 -0.2311
28057W        W44904  17.843   8.990   5.024 -0.0018  0.0280  0.1252
28058W        W44905   3.965   5.442  16.526 -0.0911 -0.0831 -0.0974
28059W        W44906   4.478  12.147   1.450 -0.0310 -0.1317 -0.1189
28060W        W44907  13.452  17.982   1.877  0.1969  0.1929  0.1289
28061W        W44908  16.475   8.563   1.656 -0.0279  0.0160 -0.2970
28062W        W44909   5.341   3.222  16.197  0.3438  0.0245  0.0081
28063W        W44910   5.689  10.813   2.108  0.1192  0.1382  0.1601
28064W        W44911   7.828  15.835   5.427 -0.0063 -0.2246 -0.3005
28065W        W44912  14.658   3.936   4.349  0.2149  0.0402  0.0724
28066W        W44913   7.809  12.660  16.622 -0.1837  0.0389 -0.0113
28067W        W44914   0.114   6.969  16.233 -0.0677  0.1133 -0.0504
28068W        W44915   2.841  11.183   4.415  0.1327  0.0044 -0.0150
28069W        W44916   1.104   5.902  16.098  0.0195  0.0160 -0.2499
28070W        W44917  10.280   7.397  12.210 -0.0777  0.2266 -0.1351
28071W        W44918   8.438   8.193  11.957 -0.0131 -0.0190  0.2546
28072W        W44919  12.701   5.899   4.360  0.0300  0.1393 -0.0571
28073W        W44920   5.821  16.744  14.701  0.0866 -0.2518 -0.2496
28074W        W44921   5.157   2.553   1.336 -0.2238  0.0307  0.1444
28075W        W44922  15.927   3.941   3.829  0.0676 -0.0732  0.1364
28076W        W44923  17.102   0.891  13.428  0.0005  0.0994 -0.0969
28077W        W44924   3.238  10.200  13.199 -0.1696  0.0614  0.0319
28078W        W44925  17.289   6.194  12.080  0.2368 -0.0566 -0.4695
28079W        W44926   4.722   7.699  12.409 -0.0076 -0.0081  0.0261
28080W        W44927  16.498   5.754  11.717  0.2773  0.1042 -0.0131
28081W        W44928  15.276   1.012  13.239  0.0300 -0.2237 -0.1225
28082W        W44929  12.691   8.782  16.531  0.2813  0.0701 -0.1425
28083W        W44930   9.835   9.009  16.118  0.0750  0.1968  0.1979
28084W        W44931   8.964   8.169  14.672 -0.2842 -0.3695  0.1741
28085W        W44932   5.789  13.902  15.262  0.3538 -0.1340  0.1627
28086W        W44933   5.357   1.431   2.008  0.1606  0.0736  0.0845
28087W        W44934   6.297  16.366   4.296  0.0911 -0.0876  0.4089
28088W        W44935   5.335  14.204  14.940  0.1629 -0.1096  0.2311
28089W        W44936   3.253   6.851  11.912  0.2499 -0.2050 -0.2267
28090W        W44937  14.949   8.212  14.656  0.0600 -0.3087  0.0301
28091W        W44938   0.283  16.055  13.165 -0.0832 -0.2383  0.0530
28092W        W44939   2.300  12.770   0.701  0.0812 -0.3019 -0.1069
28093W        W44940   0.535  11.310   3.899  0.1794 -0.1246 -0.1027
28094W        W44941   8.659  16.255  13.972 -0.2109 -0.1153  0.0716
28095W        W44942   4.880  13.461  16.585  0.0281  0.0298  0.1148
28096W        W44943   3.316  17.589  15.334  0.0896 -0.0897  0.0325
28097W        W44944  15.445  11.842   0.419  0.0611  0.2297  0.2925
28098W        W44945   8.508  15.028  14.759 -0.2243  0.1043  0.3028
28099W        W44946  11.244   0.044   0.778  0.0512 -0.0700  0.0228
28100W        W44947  10.872  11.949  12.037 -0.0030  0.1834 -0.4492
28101W        W44948   1.558   1.699   5.439  0.0452 -0.2121  0.1027
28102W        W44949   7.946   8.241  12.006  0.0300 -0.0187 -0.0075
28103W        W44950  17.959   3.430   4.359 -0.1781 -0.1041 -0.2151
28104W        W44951   5.320  10.841  12.757  0.0342  0.1825  0.1213
28105W        W44952  17.759  14.295  13.677  0.0519 -0.0032 -0.0797
28106W        W44953   3.280   0.588  13.875  0.0647 -0.1700 -0.1560
28107W        W44954  14.908   0.673   2.696  0.0704  0.1391  0.0524
28108W        W44955   5.687   4.165  11.578  0.0495 -0.1596 -0.0186
28109W        W44956   9.257  12.859   2.695  0.0029  0.3296 -0.1020
28110W        W44957  11.559   7.834   3.142  0.0798  0.0916  0.1255
28111W        W44958  12.814   1.449  11.758 -0.6948 -0.1240  0.0075
28112W        W44959   7.736  12.342  15.887  0.3125 -0.1694  0.0430
28113W        W44960  17.953  15.859  14.755  0.1762 -0.1909 -0.1055
28114W        W44961   4.244  13.557   5.329 -0.0313 -0.3896 -0.1462
28115W        W44962  11.634  17.371   2.157 -0.1864 -0.0545 -0.0569
28116W        W44963  10.172  16.148  13.813  0.1298  0.0942  0.0473
28117W        W44964   5.632  15.482  11.858 -0.0185 -0.0489 -0.1884
28118W        W44965   3.262   2.247  13.417  0.0526  0.0211  0.2099
28119W        W44966  16.267  11.939  14.102  0.0483  0.0268 -0.0975
28120W        W44967  13.361   6.666  13.197 -0.2588  0.0061 -0.0324
28121W        W44968  11.319  17.756  13.535  0.1381  0.0404 -0.2998
28122W        W44969  16.112   1.232   0.437 -0.1891 -0.1726 -0.3259
28123W        W44970   2.230   1.448   3.583 -0.0238  0.3395  0.1689
28124W        W44971   1.122   1.608  14.413 -0.3161  0.1077 -0.0414
28125W        W44972   1.665   0.534  15.106 -0.1761 -0.0204 -0.5061
28126W        W44973  17.574  10.292  12.494  0.0511 -0.4604 -0.0582
28127W        W44974  13.938   6.980   5.149 -0.1643  0.0305  0.1132
28128W        W44975   6.246  14.740   3.257 -0.0597  0.3039  0.0552
28129W        W44976  17.396  14.239   5.778  0.2330 -0.4037 -0.1022
28130W        W44977  17.481   3.872   3.402  0.1613 -0.2393  0.3214
28131W        W44978   3.062   3.755  13.015  0.1146  0.1517 -0.1622
28132W        W44979  12.100  10.270  16.594  0.1538 -0.0707 -0.2336
28133W        W44980   5.091   2.541   4.556 -0.4240 -0.0961  0.0559
28134W        W44981   3.947   3.155  15.900 -0.0217 -0.1234 -0.2813
28135W        W44982  13.772   3.971   1.257  0.1583  0.1353  0.1624
28136W        W44983   1.584   7.406  15.694 -0.2627 -0.1222  0.0073
28137W        W44984   9.441  15.176   5.456  0.2754  0.2102 -0.0455
28138W        W44985   7.069   8.100   1.888 -0.0127 -0.1982  0.1470
28139W        W44986   0.951  17.756   1.190  0.1058  0.0651  0.2392
28140W        W44987  16.416  12.205   4.829 -0.2085 -0.1603  0.0686
28141W        W44988  13.395  10.899  12.936 -0.2413  0.1716  0.0201
28142W        W44989   1.803   7.086   0.530 -0.0925  0.1397 -0.3414
28143W        W44990   7.062   7.930  12.669  0.5124 -0.1727  0.0845
28144W        W44991  12.167   7.086  14.278 -0.3847 -0.0406 -0.1988
28145W        W44992  15.020  13.538   2.830  0.2354  0.0774  0.0414
28146W        W44993   1.497   1.466   6.248 -0.2169  0.1008 -0.2478
28147W        W44994   9.155   1.007   2.754 -0.1624  0.2791  0.2645
28148W        W44995  12.233   5.307   4.880  0.0592 -0.2402 -0.0935
28149W        W44996  12.074   7.838  16.448 -0.2799  0.1023  0.2260
28150W        W44997   5.959   1.956  15.531 -0.4334 -0.0778 -0.0658
28151W        W44998  14.228  14.889   4.249 -0.0063 -0.0130 -0.0494
28152W        W44999   8.100  16.171   5.185 -0.1148  0.2052  0.0559
28153W        W45000  13.908  16.365   5.256 -0.1653  0.1482  0.0398
28154W        W45001  14.690   5.564   5.051  0.2073 -0.2264 -0.0745
28155W        W45002   5.199  12.465  13.401 -0.0026 -0.2839  0.0784
28156W        W45003   5.360   7.405  11.011 -0.2103  0.2227 -0.0442
28157W        W45004  12.972  13.973   0.316 -0.0070 -0.2856 -0.3556
28158W        W45005   1.624   4.226  14.823 -0.2229  0.0708 -0.0164
28159W        W45006   1.885   8.185  14.522 -0.0292 -0.0624 -0.1862
28160W        W45007   1.253  10.494   5.047  0.0090  0.2320  0.1558
28161W        W45008  15.264  11.381  11.680  0.3238  0.0622  0.1720
28162W        W45009  13.476   9.120  14.693 -0.4581  0.1125  0.0731
28163W        W45010   0.295   3.003   0.047 -0.2198  0.0982  0.1100
28164W        W45011  16.643  16.270   2.400  0.0120  0.0296  0.4013
28165W        W45012  10.798   4.743  14.687  0.3543  0.0208 -0.2462
28166W        W45013   8.099  13.956  15.498  0.4073  0.2966 -0.2001
28167W        W45014   0.619   8.841  14.524  0.0209  0.1167  0.0723
28168W        W45015   8.851   9.690   2.486 -0.1314  0.1374 -0.0186
28169W        W45016  16.958   0.189  14.040 -0.0530  0.3496 -0.0056
28170W        W45017   6.740  16.895   5.570 -0.1163 -0.0057 -0.0653
28171W        W45018  17.857  11.184   4.275  0.0474 -0.0529  0.1473
28172W        W45019  14.222   3.264   5.958 -0.3271 -0.1341 -0.0487
28173W        W45020  11.045  10.818   2.124  0.0482  0.1854  0.2933
28174W        W45021   8.034   7.375   2.913  0.1542 -0.0499 -0.1667
28175W        W45022   9.023   1.049   4.342 -0.6318  0.3675 -0.1622
28176W        W45023  11.183  11.879   5.435  0.3334 -0.0555 -0.2005
28177W        W45024   2.705  10.419  12.373 -0.0528  0.1798 -0.1428
28178W        W45025  10.696   4.298  11.154 -0.0487  0.2022 -0.1822
28179W        W45026   8.689  17.040   3.983  0.0951 -0.3778 -0.1249
28180W        W45027  17.445  12.194   3.072  0.0123 -0.3332  0.0754
28181W        W45028  11.578  17.087   0.297 -0.0563  0.1491 -0.0260
28182W        W45029  10.693   0.222  13.606  0.0472 -0.0534  0.1505
28183W        W45030   3.184  12.336  15.184 -0.1034 -0.0854 -0.2189
28184W        W45031   7.405   7.845   2.439  0.0969  0.2041  0.0895
28185W        W45032  15.639  16.092  13.783 -0.0034  0.2401 -0.2772
28186W        W45033  14.940  14.427   2.990 -0.0002 -0.1221  0.3152
28187W        W45034  11.861   1.886   4.426 -0.2381 -0.1092 -0.1873
28188W        W45035  14.222   3.107  12.649 -0.2423 -0.3816 -0.2366
28189W        W45036   3.832  13.145  16.114  0.2227  0.0066  0.2711
28190W        W45037  13.452  14.689   4.382  0.1279  0.1561 -0.5687
28191W        W45038   1.855  12.142   1.266 -0.1250  0.0350 -0.0549
28192W        W45039  17.080   8.531  13.937 -0.1972 -0.0679  0.0817
28193W        W45040  11.330  11.375  13.531  0.2297  0.1945  0.0721
28194W        W45041   2.083  10.637   0.633 -0.1289  0.4151 -0.2896
28195W        W45042   6.186   6.706  12.871 -0.2122 -0.0976 -0.0860
28196W        W45043   8.562   0.319  13.496 -0.2647 -0.0182  0.3261
28197W        W45044   0.241   7.500   3.558 -0.0954  0.1238  0.0111
28198W        W45045   5.866   9.813  13.358 -0.2099 -0.1778 -0.2826
28199W        W45046   3.526  13.287   3.596 -0.0844  0.0786 -0.0679
28200W        W45047  14.465  17.587   0.982 -0.0452 -0.0803 -0.0739
28201W        W45048   7.526   3.705  15.999 -0.1811  0.1601  0.3519
28202W        W45049  10.444  12.042   3.343 -0.2727  0.0049 -0.1656
28203W        W45050   7.999   5.749   4.998  0.3353  0.4495  0.0742
28204W        W45051   7.476  17.322  12.669  0.2685 -0.2188 -0.1057
28205W        W45052   8.522  12.778   2.353 -0.0318 -0.0522 -0.0175
28206W        W45053   6.263   1.034  13.679  0.1437  0.2071 -0.0658
28207W        W45054   7.964  16.470  15.572 -0.0078  0.0063 -0.3384
28208W        W45055  11.281  10.758   5.059 -0.2565  0.1023 -0.2219
28209W        W45056   8.948   6.428  11.975  0.0503  0.1185 -0.0195
28210W        W45057  13.087   6.056   4.635  0.0160 -0.1447  0.1100
28211W        W45058   6.574  16.373  16.250 -0.3507 -0.1527 -0.2188
28212W        W45059   3.669  11.186   5.444  0.2735 -0.0466 -0.1355
28213W        W45060   7.919  10.332   4.952 -0.0169  0.0633 -0.0702
28214W        W45061   8.745   5.697  12.187  0.2080  0.0053 -0.1066
28215W        W45062   5.918  14.197   3.850  0.0284 -0.0152  0.2294
28216W        W45063   6.335   7.539  10.937  0.1304  0.2610  0.1499
28217W        W45064   2.647  11.798  12.281 -0.2109  0.0171 -0.0118
28218W        W45065   8.620  10.994   1.625 -0.0164  0.1133  0.3725
28219W        W45066   9.751   8.990   1.554 -0.0388  0.2003 -0.3019
28220W        W45067  11.983   6.692  11.962 -0.4238  0.1583  0.1118
28221W        W45068   4.963  11.971   4.603  0.1167  0.0377 -0.0477
28222W        W45069   1.162   5.824   0.300 -0.2813  0.1955  0.0392
28223W        W45070   6.804  11.880  13.254 -0.3047  0.1300 -0.2019
28224W        W45071  14.012  11.841   2.708  0.0130 -0.2350 -0.1689
28225W        W45072   1.257   7.973  12.269  0.0711  0.0467  0.2572
28226W        W45073   4.587   3.239  14.035  0.0959  0.1174  0.0129
28227W        W45074   4.430  15.238   5.472 -0.0824  0.0822 -0.1411
28228W        W45075   5.420   4.080   4.645  0.2583 -0.0602  0.0671
28229W        W45076   7.928   1.901  11.428  0.0050 -0.1538 -0.0938
28230W        W45077  13.725   2.577  13.834  0.2904 -0.1981  0.2174
28231W        W45078   2.889  17.831   2.370  0.1290  0.3366 -0.0933
28232W        W45079  10.072  18.096  12.635 -0.1701  0.1626 -0.0065
28233W        W45080  10.316  13.113  12.482 -0.0901  0.2589 -0.0559
28234W        W45081   4.073  10.540  15.730  0.1093 -0.1078 -0.2013
28235W        W45082  13.606   7.640  16.191 -0.0502 -0.3285 -0.0342
28236W        W45083   6.347  15.120  15.681  0.3776 -0.0175  0.0821
28237W        W45084   8.871  15.277   3.216  0.0419  0.1056 -0.0422
28238W        W45085   0.937  10.608   2.556  0.1277  0.1236 -0.1735
28239W        W45086   2.842  16.114   2.186  0.0371  0.1066 -0.1269
28240W        W45087  10.762   6.074  16.480 -0.0472 -0.1293  0.0777
28241W        W45088  13.820  10.493  14.549  0.3434  0.2881 -0.2015
28242W        W45089   5.652  16.758   0.007 -0.2079  0.0215  0.0736
28243W        W45090   9.758  12.302  12.541  0.2025  0.2144  0.0456
28244W        W45091   5.808  10.310  15.442  0.1806  0.0266 -0.2142
28245W        W45092   4.304  15.417   0.476 -0.1773  0.0177  0.0792
28246W        W45093   5.745   2.884  16.336  0.0300 -0.0533 -0.3273
28247W        W45094   6.551   4.503   6.412  0.1195 -0.0886  0.1079
28248W        W45095   0.790  12.953   3.098 -0.3517  0.3152  0.1710
28249W        W45096  14.408  14.489   3.162  0.2829  0.0167 -0.1602
28250W        W45097   8.574   6.159  12.198  0.2139 -0.5517 -0.0315
28251W        W45098  12.496  10.809  16.007  0.0300 -0.2185 -0.3463
28252W        W45099  10.760  16.067   0.482  0.0209 -0.0809 -0.2412
28253W        W45100   0.334   4.098   0.196  0.0765 -0.0017 -0.1225
28254W        W45101   9.622  10.312   0.010  0.1977 -0.1999 -0.0305
28255W        W45102   7.058  15.716  15.503  0.0128  0.0326 -0.1070
28256W        W45103   0.436   8.162  15.393  0.0457 -0.1175 -0.0956
28257W        W45104  13.874   5.982  14.323  0.2842 -0.1970 -0.0733
28258W        W45105   8.174   5.729   3.908  0.0493  0.1164 -0.1709
28259W        W45106  10.871  13.307   5.103  0.2221 -0.3182 -0.2110
28260W        W45107   6.246  18.102  16.603 -0.2998  0.0208 -0.0930
28261W        W45108   1.647   8.736   1.268 -0.3752  0.0482 -0.1244
28262W        W45109  13.178   1.909  14.354 -0.0563  0.1464  0.0588
28263W        W45110   2.757  11.310  11.985 -0.1260 -0.0964 -0.0337
28264W        W45111   3.883   8.305  16.581  0.0702  0.0530 -0.1929
28265W        W45112  12.664   4.685   3.302 -0.1738 -0.1029  0.0396
28266W        W45113  16.430  15.606  15.778 -0.0576 -0.1296 -0.1840
28267W        W45114  16.386  17.505   0.789  0.2114 -0.2296  0.0302
28268W        W45115   3.634   1.986  13.042 -0.1129 -0.2577  0.2264
28269W        W45116  10.298  13.242   0.396 -0.1633 -0.1416  0.0730
28270W        W45117   0.785  14.779   5.543  0.0734 -0.0033  0.0152
28271W        W45118  16.826   1.892  13.533  0.0923 -0.2987 -0.4361
28272W        W45119   1.172   0.126   4.806 -0.0748  0.1773 -0.1844
28273W        W45120  14.130  13.404  14.529 -0.0157  0.0558  0.1816
28274W        W45121  16.939   9.914   1.473 -0.1172  0.2731 -0.0216
28275W        W45122  11.109   3.448  12.687  0.0504 -0.2302  0.0124
28276W        W45123   5.510  14.706   2.057 -0.0866  0.4506  0.1667
28277W        W45124  15.662  13.204   1.871 -0.1748 -0.0147  0.0033
28278W        W45125   4.805  13.184   1.581 -0.2115  0.1022  0.2297
28279W        W45126   9.036  13.023   3.522 -0.2147 -0.0354 -0.0511
28280W        W45127  12.211   5.307  15.386  0.0700 -0.4642 -0.2997
28281W        W45128   9.383  15.655  14.068  0.4196 -0.1618 -0.2418
28282W        W45129   3.012   2.523   3.457 -0.0883  0.1998  0.1432
28283W        W45130  15.726   0.049   5.989 -0.0895  0.0056  0.0431
28284W        W45131   5.292   3.310   1.887  0.3221  0.0024  0.0524
28285W        W45132  16.161  13.506   4.897  0.1839  0.0849 -0.0879
28286W        W45133   7.133  17.994   3.092 -0.0392 -0.1986  0.0665
28287W        W45134   1.528  12.986  13.852  0.2093  0.2243 -0.1321
28288W        W45135   3.535  10.884  15.685 -0.1215 -0.0096 -0.2117
28289W        W45136  11.840  10.879   2.673 -0.1903  0.0770 -0.1003
28290W        W45137   2.126   1.901  14.400 -0.3503  0.0306 -0.3090
28291W        W45138   5.781  13.466   3.548  0.2712 -0.0563  0.0081
28292W        W45139   4.572  12.964   2.352  0.2073 -0.0040  0.0724
28293W        W45140   0.655   3.927  12.459  0.1756  0.1538  0.2847
28294W        W45141  13.848   3.238   2.918  0.1678  0.2089  0.0815
28295W        W45142   9.446   1.471  16.447  0.0872 -0.2046  0.3924
28296W        W45143  15.606  10.787  13.347  0.0250 -0.0769  0.0398
28297W        W45144  15.023   3.619   2.593 -0.1722  0.3352  0.2261
28298W        W45145   9.942   2.177  15.248 -0.2020 -0.3219  0.3165
28299W        W45146   6.691   0.201   1.184 -0.0127 -0.3567  0.0868
28300W        W45147   5.528   2.619   4.207 -0.1727  0.4038 -0.0744
28301W        W45148   1.907   2.214   4.618 -0.2991  0.2807 -0.0264
28302W        W45149  10.700  14.896  15.236  0.1492 -0.0026  0.2209
28303W        W45150   1.894   9.499   2.783  0.1482  0.0215 -0.1234
28304W        W45151   5.556  16.754   4.665 -0.1548  0.3009  0.0236
28305W        W45152  11.351  16.655   0.561 -0.1912  0.3129  0.1389
28306W        W45153   1.149  13.412   1.317  0.2884 -0.0230 -0.0988
28307W        W45154   9.951  14.279   3.714 -0.1834  0.1726  0.0518
28308W        W45155   2.068  18.011  12.748 -0.0956  0.0561  0.0526
28309W        W45156   2.762   3.673   3.880 -0.1287  0.2554  0.1949
28310W        W45157  14.152  11.806   2.173  0.0250  0.3343  0.0082
28311W        W45158  16.189  11.715  12.600 -0.1482  0.1028 -0.1409
28312W        W45159   2.446   0.316  12.104  0.1728  0.1925 -0.2185
28313W        W45160  14.280  11.660  14.128  0.0489 -0.3151  0.0344
28314W        W45161   0.508   1.864   3.251  0.0398  0.1217 -0.0283
28315W        W45162   6.541   8.395  13.790  0.1174 -0.0497 -0.1903
28316W        W45163  14.981  13.853   4.555  0.1065  0.1869  0.3300
28317W        W45164  17.315  11.872   0.330 -0.1589 -0.5242  0.0547
28318W        W45165   4.143  11.968  13.345 -0.0224 -0.2610 -0.1792
28319W        W45166   0.117   4.928   1.450 -0.0227 -0.2392 -0.2477
28320W        W45167   9.274   3.223  15.786  0.2336  0.1319 -0.0703
28321W        W45168  17.706  14.460  14.156 -0.2467 -0.2712  0.1069
28322W        W45169  13.926   0.934   2.602 -0.1634 -0.0985  0.1917
28323W        W45170   7.035  17.224  14.921  0.1221 -0.3010  0.1903
28324W        W45171  17.784   5.829  11.859 -0.1802 -0.2557  0.3729
28325W        W45172  12.982   9.255  12.796 -0.0661  0.1587  0.1877
28326W        W45173  16.346   0.398  10.503  0.1231 -0.0304 -0.0747
28327W        W45174  11.531   1.896  16.061 -0.1343 -0.0348  0.3180
28328W        W45175  12.983   7.972   4.915 -0.1272 -0.0773 -0.0012
28329W        W45176  17.646  12.178  16.623  0.0203 -0.2545  0.0871
28330W        W45177   3.474  14.540  13.348  0.1058 -0.1982 -0.1377
28331W        W45178   5.263   2.467  14.158  0.6184  0.1434  0.2059
28332W        W45179  12.484  17.955   2.755 -0.0931 -0.0789 -0.0880
28333W        W45180   6.046   9.872   4.118  0.1428 -0.4857  0.1043
28334W        W45181   1.041   4.292   4.831 -0.1313 -0.1842  0.0535
28335W        W45182  10.291  12.769  14.558  0.1640  0.2551  0.0073
28336W        W45183  16.660   1.169  15.467 -0.1455  0.0662 -0.0814
28337W        W45184   7.522  11.805  15.100 -0.2143 -0.0141 -0.1987
28338W        W45185   6.941  11.011  15.284 -0.1154 -0.1573 -0.0814
28339W        W45186  14.329  13.316  13.023  0.0888 -0.0396  0.1621
28340W        W45187  14.062   6.968  13.777 -0.0936  0.2850  0.1782
28341W        W45188  11.669   8.789   3.420 -0.2508  0.0738  0.0724
28342W        W45189   7.768  13.822   2.955  0.0871 -0.0967 -0.0050
28343W        W45190   8.610   2.790   1.991 -0.1048  0.0715 -0.0901
28344W        W45191   1.497  11.463   4.155  0.0625 -0.2028  0.2390
28345W        W45192  16.412   5.335  15.352  0.1334 -0.0209  0.0567
28346W        W45193  16.001   3.669   5.183  0.0526 -0.1384 -0.0721
28347W        W45194   5.855   1.492  15.570  0.0479 -0.2200 -0.0851
28348W        W45195  10.781   7.702  13.384  0.0727 -0.4173  0.2123
28349W        W45196  15.811   1.173   2.253  0.2190  0.0473  0.2359
28350W        W45197  10.196  11.585   3.489  0.1016 -0.1991 -0.2275
28351W        W45198  13.990  11.970  15.747  0.3482 -0.1177  0.0412
28352W        W45199  14.980  14.128  14.183 -0.1985  0.2153 -0.1010
28353W        W45200   7.705   0.424  12.394 -0.3290  0.1740 -0.3580
28354W        W45201  17.725   4.986   4.912 -0.0627  0.0929  0.1915
28355W        W45202  12.813  15.157  16.309  0.0376  0.0042  0.0118
28356W        W45203  11.658   1.304   3.689  0.2353 -0.0982  0.0565
28357W        W45204   8.918  14.161   4.814  0.2489  0.0482 -0.0047
28358W        W45205   7.565  17.378   6.117  0.0710 -0.2765 -0.1014
28359W        W45206   7.745   5.130  13.339  0.0250  0.0340  0.1916
28360W        W45207  14.823  16.057   0.256 -0.2059  0.1436 -0.0519
28361W        W45208   8.575  15.252  11.657 -0.1581 -0.0651 -0.3827
28362W        W45209   8.955  11.825  12.978  0.1930 -0.1006  0.0172
28363W        W45210  10.267   5.114   1.989  0.1342 -0.0532 -0.0473
28364W        W45211  17.797  16.119   2.119 -0.1131  0.0984 -0.0944
28365W        W45212   9.944   7.510   1.762  0.1740  0.2581  0.0801
28366W        W45213   6.358   8.466  12.783 -0.0814 -0.1622 -0.1143
28367W        W45214  15.763  14.929   5.322 -0.1138  0.0478 -0.1342
28368W        W45215  18.084  11.901   4.516 -0.0354  0.0832  0.1890
28369W        W45216  15.703   8.606  13.372  0.0664  0.0696 -0.2004
28370W        W45217   7.855   1.624  14.727 -0.1871 -0.0773  0.1060
28371W        W45218   8.691   9.173   1.477  0.2569  0.0332 -0.2143
28372W        W45219   4.639   4.145  13.971  0.2377  0.1315 -0.3493
28373W        W45220   4.973   3.891   4.583  0.2451 -0.1100  0.0801
28374W        W45221   3.484  10.690   3.765 -0.2801 -0.2458  0.0113
28375W        W45222  14.885   7.284   4.208  0.0849 -0.1429  0.0276
28376W        W45223  13.576   2.829   2.876 -0.0529  0.1171  0.2112
28377W        W45224   6.543  17.278   5.095  0.0091  0.1698 -0.3784
28378W        W45225  13.050  11.000   1.599 -0.1652  0.1420  0.3698
28379W        W45226   4.028   1.967   3.685 -0.0018 -0.1104  0.0956
28380W        W45227   5.117  13.852  16.085  0.4017 -0.1676 -0.0937
28381W        W45228  13.335   9.607  11.746 -0.0725  0.2877  0.0427
28382W        W45229  16.014  14.423   5.190  0.0126  0.2972 -0.0483
28383W        W45230  11.003  16.218  12.790  0.0460 -0.1013 -0.0040
28384W        W45231   7.891  11.734   0.298 -0.0003 -0.2400  0.3317
28385W        W45232  15.852   9.747  13.987 -0.1911 -0.1540  0.2814
28386W        W45233   1.539   6.269  12.922  0.0516 -0.2999 -0.3368
28387W        W45234   1.937   9.882  15.887 -0.0597 -0.1410 -0.0956
28388W        W45235   8.917  17.602   0.098 -0.0949 -0.2897  0.1319
28389W        W45236  12.185  14.073   4.028  0.1225 -0.2031  0.1990
28390W        W45237  16.936   1.030   3.644  0.0230 -0.1903 -0.1946
28391W        W45238   7.234   8.905  12.316  0.2154  0.2888  0.1956
28392W        W45239   2.908  14.465   5.787  0.0508 -0.1539 -0.0889
28393W        W45240   5.276  15.995  15.240 -0.1175  0.0685 -0.1989
28394W        W45241  11.579   7.592  12.359 -0.1715  0.1444 -0.3164
28395W        W45242   3.669   6.381  14.417  0.0309 -0.1338 -0.1067
28396W        W45243   8.817  16.192   0.246  0.0683 -0.1237  0.3178
28397W        W45244   1.079  10.209   3.740 -0.0644 -0.1892 -0.0110
28398W        W45245  14.796  13.589   3.531  0.4757  0.0213  0.0991
28399W        W45246  14.417  15.828  14.476  0.0054  0.3111  0.0980
28400W        W45247  15.654   7.944   6.225 -0.0977 -0.1572  0.2640
28401W        W45248  16.584   1.783   2.916  0.0281 -0.2853  0.0141
28402W        W45249   7.970   8.658   4.798  0.1665 -0.2025 -0.0088
28403W        W45250   2.825   9.559  14.619 -0.1283  0.1601  0.1220
28404W        W45251  12.902  10.501  14.492 -0.1215 -0.1070 -0.1381
28405W        W45252   5.302  10.867  13.668 -0.2370  0.1497  0.1927
28406W        W45253  15.854  10.824  12.941 -0.0170  0.0851  0.3979
28407W        W45254   5.974  10.480   0.110 -0.0150  0.0185  0.1439
28408W        W45255  12.829  10.720   0.181  0.0363 -0.1874  0.2243
28409W        W45256  12.612   5.723  14.136  0.0413  0.3368  0.2915
28410W        W45257  13.577  15.405  12.276  0.1582 -0.0859  0.0280
28411W        W45258   6.767  16.859  15.211  0.0703  0.2561  0.0819
28412W        W45259  13.066  16.293   4.813  0.1266 -0.1639  0.1513
28413W        W45260  17.336   1.528  15.228  0.3515  0.0799 -0.4411
28414W        W45261  17.956  10.233  14.712  0.1990  0.1582  0.0851
28415W        W45262  16.025  10.797   2.173 -0.0371 -0.0809  0.0736
28416W        W45263   2.420   5.584  12.168 -0.2749 -0.0855 -0.2162
28417W        W45264   7.834   2.601  15.182  0.1561  0.1447  0.0024
28418W        W45265   3.973  14.184  14.836 -0.0368  0.0001 -0.0487
28419W        W45266  15.561  10.002  11.473  0.0974 -0.1265 -0.0278
28420W        W45267   9.023   2.539  12.348 -0.4336  0.2231 -0.0474
28421W        W45268   7.294  11.606   2.495 -0.2168 -0.2583  0.1511
28422W        W45269  14.648   4.551   2.274 -0.1996  0.0907  0.2005
28423W        W45270   8.472  12.781  11.090 -0.1406 -0.2597 -0.1824
28424W        W45271   8.791   9.831   4.759  0.0788 -0.3014  0.4174
28425W        W45272   1.424   5.643  14.587  0.0055 -0.1013 -0.3539
28426W        W45273   3.960   7.970   5.094 -0.3086 -0.0278  0.0075
28427W        W45274   2.224  17.299  12.744 -0.0506 -0.0690  0.1171
28428W        W45275  16.726  11.943   4.482 -0.4132 -0.4089 -0.1855
28429W        W45276   1.209  16.290  13.055  0.2377  0.0297 -0.2843
28430W        W45277   2.584  16.129  14.348 -0.1482  0.2250 -0.1086
28431W        W45278  10.476  12.459   3.881  0.0444 -0.0106  0.1109
28432W        W45279  14.543  16.663   4.081 -0.2786 -0.1115 -0.3287
28433W        W45280  17.094  11.315  12.620 -0.3810 -0.1773  0.1390
28434W        W45281   2.314   0.561  15.704 -0.1784  0.0161 -0.2947
28435W        W45282  15.349  16.779  15.958 -0.0351  0.0510 -0.0384
28436W        W45283   7.419   6.366  15.681  0.0811 -0.3337  0.0537
28437W        W45284   5.578   8.359   0.530  0.0357 -0.2699 -0.0059
28438W        W45285  17.914   3.579  12.210  0.1268 -0.0187  0.0553
28439W        W45286   4.084   8.538   2.725 -0.0699  0.0342  0.2300
28440W        W45287   6.331  13.268   6.242 -0.0215 -0.1976 -0.1390
28441W        W45288   7.370   3.471   4.927  0.0728  0.2282 -0.3134
28442W        W45289  13.855   7.615  15.161 -0.1383  0.0103 -0.2325
28443W        W45290   4.591   1.201  12.649 -0.1649  0.0806 -0.0605
28444W        W45291  17.673   0.793   1.303 -0.0331  0.0451  0.3483
28445W        W45292   6.068   6.243  13.241 -0.1383 -0.0362  0.2459
28446W        W45293   4.540  15.704  14.203 -0.2232  0.2605 -0.0393
28447W        W45294   6.539  12.667  14.504  0.0175  0.1285  0.4697
28448W        W45295  11.703  17.680   4.622 -0.1243  0.0115 -0.1957
28449W        W45296   0.364   5.191   5.977 -0.0720 -0.0260  0.1185
28450W        W45297  15.408  11.677  12.107 -0.1254  0.0306 -0.3268
28451W        W45298   4.274  12.272  15.520 -0.1519  0.0904 -0.2092
28452W        W45299  14.379  16.758  16.494  0.1001  0.1218 -0.0661
28453W        W45300  13.149  10.654  10.665  0.0458  0.0140  0.1675
28454W        W45301   6.606   9.532  12.747 -0.2131 -0.2954 -0.0372
28455W        W45302   4.242   0.896  16.360 -0.5017 -0.1461  0.4942
28456W        W45303   1.062  13.310   2.972  0.0862  0.3184  0.0876
28457W        W45304   1.449  16.990   1.810  0.1116 -0.1418 -0.1568
28458W        W45305  15.258   8.188  12.421  0.0687  0.0139 -0.2155
28459W        W45306  13.418  13.889   3.637 -0.2061 -0.1375  0.2345
28460W        W45307   5.298   0.597   2.585  0.1276 -0.0062 -0.0338
28461W        W45308  12.364  14.042  16.338 -0.1717 -0.2798  0.3233
28462W        W45309  10.458   8.707  15.327  0.1191  0.1356 -0.0717
28463W        W45310   2.360   6.241   5.538 -0.1077  0.3084 -0.0938
28464W        W45311   6.388   3.113  14.263  0.1472  0.3727  0.1239
28465W        W45312  16.730   5.776   2.145  0.3644 -0.2009  0.0644
28466W        W45313   0.643  12.238  11.695  0.1941 -0.0945 -0.0304
28467W        W45314  10.880  10.786  11.945  0.4066 -0.1157 -0.1728
28468W        W45315  10.430   0.060   4.366 -0.0193 -0.0076 -0.1064
28469W        W45316   7.811  15.611   3.183 -0.3197  0.0625 -0.0633
28470W        W45317  14.807   8.582   5.420 -0.0621 -0.1338  0.2010
28471W        W45318  10.331  16.768   0.724  0.2838 -0.3183 -0.0566
28472W        W45319  14.505   6.516  16.365 -0.0754  0.0575  0.0758
28473W        W45320   8.284   0.467   5.336 -0.2154  0.1809 -0.3677
28474W        W45321  17.956   6.158  15.795 -0.0067  0.0354 -0.0674
28475W        W45322   3.327  14.811  14.820  0.0263 -0.2083 -0.0150
28476W        W45323   1.514   3.852  12.164  0.3622 -0.0455  0.2787
28477W        W45324  13.408  17.096  12.388 -0.0339  0.0485  0.0269
28478W        W45325  11.986  12.908   4.021 -0.2841  0.2425  0.0992
28479W        W45326   9.827   8.266   3.180  0.0181  0.0537 -0.2041
28480W        W45327  13.067  15.330  12.422  0.2640 -0.1501  0.1564
28481W        W45328   7.927  17.882  16.541 -0.0571  0.0054  0.2006
28482W        W45329  10.646   6.745   4.813 -0.0316 -0.0723 -0.0661
28483W        W45330   9.250   1.474   4.585 -0.4377 -0.0204  0.1340
28484W        W45331  12.970   4.571  15.438  0.0536  0.0528 -0.0819
28485W        W45332  11.200  17.043  14.903  0.0657  0.1358  0.3039
28486W        W45333   6.406   7.055  14.574  0.0931 -0.3180  0.0313
28487W        W45334  11.248   5.142   4.757 -0.2373  0.2990  0.2899
28488W        W45335  15.378  10.599   0.342 -0.1684  0.5163 -0.0243
28489W        W45336  12.537  12.912  13.009 -0.1092  0.1467 -0.3364
28490W        W45337  17.556  13.538  15.509 -0.2957  0.1470  0.0269
28491W        W45338   5.011  14.366   0.741 -0.0177  0.1547  0.1568
28492W        W45339  16.729  12.085  16.384 -0.2189 -0.1474 -0.0969
28493W        W45340  10.900   9.580   3.303  0.0385  0.3907  0.3235
28494W        W45341   1.534  17.975   3.487  0.3800  0.1618 -0.0653
28495W        W45342   5.757  16.222  16.452  0.0541 -0.1785 -0.2509
28496W        W45343   3.575  13.696   0.216 -0.1047 -0.0279 -0.0402
28497W        W45344   2.342  16.808   2.980  0.0285  0.0266  0.1670
28498W        W45345   0.545   9.766  14.068 -0.0977  0.0893  0.0292
28499W        W45346   4.469  10.838   1.186  0.0013 -0.1772 -0.1963
28500W        W45347   3.946  17.918   4.329  0.0858 -0.0807 -0.1390
28501W        W45348   1.617  10.229   3.658  0.0770  0.0619  0.0409
28502W        W45349  16.945  17.599   2.074 -0.0115 -0.0634 -0.1322
28503W        W45350   5.883  15.947  13.585  0.0884 -0.1864  0.2866
28504W        W45351   2.921   3.448   4.759  0.0256 -0.1140 -0.1892
28505W        W45352   6.681   2.917   3.303  0.2886  0.0759  0.2051
28506W        W45353  14.496  14.202  15.147 -0.0624  0.1907 -0.1779
28507W        W45354  13.561  14.138  12.929 -0.0983  0.0186 -0.0917
28508W        W45355   6.113   7.136  12.623  0.2039 -0.3521 -0.1672
28509W        W45356  13.812  14.969   5.718 -0.2763  0.1368  0.2989
28510W        W45357   3.468   3.686   0.404 -0.1596 -0.0540 -0.0792
28511W        W45358   2.640  16.543   3.838  0.1888  0.0169 -0.0585
28512W        W45359   1.204  16.885   4.821  0.0213  0.0799 -0.2187
28513W        W45360   9.449   6.983  13.130  0.1401 -0.1356 -0.1165
28514W        W45361   6.099  10.747   6.267  0.1665 -0.2041 -0.1359
28515W        W45362  17.338   8.456   2.284  0.1349 -0.0629  0.0735
28516W        W45363   7.068  14.784  13.315 -0.0816  0.3442 -0.2577
28517W        W45364   7.125   6.275   2.299 -0.3395  0.2052  0.0665
28518W        W45365   5.727   2.651  15.923  0.1956  0.0880  0.2599
28519W        W45366   1.433  15.287   1.351  0.0498 -0.1800 -0.1744
28520W        W45367   9.655   5.370  16.430  0.1777 -0.2457 -0.0127
28521W        W45368   1.090  13.210   4.061  0.4308  0.0435  0.0299
28522W        W45369  16.588   7.977   4.373  0.1950 -0.1319 -0.0073
28523W        W45370  14.516  11.465  12.429  0.2018 -0.0416  0.1949
28524W        W45371  13.454  16.875   1.932 -0.0105  0.1312  0.0736
28525W        W45372   0.184  11.469   2.615 -0.5485  0.1738  0.1710
28526W        W45373  11.857  16.002  11.996 -0.0536  0.0968 -0.2083
28527W        W45374  17.123  10.895  16.248 -0.3368  0.4052  0.2444
28528W        W45375   5.393  10.239  15.107  0.1838 -0.0686 -0.3545
28529W        W45376   4.542   9.107   4.051  0.0936 -0.1779  0.1555
28530W        W45377  10.110   8.001  13.105  0.1589 -0.0122  0.3362
28531W        W45378  10.329   1.329  12.541  0.1801 -0.1959  0.1518
28532W        W45379  13.283  12.196   5.235 -0.0548 -0.0941  0.1225
28533W        W45380   6.116  10.776   4.232  0.1310  0.1192  0.2331
28534W        W45381   2.061   7.777  12.786 -0.0393  0.4462 -0.2558
28535W        W45382  15.458   1.796  11.802  0.0156  0.1032 -0.1164
28536W        W45383   6.736   1.603   4.846 -0.2311  0.0778  0.0907
28537W        W45384  13.516  14.399   4.877  0.1334 -0.3552 -0.3861
28538W        W45385   4.786   2.287   2.203 -0.3188 -0.3150 -0.0913
28539W        W45386  11.783  12.531  16.469 -0.1415  0.1448 -0.2158
28540W        W45387   7.690   2.151   4.959 -0.0810  0.0502 -0.1215
28541W        W45388   9.069   7.867  11.599  0.3361  0.0368  0.1372
28542W        W45389  11.084   5.251  14.507  0.0983 -0.1911 -0.2800
28543W        W45390  16.045   5.982   2.035 -0.0288  0.3599  0.3708
28544W        W45391   8.988   1.901  13.579  0.1188  0.0353  0.0022
28545W        W45392   4.388   5.696   4.253  0.1138  0.0229 -0.1181
28546W        W45393   0.996  11.260   4.106 -0.2012 -0.0123  0.3269
28547W        W45394   6.427  16.050   3.306 -0.1124 -0.0251 -0.1053
28548W        W45395  14.710   8.447   4.483  0.5226  0.1351  0.2397
28549W        W45396   5.682  12.697   4.746 -0.0720 -0.0854 -0.2369
28550W        W45397   2.732   5.103   3.122  0.2175  0.2514  0.4235
28551W        W45398   3.997  10.004   3.111 -0.1133 -0.0519 -0.1667
28552W        W45399   6.053   3.104  14.833  0.2258  0.2747 -0.1573
28553W        W45400   0.964   7.075   0.601 -0.1028  0.4523  0.0627
28554W        W45401   2.087  16.709   1.293  0.2167  0.0403 -0.0203
28555W        W45402  12.438   6.848  12.212 -0.1563  0.0026 -0.0871
28556W        W45403   0.029  14.864   4.403  0.0154 -0.0571  0.1358
28557W        W45404   8.089  17.922   3.565 -0.0745 -0.2506 -0.0531
28558W        W45405   6.020   5.377   0.006 -0.0632 -0.3513  0.0470
28559W        W45406  10.030  10.479  13.514 -0.2208 -0.1281  0.1478
28560W        W45407   2.953   3.157   4.010  0.0885  0.1959 -0.0947
28561W        W45408  15.175  12.723  10.514 -0.0424 -0.0042 -0.3248
28562W        W45409   9.226   2.438  16.294  0.2799  0.0601 -0.1206
28563W        W45410   2.597  17.258  14.090 -0.3509  0.0547  0.1689
28564W        W45411  12.806  11.536   1.680  0.1679 -0.0853  0.1079
28565W        W45412   9.497   1.914  13.273 -0.1305  0.0809  0.0603
28566W        W45413  12.475  16.574  15.561  0.1330  0.0337 -0.0504
28567W        W45414  13.206  13.850   2.690  0.0013  0.2223 -0.1504
28568W        W45415   5.581   1.835   0.235 -0.1074  0.3685 -0.1229
28569W        W45416   9.209  16.961   4.153 -0.2137 -0.1402 -0.1383
28570W        W45417   4.471  12.764  15.885 -0.0096 -0.0893  0.0999
28571W        W45418   3.065  12.448   3.668  0.0831  0.0196  0.1412
28572W        W45419   7.166  14.559  14.548 -0.0717 -0.0619 -0.0402
28573W        W45420   5.000   6.410   4.002 -0.1115  0.0828  0.2356
28574W        W45421   3.394   0.798   4.548  0.0562  0.1730  0.0906
28575W        W45422   9.293   2.125  11.559 -0.4336 -0.1191  0.1211
28576W        W45423   9.882   0.602   1.419  0.0744  0.0595  0.1338
28577W        W45424   5.015  12.956  13.642  0.4607  0.0868 -0.0688
28578W        W45425   0.793  13.360  15.376  0.2169  0.1077  0.0157
28579W        W45426   3.747   5.791  13.673 -0.0414  0.0890 -0.2557
28580W        W45427  17.348   6.685   4.669  0.2931  0.1592  0.1199
28581W        W45428  15.820   8.201  16.447  0.1615 -0.3581  0.1565
28582W        W45429  10.007   5.120  14.194  0.2991  0.1019  0.2505
28583W        W45430   7.213   5.039  15.398 -0.0794 -0.0482  0.2096
28584W        W45431   2.366   0.436   2.541 -0.2224  0.2020 -0.0215
28585W        W45432  10.958   7.783   0.166 -0.1465 -0.0177  0.0805
28586W        W45433   2.448   7.855   4.618 -0.0176 -0.3372  0.1221
28587W        W45434   2.174  14.433   5.697 -0.2038 -0.0215  0.0191
28588W        W45435  16.826  11.673   1.152  0.0250 -0.0403 -0.2924
28589W        W45436  13.793  15.080   4.203  0.1601  0.1401 -0.1130
28590W        W45437  15.343  14.682  13.465 -0.3408 -0.0797 -0.0701
28591W        W45438  11.679   3.812   0.950 -0.1397  0.3738 -0.2188
28592W        W45439   7.773  11.747   4.224 -0.1519  0.0287  0.1468
28593W        W45440   5.302  17.045  13.913 -0.0099  0.2188 -0.1041
28594W        W45441  14.731   8.170  12.711  0.1491  0.1856 -0.1851
28595W        W45442  11.283  11.714   1.651  0.0815  0.0515  0.2208
28596W        W45443  13.453  15.738   3.029  0.0706 -0.3152 -0.2817
28597W        W45444   0.437   7.900  11.894  0.3983 -0.0424  0.0400
28598W        W45445  15.726   9.327  14.318  0.5099 -0.0786  0.3193
28599W        W45446  13.252  16.092  15.666 -0.0664 -0.4199  0.1635
28600W        W45447   4.744  15.681   0.475 -0.0252  0.3351  0.0679
28601W        W45448   0.287  12.674  15.837 -0.1845  0.1828  0.0014
28602W        W45449   7.048  12.661  16.457  0.0933  0.0957 -0.0199
28603W        W45450   0.559   2.865   2.881 -0.2550  0.1646  0.3042
28604W        W45451  11.459  14.947   3.260  0.3961  0.2421  0.1271
28605W        W45452  14.728   4.329   5.331 -0.0083  0.1901 -0.0684
28606W        W45453   8.032   4.058   1.716 -0.0181  0.1093 -0.2192
28607W        W45454  15.107   8.688   1.627  0.1922  0.1675  0.0977
28608W        W45455   5.275  13.993  12.749 -0.1014  0.0266 -0.1382
28609W        W45456  17.944   0.284   4.798 -0.0306 -0.0123  0.0996
28610W        W45457   8.894  11.330  12.213 -0.3499  0.2371 -0.1308
28611W        W45458  17.944   4.105  12.313  0.0234  0.3501 -0.1773
28612W        W45459  16.902  12.787  15.834 -0.0291  0.1288 -0.1636
28613W        W45460  11.958   9.637   5.344 -0.2508 -0.0394 -0.3769
28614W        W45461   7.378   7.936  16.573 -0.3664 -0.0984  0.1224
28615W        W45462  10.393  17.675  12.785 -0.2278  0.1417  0.0490
28616W        W45463   2.327   2.963   4.589 -0.3808  0.1589  0.1315
28617W        W45464   8.916   1.576  14.387 -0.0915 -0.1744  0.0645
28618W        W45465  12.368   6.747  11.156  0.3669  0.1250 -0.0884
28619W        W45466  11.543  11.031  13.846  0.1266  0.0635  0.1385
28620W        W45467   0.445  13.583   5.155  0.0573  0.4423 -0.2091
28621W        W45468   2.618  15.420  16.208  0.0541 -0.2998  0.1814
28622W        W45469   6.228  12.287   0.342 -0.1004 -0.2131  0.1491
28623W        W45470   2.080   8.197  13.834  0.0946  0.0148  0.3979
28624W        W45471  11.526   2.949   2.729  0.3083  0.0720 -0.1468
28625W        W45472  16.674   3.026  14.244 -0.1180 -0.0541  0.3698
28626W        W45473  13.571  16.005   1.264  0.1341 -0.0767 -0.2856
28627W        W45474  10.858   1.235   5.261 -0.0107  0.1011  0.2822
28628W        W45475  15.374  16.958   2.430  0.2928 -0.1225 -0.0332
28629W        W45476  13.483  16.164  13.440 -0.1230 -0.1467 -0.1268
28630W        W45477  12.650   9.286  16.556 -0.1093 -0.0643 -0.2223
28631W        W45478   4.311   0.456   3.069  0.2726  0.0635 -0.0526
28632W        W45479   2.047   8.593  14.213  0.0994 -0.1329  0.1774
28633W        W45480  17.738  16.135   2.665  0.4500 -0.3883  0.1933
28634W        W45481  13.702  17.479   0.402 -0.1900  0.0642  0.0427
28635W        W45482   5.571   7.696   3.127 -0.4221  0.0225  0.2464
28636W        W45483  14.381   2.992   0.480 -0.1245 -0.0578  0.0081
28637W        W45484  13.743   9.737  12.378 -0.1174  0.0501  0.0269
28638W        W45485  18.096  12.634   4.446 -0.1150 -0.1527 -0.0468
28639W        W45486   9.746  13.420   4.668 -0.0772  0.0559 -0.0994
28640W        W45487   6.509   0.366  14.893 -0.4259 -0.1042  0.1570
28641W        W45488   9.255   1.968   2.519  0.2983  0.1205 -0.0278
28642W        W45489  17.815  15.613   4.869  0.4039 -0.1259  0.2938
28643W        W45490   6.402  15.806   6.120 -0.5214 -0.1568 -0.1583
28644W        W45491   1.697  15.412  13.025 -0.2812  0.0134  0.3079
28645W        W45492  15.080   4.458  14.196 -0.1164  0.0609 -0.1509
28646W        W45493   7.856   0.838   0.020  0.0724  0.2133  0.0644
28647W        W45494   1.320  17.403   4.175 -0.0161 -0.2103  0.1362
28648W        W45495   4.798  12.269  14.729 -0.0906 -0.0984 -0.2524
28649W        W45496  12.097  13.520  13.227 -0.3152  0.0309 -0.1619
28650W        W45497  10.988   4.237  11.598  0.0572 -0.1124  0.0142
28651W        W45498   9.661   3.195  13.451 -0.0462  0.0911 -0.1215
28652W        W45499   9.887   0.212  15.627 -0.2384  0.1305  0.1712
28653W        W45500  13.333  15.160  11.973 -0.0186 -0.3243  0.1746
28654W        W45501   0.362  17.298  15.067 -0.0535 -0.1809  0.0268
28655W        W45502   6.683   9.518  11.831  0.0380 -0.0471  0.1798
28656W        W45503   0.818   3.649   4.293  0.0210  0.1818  0.1484
28657W        W45504   4.857   3.162   2.122  0.0088  0.0153  0.1234
28658W        W45505   9.361  12.007  12.278 -0.3019  0.1342  0.0331
28659W        W45506   8.810  10.011  12.818  0.1458  0.2349 -0.1305
28660W        W45507  15.653   9.452   4.948 -0.1737 -0.0511 -0.0873
28661W        W45508  18.100  16.921   1.626  0.1001 -0.2126 -0.2183
28662W        W45509  13.002  11.678  11.478  0.1104 -0.1892  0.2351
28663W        W45510   1.984  15.861   2.551  0.5027 -0.2144 -0.3354
28664W        W45511   5.869  15.004  15.895 -0.1553  0.0746  0.2781
28665W        W45512  17.281  10.148  13.382  0.1238  0.2487 -0.0262
28666W        W45513   1.370   4.232   0.335 -0.1897  0.1720  0.0556
28667W        W45514   6.599  11.826   1.798 -0.0330  0.0162 -0.1747
28668W        W45515  16.724   7.191   4.161 -0.1032  0.2951  0.1451
28669W        W45516   0.945  10.334  15.880  0.0423  0.1342 -0.4154
28670W        W45517   4.632  10.108  13.403  0.1530  0.0284 -0.0421
28671W        W45518  16.504  11.260   1.229  0.1709  0.2010 -0.0950
28672W        W45519  11.114  11.590   3.875 -0.1053  0.0834  0.0107
28673W        W45520   0.971   1.742  15.364  0.0952 -0.0911 -0.1966
28674W        W45521  10.384  12.639   4.689 -0.0053  0.1243 -0.1705
28675W        W45522   5.373  15.929  14.775  0.0321  0.1159  0.0635
28676W        W45523   4.587   1.070  11.725  0.0419  0.0935  0.0183
28677W        W45524   8.558  12.141  12.753  0.0229  0.0790 -0.1711
28678W        W45525   2.012  13.402   1.911 -0.0237  0.1034 -0.0823
28679W        W45526   5.172   2.623   5.462  0.4791 -0.0671  0.1489
28680W        W45527  12.307   2.037  14.980 -0.1438  0.1836  0.1113
28681W        W45528  10.287  15.000  14.447  0.2434  0.2339 -0.0135
28682W        W45529   0.612   0.832   3.272  0.1052 -0.0237  0.1176
28683W        W45530   3.652  11.131   2.388  0.4296  0.1825 -0.1350
28684W        W45531   7.267  11.541  12.359 -0.0427 -0.3460 -0.1901
28685W        W45532   0.214   2.236  13.383  0.0004 -0.5033  0.2468
28686W        W45533   7.367   1.300  12.177 -0.2175  0.0414 -0.0302
28687W        W45534   2.038   5.470  12.656 -0.2156  0.0943  0.1445
28688W        W45535   7.918   5.076  13.785 -0.0594  0.0912  0.1783
28689W        W45536  17.393  17.454   2.507 -0.3680 -0.1382  0.0194
28690W        W45537   1.751   5.092  12.791 -0.1056 -0.1039  0.0766
28691W        W45538   6.727   2.909   0.131  0.0071 -0.2188  0.1387
28692W        W45539   6.537  11.567   3.228 -0.2146 -0.0336  0.1267
28693W        W45540   1.222   8.678  16.602 -0.3107 -0.1096  0.1328
28694W        W45541  17.577   1.893  12.237  0.2033  0.4043  0.0236
28695W        W45542  11.442   4.503  16.032 -0.2864  0.3014 -0.0569
28696W        W45543   7.601   6.970   1.439 -0.0782  0.4107 -0.0700
28697W        W45544   3.733   4.472  15.579 -0.2249 -0.1881  0.1350
28698W        W45545  16.432   3.311   5.726  0.0046 -0.1500 -0.0185
28699W        W45546  11.791  15.357   0.175  0.1370  0.0854 -0.0125
28700W        W45547  12.240   2.128   3.819  0.0078  0.0944  0.1181
28701W        W45548  11.203  14.139  11.729  0.0731  0.1756 -0.0447
28702W        W45549   1.084   4.192  14.858 -0.0428  0.0254 -0.1840
28703W        W45550   7.162  12.573  11.839 -0.0119 -0.1106 -0.1844
28704W        W45551   8.796   2.663   2.581 -0.0372 -0.0372  0.3387
28705W        W45552  10.574  10.739   2.444 -0.0440 -0.1020 -0.0905
28706W        W45553  18.081  16.212  12.828 -0.0456  0.0255  0.0248
28707W        W45554   0.362   6.357  11.674  0.0605  0.2141 -0.2137
28708W        W45555  14.685   4.392  14.447  0.0771 -0.0504  0.2104
28709W        W45556   3.563   9.060   6.194 -0.0790  0.0058 -0.1460
28710W        W45557  10.378  10.040  12.153  0.2036  0.0809  0.0194
28711W        W45558  17.072  11.823   3.130 -0.0369 -0.0889 -0.0182
28712W        W45559  18.080   4.573   0.204 -0.3790  0.0218 -0.1693
28713W        W45560   0.685   3.803  15.534 -0.1536 -0.1652 -0.2161
28714W        W45561  14.304   6.182  13.412  0.0013 -0.3101  0.4801
28715W        W45562  17.756   2.824  11.081 -0.2394  0.1580 -0.4121
28716W        W45563   0.290   9.951   6.013  0.0571 -0.1591  0.2086
28717W        W45564  16.005  11.457   4.250  0.0997  0.1767  0.1441
28718W        W45565   2.774   6.736   2.115 -0.3217  0.0512 -0.0418
28719W        W45566  16.252   3.085   2.949 -0.3071 -0.3512  0.5253
28720W        W45567   7.780   9.919  15.738  0.1221  0.0539  0.1368
28721W        W45568   6.614  13.932  14.993  0.1576 -0.3022  0.1657
28722W        W45569  14.585  14.113   1.508  0.2543 -0.0327 -0.0990
28723W        W45570   4.569   3.946  13.490 -0.2092 -0.1366 -0.0279
28724W        W45571   6.215  15.056   5.518 -0.0449 -0.1389 -0.0970
28725W        W45572   0.082   9.307   3.488 -0.0939 -0.0366  0.0455
28726W        W45573   1.652  16.596   1.600 -0.0196 -0.0922 -0.0952
28727W        W45574  11.366   8.649  14.493 -0.1975  0.2041  0.0346
28728W        W45575   3.884   1.549  12.127 -0.2054 -0.0356  0.0545
28729W        W45576   3.357  13.187  12.447 -0.1102  0.0333  0.1632
28730W        W45577   2.275  11.786  14.361  0.1876 -0.3104  0.1832
28731W        W45578   6.060   4.834  13.351 -0.0586  0.0681  0.0852
28732W        W45579   5.604   4.854   1.271  0.1864  0.0207  0.0057
28733W        W45580  12.271  14.438   0.067 -0.0207 -0.1642 -0.0939
28734W        W45581  10.432  14.045  12.228 -0.1069  0.1155 -0.2617
28735W        W45582  15.157  17.366   0.841  0.3630 -0.0518  0.0956
28736W        W45583  12.893   3.828  15.741 -0.0292  0.0690 -0.1963
28737W        W45584  18.065   5.609  14.454  0.1316  0.0669  0.0376
28738W        W45585  10.573   6.493  12.089 -0.1145 -0.0266  0.1796
28739W        W45586  12.151  13.856   5.481 -0.0525  0.0917 -0.1209
28740W        W45587   1.925   4.837   1.135 -0.2430  0.0678  0.0996
28741W        W45588   0.754   3.181   0.305  0.0600 -0.1015 -0.1192
28742W        W45589   1.882   2.963  15.809 -0.1733 -0.3527  0.1312
28743W        W45590  15.436  17.806   3.888 -0.2245 -0.0873 -0.2987
28744W        W45591  14.730  17.456  14.981  0.1517 -0.2273 -0.0196
28745W        W45592  12.274  10.199   1.098 -0.1861 -0.0172 -0.0508
28746W        W45593  14.332   0.583  14.897  0.0525 -0.1358  0.0010
28747W        W45594  13.964  15.104  15.461  0.0720 -0.2584 -0.1542
28748W        W45595   2.753  17.174  11.765 -0.1309 -0.2540 -0.0588
28749W        W45596  14.736  11.262   0.500  0.0394 -0.0576  0.1146
28750W        W45597  10.182  11.701  16.047 -0.3620 -0.0003  0.1393
28751W        W45598  17.268  13.917   1.012 -0.1449  0.2835  0.3779
28752W        W45599   9.546  13.052   1.215 -0.1391  0.1755  0.2810
28753W        W45600  12.310  10.897  14.988  0.0423 -0.2035  0.0784
28754W        W45601   2.138   2.407   5.069 -0.1199 -0.1073 -0.3116
28755W        W45602   1.996   5.720   4.768 -0.0847  0.2558 -0.1490
28756W        W45603   2.702  10.385  15.479 -0.1236  0.0855  0.2444
28757W        W45604   7.908  13.770  12.359  0.1018  0.1389  0.4759
28758W        W45605  11.714   9.992   1.168  0.1044 -0.0793 -0.1950
28759W        W45606  17.780   2.775  14.997  0.0725  0.0991  0.0316
28760W        W45607  10.993   9.111   1.019  0.1235 -0.1979 -0.0285
28761W        W45608  12.225   8.067   0.239 -0.2355  0.0878 -0.0969
28762W        W45609  16.289  14.890   0.932  0.2366  0.1120  0.0319
28763W        W45610   5.716  18.138  15.600 -0.0451  0.1761  0.3292
28764W        W45611  13.797  13.608   3.059  0.0599 -0.2694  0.1280
28765W        W45612   8.368   0.020  16.343 -0.0554  0.1143  0.0153
28766W        W45613   1.310   1.292  14.073  0.0318  0.0547  0.2736
28767W        W45614   1.711   0.423  12.297 -0.3804  0.1539  0.0290
28768W        W45615  13.837   1.041  12.239 -0.2491 -0.1827 -0.0226
28769W        W45616   0.812  13.982  15.581  0.2455 -0.1690 -0.3977
28770W        W45617   4.263   6.721  12.626  0.0114 -0.0927  0.0128
28771W        W45618  13.354   8.723  13.248 -0.0216  0.2095 -0.0927
28772W        W45619   9.713  17.162   0.041 -0.1722  0.1741 -0.1673
28773W        W45620  13.631   5.642  11.026  0.0657  0.0376  0.1835
28774W        W45621  15.253   4.772  15.395  0.1648  0.1461  0.4983
28775W        W45622  17.105  11.343  15.980 -0.0117  0.1708 -0.1427
28776W        W45623  14.177   1.973   0.863  0.1142 -0.2371 -0.3406
28777W        W45624   1.731   5.282  11.863 -0.3268 -0.1134  0.2782
28778W        W45625   4.790  10.371   1.045  0.1766  0.1361 -0.0388
28779W        W45626  14.372   2.644  13.684  0.1587 -0.1833  0.0330
28780W        W45627  13.943  14.677   4.626 -0.1090 -0.2338 -0.1209
28781W        W45628  17.692   0.323  13.651  0.0895 -0.0038 -0.1050
28782W        W45629   3.645  11.688   5.321  0.1246  0.2007  0.0689
28783W        W45630  16.508  12.572   2.106 -0.0295 -0.3118 -0.1623
28784W        W45631   8.660  17.050  13.920  0.1631  0.0088 -0.1324
28785W        W45632   5.082   8.638   2.433  0.0379  0.2853 -0.1461
28786W        W45633  16.760  17.793  13.577  0.2189  0.2621 -0.1942
28787W        W45634  16.455  11.129   0.692 -0.0995  0.1375 -0.0067
28788W        W45635   1.251  11.919   0.563  0.3549 -0.2203  0.0791
28789W        W45636   8.856  14.107  13.367  0.0514 -0.0695 -0.1167
28790W        W45637  13.907  10.265   2.813 -0.4424 -0.1108  0.1788
28791W        W45638   4.781   3.488   5.499 -0.0185 -0.1333 -0.0265
28792W        W45639  13.876  16.434   0.140  0.0564  0.0072  0.1660
28793W        W45640  13.211   8.185   0.388  0.1230  0.0132 -0.0454
28794W        W45641   8.680   2.336   1.787  0.0464  0.1033  0.0601
28795W        W45642  14.539   3.038   3.952 -0.0760 -0.2809  0.1579
28796W        W45643  11.347   6.620  13.096 -0.2194  0.0207 -0.0343
28797W        W45644   6.650   9.830   1.855  0.1769 -0.1186 -0.1820
28798W        W45645   7.706  15.057  15.155 -0.1477  0.2808  0.0508
28799W        W45646   1.146   9.491  12.431  0.0250  0.0943  0.1067
28800W        W45647  13.744   6.624   3.540 -0.1234  0.1631 -0.3038
28801W        W45648   4.815   4.444  13.139 -0.0212 -0.1361  0.1829
28802W        W45649   1.484  18.102   4.003  0.0639 -0.0076  0.0557
28803W        W45650  16.567  15.615  15.037 -0.1347 -0.3748  0.0732
28804W        W45651  15.975   8.942   0.885  0.0768  0.1276 -0.0080
28805W        W45652   1.323  11.252   3.682  0.0968  0.1036 -0.2746
28806W        W45653   1.408  17.202   2.639 -0.2242  0.1688 -0.0432
28807W        W45654   8.475   0.708   3.558 -0.0884  0.2249  0.1668
28808W        W45655   3.047  16.213  14.500  0.4076 -0.0606 -0.0348
28809W        W45656   5.873   3.584   5.058  0.2235  0.0136  0.1667
28810W        W45657   9.132   4.797   2.324  0.2042 -0.1851 -0.0445
28811W        W45658  13.306  10.155   2.578 -0.0740  0.3590  0.2272
28812W        W45659   9.336   9.504  15.414  0.0231  0.3759 -0.0928
28813W        W45660  12.513   8.285   1.574  0.1267  0.3302  0.3273
28814W        W45661  11.444   9.943  15.308 -0.0912  0.0541  0.2400
28815W        W45662  12.641  13.370  14.871  0.1896  0.1220  0.0968
28816W        W45663  12.191  18.026   6.142  0.2325 -0.0337  0.4272
28817W        W45664  11.169  13.008  12.267 -0.1149  0.1230 -0.0326
28818W        W45665   8.623  17.857   5.742  0.2988 -0.0112 -0.1454
28819W        W45666   2.027   3.298   0.409 -0.3602 -0.0783  0.2313
28820W        W45667  12.114  17.768   3.435 -0.0180 -0.2654  0.0792
28821W        W45668   3.235   3.570  11.741  0.1008 -0.2147 -0.1197
28822W        W45669  16.896  17.228   2.667 -0.2942  0.1441 -0.1452
28823W        W45670  17.296   0.494  14.349  0.1497 -0.2003  0.1019
28824W        W45671   0.694  17.074   4.677  0.0043 -0.0877  0.0875
28825W        W45672  15.014   6.142   0.944 -0.0321  0.0011 -0.0540
28826W        W45673  11.946  10.390   4.987 -0.0711  0.1790 -0.0991
28827W        W45674   5.971   0.083  11.950  0.4408  0.0189 -0.0882
28828W        W45675  16.232   7.645  15.368 -0.0939 -0.2244  0.1728
28829W        W45676  18.091   8.930  13.743  0.1761 -0.1157 -0.0735
28830W        W45677   0.051   7.506  15.971 -0.0553  0.0777  0.4690
28831W        W45678  10.358  15.642   2.885 -0.0087 -0.1034 -0.1400
28832W        W45679   6.476  11.105   3.343 -0.2025  0.1451  0.0905
28833W        W45680   6.345   1.328   3.371  0.1328 -0.1144  0.5387
28834W        W45681   6.640   2.711   1.314  0.2135 -0.4278 -0.2231
28835W        W45682  10.845  13.123  12.886 -0.0315  0.0398 -0.4691
28836W        W45683  14.139   1.468   5.589 -0.1686  0.4192 -0.0729
28837W        W45684   9.429   2.210   0.754 -0.1118 -0.3863  0.0196
28838W        W45685   9.041  16.583  14.070  0.1456 -0.2983 -0.1153
28839W        W45686   6.044  14.037  12.106 -0.0742 -0.0511  0.1589
28840W        W45687   8.806   8.357  11.005  0.0084  0.1888  0.2040
28841W        W45688   5.150  14.675   1.232  0.0116  0.0024 -0.0137
28842W        W45689  13.973  12.195  12.645  0.0211  0.0894  0.3101
28843W        W45690  10.462  13.847   1.779  0.0491  0.2453 -0.2407
28844W        W45691   2.834   0.710  13.678 -0.1842 -0.1176 -0.1780
28845W        W45692  10.629  13.986   1.316 -0.1998 -0.4110  0.2012
28846W        W45693   8.078   1.681   4.145 -0.0107 -0.1979 -0.2564
28847W        W45694   6.716   8.137   4.507  0.2000 -0.0505 -0.0553
28848W        W45695  13.791   0.358  12.595  0.1516 -0.2273 -0.0317
28849W        W45696  11.163  16.524  15.203  0.2097  0.2876 -0.1030
28850W        W45697  16.383   4.280  16.606  0.2279 -0.1820  0.1257
28851W        W45698   9.116   9.761  14.604  0.1944  0.3749 -0.1914
28852W        W45699  10.446  17.620   2.361  0.0039  0.0825  0.0943
28853W        W45700   7.843  16.742  14.421 -0.1643  0.2748  0.0162
28854W        W45701   9.953   5.349  11.686  0.1326 -0.2656 -0.0927
28855W        W45702  12.686  11.126   3.340 -0.0630  0.4368  0.0046
28856W        W45703   7.513   0.093  13.758 -0.0924 -0.1747 -0.0765
28857W        W45704   5.069   3.848   5.065  0.0651  0.1700 -0.4074
28858W        W45705  17.943  15.425  15.533  0.0028  0.0473 -0.0290
28859W        W45706   5.983  14.461   4.722  0.2042  0.2975 -0.0740
28860W        W45707  16.959  13.156   2.586  0.0713  0.0430  0.0605
28861W        W45708  14.421  16.108   3.040  0.2703  0.1460  0.0996
28862W        W45709  11.958  10.964  15.839  0.0233 -0.4008  0.1593
28863W        W45710   4.989   1.450  14.568  0.3341  0.0196  0.0579
28864W        W45711   8.142  14.500  13.931 -0.1776  0.5862  0.0989
28865W        W45712   8.647  12.419   5.167 -0.0306  0.1027 -0.2972
28866W        W45713  18.004   3.200  12.542 -0.2202 -0.2027  0.3152
28867W        W45714   1.938   2.412   3.200  0.0695 -0.1719  0.3464
28868W        W45715  15.647  16.557   2.332  0.3107 -0.1167 -0.3146
28869W        W45716   9.356   2.133  12.552 -0.1265 -0.1440  0.3247
28870W        W45717   0.755   3.063  15.585  0.2127 -0.2054 -0.3961
28871W        W45718  13.572   4.083  13.112  0.2242  0.3640  0.0296
28872W        W45719   4.086  17.758   2.002  0.0151 -0.2923 -0.1081
28873W        W45720  11.516  16.454   4.535 -0.2176 -0.0971 -0.0115
28874W        W45721   0.133  15.709   4.943 -0.0168 -0.1825  0.0032
28875W        W45722   9.737   8.465   0.722  0.0183 -0.2386  0.2435
28876W        W45723  14.809   1.197   1.855  0.1847  0.1092  0.2030
28877W        W45724   4.430  14.825  16.206  0.1147  0.2997 -0.0704
28878W        W45725  10.381  13.317  11.676  0.1221 -0.4496 -0.2927
28879W        W45726  10.869   1.089   1.624 -0.1520  0.2854  0.0996
28880W        W45727   0.852   5.460   1.405  0.0281 -0.3315 -0.1187
28881W        W45728   9.774   4.844  15.572  0.4891  0.0186  0.1249
28882W        W45729   5.809   8.474   3.513  0.2673  0.0546  0.4312
28883W        W45730  15.793  16.390  15.443 -0.0206 -0.2072  0.0417
28884W        W45731   4.393  17.590  16.292  0.3331  0.0006  0.2261
28885W        W45732  12.180   8.512  12.227 -0.1716 -0.4291  0.1810
28886W        W45733  17.386  12.546   0.853  0.0619  0.3694 -0.1773
28887W        W45734   0.861  11.442  15.427 -0.0091 -0.1766 -0.2186
28888W        W45735   0.420  11.626  15.152 -0.1883 -0.4161  0.0570
28889W        W45736   3.838   5.239  12.871 -0.2853 -0.2902 -0.1474
28890W        W45737   5.048  10.889   4.343 -0.1308  0.0168 -0.0671
28891W        W45738   9.578  12.933  15.726  0.2714 -0.0368 -0.0757
28892W        W45739   9.070  15.159  14.154  0.0463  0.2606 -0.0073
28893W        W45740   2.718   6.473   3.560 -0.1398  0.0282 -0.1789
28894W        W45741  15.976   3.809   1.794 -0.1062  0.0498  0.0192
28895W        W45742   4.939   9.406   4.028  0.2732 -0.0322 -0.1148
28896W        W45743  16.268   8.619  12.455 -0.0969 -0.0460 -0.0309
28897W        W45744   3.610   5.956  12.763  0.3049  0.0336  0.0817
28898W        W45745  12.013  12.548   1.887  0.2810  0.1987  0.0155
28899W        W45746   1.761  13.337  11.828  0.2483 -0.1375  0.0313
28900W        W45747  16.437  17.072  11.970  0.0803  0.0530 -0.0288
28901W        W45748  12.407   5.187   3.360  0.1215 -0.0330  0.4102
28902W        W45749  10.024   8.523   0.118  0.1466  0.1971  0.1905
28903W        W45750   3.076  11.562  12.967  0.0913  0.1092 -0.1108
28904W        W45751  13.515   8.079   4.897 -0.3508  0.2338 -0.0502
28905W        W45752   6.464   0.421  14.344 -0.0193  0.0808  0.1113
28906W        W45753   2.601   8.804  15.461 -0.0093  0.0929 -0.1504
28907W        W45754  11.494  12.946  13.758 -0.1064  0.2378  0.1148
28908W        W45755   9.390  14.286  15.632 -0.1922  0.0554  0.1017
28909W        W45756  18.089  17.542   3.755 -0.0713  0.1222 -0.1262
28910W        W45757   7.797  14.908   5.395 -0.0524  0.1661  0.2412
28911W        W45758   8.087  17.642   0.935 -0.3407 -0.0877 -0.1731
28912W        W45759  17.376  16.381   1.600  0.1754 -0.1623  0.5736
28913W        W45760  10.163   3.889   0.075 -0.2047 -0.1125  0.1085
28914W        W45761   6.445   1.676   2.740 -0.0022  0.2117 -0.0225
28915W        W45762   4.927   4.459  11.554  0.1137 -0.1536 -0.1666
28916W        W45763   7.556  17.107   0.941 -0.0701 -0.2428  0.0576
28917W        W45764  15.380  12.859   3.228  0.2746 -0.0193  0.0326
28918W        W45765   9.294  11.591  11.643  0.1055  0.1396 -0.0001
28919W        W45766  17.666  17.984   6.055 -0.0661  0.0342  0.0999
28920W        W45767  14.399  17.198   2.787 -0.0443 -0.0631  0.0125
28921W        W45768   1.743  14.714   5.820  0.2838 -0.3495 -0.1434
28922W        W45769  17.272   6.297  14.142  0.0064  0.1943  0.1101
28923W        W45770   6.227  13.248   5.679 -0.2497 -0.0132 -0.2022
28924W        W45771   3.034   5.069  13.706 -0.0238  0.0148  0.3115
28925W        W45772   7.275   7.369   2.245  0.4655  0.2312  0.0838
28926W        W45773  13.692  11.625   5.744 -0.0800  0.0811  0.0385
28927W        W45774  10.855  13.275  15.890 -0.0959 -0.1599 -0.2687
28928W        W45775  16.974   1.219   0.430 -0.1383  0.1420 -0.1639
28929W        W45776   5.628  17.216  14.400 -0.0518  0.0675 -0.0719
28930W        W45777  13.481  12.651  12.049 -0.0466  0.0484 -0.0164
28931W        W45778   3.769   8.452  11.611  0.0041 -0.0946 -0.0139
28932W        W45779   1.847   7.562  11.625 -0.1401 -0.4177  0.1086
28933W        W45780  14.141   0.132  14.971 -0.3735 -0.0201  0.0028
28934W        W45781   9.853  11.795   0.749  0.0392 -0.1703  0.2019
28935W        W45782   7.237  14.607  13.873 -0.0869  0.0870  0.1865
28936W        W45783   2.755   9.313  14.177 -0.2525  0.1464 -0.3098
28937W        W45784  16.823   6.000  14.247  0.0997 -0.1851 -0.0747
28938W        W45785   7.765  17.768  12.694 -0.1490  0.4203  0.3409
28939W        W45786   7.676   1.105   1.360  0.0657  0.0924 -0.1804
28940W        W45787   1.920  13.752   2.778  0.2072 -0.0235  0.5924
28941W        W45788   1.971  11.808  14.834  0.0787  0.0846  0.2137
28942W        W45789  11.553  13.755  11.674 -0.0494  0.0313  0.1336
28943W        W45790   8.480  17.219   1.142 -0.0631 -0.2472  0.0752
28944W        W45791  13.870   9.626  14.321  0.2369  0.3007  0.0012
28945W        W45792  10.137   5.479   0.763 -0.0697 -0.1346 -0.0311
28946W        W45793   3.379  13.945   5.283  0.2971 -0.1618 -0.2409
28947W        W45794   3.160  16.648  14.124  0.0498 -0.1880  0.4291
28948W        W45795  13.514  17.061   6.058  0.0172  0.0748  0.0150
28949W        W45796   6.061   5.591  11.594 -0.3238 -0.0719  0.0272
28950W        W45797  17.087  17.778  14.788  0.1625 -0.0949 -0.2119
28951W        W45798   4.541   5.541  11.891 -0.2879  0.0152 -0.2020
28952W        W45799   3.650  14.746  14.159 -0.1239 -0.0881  0.0127
28953W        W45800   9.405   7.899   3.900  0.2034 -0.1143  0.0193
28954W        W45801  17.175  10.737  12.760  0.0359 -0.0082 -0.1350
28955W        W45802  12.880  11.737  15.900  0.0556 -0.0847  0.1730
28956W        W45803  16.230   6.668   1.000 -0.0941 -0.0309  0.2246
28957W        W45804  13.028   4.458   3.080 -0.1907  0.1095  0.4137
28958W        W45805   0.883  10.857  13.052 -0.4368  0.0207 -0.1179
28959W        W45806  14.114  16.842   2.492 -0.0764  0.1298 -0.0522
28960W        W45807   0.245   4.912  11.841 -0.1683 -0.0238 -0.0879
28961W        W45808  12.624   0.204   4.287 -0.0965  0.3851  0.0658
28962W        W45809  18.113  16.576   1.171  0.2053  0.1907  0.1134
28963W        W45810  16.837  14.598   4.674  0.0868 -0.2049  0.1054
28964W        W45811   1.474   1.336   3.180 -0.2590 -0.0236 -0.1897
28965W        W45812   8.527  12.908   5.451  0.2628  0.1567  0.0388
28966W        W45813  13.438   7.602  13.338  0.2172  0.2283  0.1507
28967W        W45814   7.512   2.238   0.295 -0.2306 -0.1577  0.2267
28968W        W45815  13.893  10.934  13.776 -0.3847  0.2254  0.1362
28969W        W45816   8.271  12.206   0.169  0.0644  0.0177  0.1177
28970W        W45817   2.659  13.615  15.553  0.1741 -0.1503 -0.0632
28971W        W45818   1.789  14.733  12.809  0.0871  0.0867 -0.1848
28972W        W45819  12.768   5.253  14.250  0.2643  0.0448  0.0814
28973W        W45820   6.937   6.004   1.887  0.2110  0.0752  0.1653
28974W        W45821  15.607   7.886   3.771 -0.4715 -0.1311 -0.1453
28975W        W45822  17.355   9.933  13.845 -0.1535  0.4451  0.0727
28976W        W45823  14.252  13.570   3.206 -0.1258  0.0873 -0.0790
28977W        W45824   1.844   0.440  11.204 -0.3488  0.1945 -0.3905
28978W        W45825  11.123   5.361   5.670 -0.0293  0.2284  0.0447
28979W        W45826   8.705   0.535   1.698 -0.0077 -0.2829  0.0079
28980W        W45827  10.997  12.697   5.513  0.0709  0.0962  0.1609
28981W        W45828   9.757   1.101   1.001  0.1148  0.1588  0.3416
28982W        W45829   0.041  12.450   2.914 -0.0358  0.0572  0.1856
28983W        W45830  17.603   2.159  16.468  0.0123  0.0799  0.0787
28984W        W45831  10.213  12.437   1.209  0.1108 -0.1563  0.1385
28985W        W45832  12.965   7.386  15.422 -0.2791 -0.1592  0.0308
28986W        W45833   7.552  11.095  12.105  0.2337 -0.2816  0.0568
28987W        W45834  12.942   7.007  16.356 -0.0391 -0.0802 -0.0084
28988W        W45835   6.206   0.124   1.070  0.0731  0.2289  0.4188
28989W        W45836  15.425   2.738  14.548  0.0367 -0.0060 -0.0348
28990W        W45837   7.063   6.692  11.554  0.0875 -0.1731 -0.0481
28991W        W45838  17.668   2.838  14.218  0.1143  0.1979  0.1413
28992W        W45839  12.046  17.510  15.181  0.0061  0.1085  0.2411
28993W        W45840   2.752  10.789  14.563 -0.0368  0.1870  0.3751
28994W        W45841  14.051   7.130   4.271 -0.1597  0.0636  0.0496
28995W        W45842  12.878   1.357   3.520 -0.1119  0.0664 -0.1782
28996W        W45843  10.142  17.184  15.327 -0.1041  0.0299  0.1661
28997W        W45844  12.855   8.320   1.969  0.1412 -0.2089 -0.1610
28998W        W45845   4.987  12.289  13.862 -0.2391 -0.0782  0.0115
28999W        W45846   5.263  17.092   4.831  0.1305  0.0193 -0.0260
29000W        W45847  12.108  11.794  15.364 -0.0276 -0.0086 -0.0102
29001W        W45848  11.396   3.980  11.875 -0.2246  0.0467  0.0116
29002W        W45849   7.201   8.384   0.256  0.4740 -0.0842 -0.1045
29003W        W45850   8.866   1.716   6.440  0.3616  0.1570 -0.0627
29004W        W45851  14.244  15.820  13.324  0.1831 -0.0675  0.2411
29005W        W45852  12.535  16.919  12.072 -0.0996  0.0347  0.0497
29006W        W45853   6.182  10.236   1.693 -0.3519  0.4653 -0.2561
29007W        W45854  15.567   6.363   4.699  0.1894  0.0001  0.0282
29008W        W45855   1.628  11.490   5.220  0.2241 -0.4588 -0.2792
29009W        W45856  11.320  14.647  15.795 -0.2523  0.6216  0.0595
29010W        W45857   7.840  13.393  15.906 -0.1663 -0.0424 -0.1184
29011W        W45858   9.180  10.971   3.535  0.1415 -0.0057  0.0503
29012W        W45859  16.524  18.172  13.806 -0.2102 -0.1405 -0.0816
29013W        W45860  12.675   4.499   4.110  0.0135 -0.0483 -0.0316
29014W        W45861  13.766  17.942   3.493  0.1737  0.2164  0.1963
29015W        W45862  14.616   8.993   1.535  0.2496 -0.2150  0.3239
29016W        W45863  14.578   9.943  11.780  0.2093 -0.1350 -0.1499
29017W        W45864  10.246  11.638  14.106  0.2480  0.1303  0.1387
29018W        W45865   1.105  12.696  13.698 -0.0961 -0.1586 -0.2209
29019W        W45866   0.665   1.314   4.218  0.1128  0.3779  0.1674
29020W        W45867  16.161   0.734   0.280 -0.1609  0.1215  0.1640
29021W        W45868   8.972  17.508   2.063  0.1073  0.3516 -0.1633
29022W        W45869  12.576  15.777   5.901 -0.0515 -0.1619 -0.0684
29023W        W45870  17.922  10.977   1.185 -0.0975 -0.1391  0.1705
29024W        W45871   8.844  13.419  16.476  0.4844 -0.2801 -0.0194
29025W        W45872  17.982  11.256  14.608  0.0650 -0.0251 -0.4081
29026W        W45873   0.363   1.594  16.071 -0.0746 -0.0834 -0.1211
29027W        W45874  10.610   2.241   0.757  0.0290 -0.5120  0.0844
29028W        W45875   0.283  16.028   2.962 -0.1207 -0.0026  0.0338
29029W        W45876   6.785  17.624   3.228  0.2738  0.0591  0.3066
29030W        W45877  10.800   2.618   3.802  0.1947  0.2973 -0.1653
29031W        W45878   0.645   7.814  15.053 -0.0142  0.2025 -0.0952
29032W        W45879  12.473   5.942  13.697 -0.1101  0.3045  0.0950
29033W        W45880   2.142   5.059   1.527 -0.2125  0.0984  0.1126
29034W        W45881  15.759  12.341  16.439 -0.1009 -0.1713 -0.0954
29035W        W45882   5.915   1.912  14.573  0.3553  0.0949  0.0489
29036W        W45883   7.743   7.274   4.417 -0.0836 -0.0238  0.0021
29037W        W45884  12.705  14.903  15.894  0.4942 -0.1785  0.1087
29038W        W45885   9.706  11.008   0.408  0.4887  0.0804  0.1884
29039W        W45886  17.893   0.118   4.325  0.2046 -0.0412 -0.1474
29040W        W45887   5.798   2.816  13.010 -0.2792  0.0839 -0.0895
29041W        W45888   6.440  11.149   6.178 -0.1174  0.0630  0.0179
29042W        W45889   8.818  12.952  14.538 -0.0225  0.0213  0.2951
29043W        W45890  12.090   4.363  12.305  0.0485 -0.0593 -0.2949
29044W        W45891  10.891  11.117   2.547 -0.0763 -0.2046 -0.0018
29045W        W45892   5.633   4.572   5.352 -0.0788 -0.1074 -0.1391
29046W        W45893  12.271   0.780   1.797 -0.1258  0.2155  0.0821
29047W        W45894   1.766  12.635   6.037 -0.1667 -0.2508 -0.0144
29048W        W45895  15.203  17.260   3.814 -0.3160  0.0415 -0.3491
29049W        W45896  10.302  11.859   0.288 -0.0824 -0.1816 -0.0115
29050W        W45897   9.752   4.062  11.269 -0.0360 -0.0627  0.2233
29051W        W45898   6.584   6.441   4.656 -0.0282  0.2790  0.1542
29052W        W45899  15.534   0.487  14.536  0.2112 -0.1507 -0.2953
29053W        W45900   0.609   9.864   1.310 -0.3809  0.1395 -0.0477
29054W        W45901   2.944   4.108   4.050  0.0039  0.0044 -0.1181
29055W        W45902   1.283   5.281   0.301  0.0544  0.1138 -0.2174
29056W        W45903   0.996   6.476   5.427  0.1118 -0.1450  0.2581
29057W        W45904  13.092   5.786   1.102  0.0200  0.3642  0.0888
29058W        W45905  16.668   9.876  12.371  0.1390 -0.3460 -0.1440
29059W        W45906   5.328   4.564  11.819  0.2371 -0.0154 -0.1545
29060W        W45907   8.023  10.504   5.760 -0.0463 -0.1916 -0.0237
29061W        W45908   9.197  16.757   0.926 -0.0679  0.1133 -0.0573
29062W        W45909   5.516   7.489   0.252 -0.2811 -0.0817  0.1314
29063W        W45910   3.733   1.882   5.615 -0.1644  0.3799 -0.1100
29064W        W45911   8.256  16.377  16.041 -0.3479  0.0989 -0.2744
29065W        W45912   2.860   4.186   3.437 -0.1032  0.2104  0.0516
29066W        W45913   3.943  17.400   5.590 -0.0475  0.1259 -0.1799
29067W        W45914  12.030  16.778  14.233  0.3221 -0.0027  0.0314
29068W        W45915   0.385   9.981   2.756  0.0071  0.3837  0.2346
29069W        W45916   8.214  10.182   5.295  0.0280 -0.1138 -0.2210
29070W        W45917  17.170   5.163  11.935  0.2195  0.0251 -0.1263
29071W        W45918   8.619   4.938   0.561 -0.1573 -0.2085  0.1635
29072W        W45919   6.820   2.131  14.008 -0.3455  0.2091 -0.2801
29073W        W45920  11.274   5.806  16.153  0.1897 -0.0020 -0.1140
29074W        W45921  13.257  10.428  11.998  0.0598 -0.1158 -0.1018
29075W        W45922  10.718  11.075   1.343 -0.0217 -0.0267  0.0297
29076W        W45923  11.184   2.980   3.707 -0.1532 -0.1948  0.1716
29077W        W45924   9.726   8.258   3.820 -0.1806 -0.2398  0.1206
29078W        W45925   8.154  14.236   2.416 -0.1690 -0.1098  0.2799
29079W        W45926  16.013   6.407   5.025  0.0506 -0.1348  0.0910
29080W        W45927   7.083   0.143   5.407  0.2094 -0.1619  0.0067
29081W        W45928   4.247   0.113  13.253 -0.0132  0.2140  0.2514
29082W        W45929  14.357  13.219  15.633 -0.0975 -0.2536 -0.2785
29083W        W45930   0.375  10.841  13.493  0.1758 -0.0561 -0.0056
29084W        W45931  14.370  14.715   0.284  0.1989 -0.0904  0.0069
29085W        W45932  14.566   2.287  13.302  0.0965 -0.0929 -0.3148
29086W        W45933  13.342  12.087  13.239 -0.0229  0.0177 -0.1338
29087W        W45934  13.347   0.991   0.088  0.0296  0.1508 -0.3374
29088W        W45935  10.201   4.935  11.779  0.0486 -0.0232  0.0952
29089W        W45936   9.111   7.361   2.454 -0.1448  0.1239 -0.0338
29090W        W45937   2.460  12.552   2.844  0.0468 -0.0558  0.4659
29091W        W45938   8.403   1.498  13.085  0.4170 -0.0222  0.2214
29092W        W45939   3.305  14.277  15.958 -0.0719 -0.0996 -0.3070
29093W        W45940   9.103  15.706  15.012  0.0466 -0.2356 -0.1921
29094W        W45941   0.648   1.772   2.450  0.1367 -0.0007  0.5109
29095W        W45942  17.799  10.302  11.593  0.3592 -0.1302 -0.2701
29096W        W45943   4.825   6.255  14.719 -0.2826 -0.2916  0.1771
29097W        W45944   0.855  14.072  14.890  0.0908 -0.0297 -0.1572
29098W        W45945  11.002   6.460   3.735  0.1854 -0.0083 -0.4565
29099W        W45946  12.380   9.170   2.097 -0.2459  0.1421 -0.2262
29100W        W45947  13.018   2.931   2.757 -0.1310  0.1051  0.0474
29101W        W45948   9.404   3.929   5.238  0.2312  0.0637 -0.3108
29102W        W45949   2.365  10.166  15.839  0.2759 -0.2871  0.0264
29103W        W45950   0.377   0.613   1.612 -0.0651  0.1890  0.0642
29104W        W45951  12.768   2.425  12.138  0.3286 -0.1357 -0.1987
29105W        W45952   9.042   8.603  13.370 -0.0772 -0.1549 -0.1717
29106W        W45953  14.874   6.053  14.572  0.0047 -0.3409  0.0091
29107W        W45954  12.311   6.733   0.957 -0.4486  0.0726  0.3750
29108W        W45955  15.560   3.936  15.436 -0.3045 -0.0166  0.1939
29109W        W45956   3.996  11.236  14.931  0.1851 -0.0854 -0.0384
29110W        W45957  17.416   0.926  11.333  0.0286  0.1001 -0.0493
29111W        W45958  11.710   8.594  11.245  0.0606 -0.0532 -0.0101
29112W        W45959  11.207   0.641  15.046  0.2750 -0.0067 -0.2009
29113W        W45960  16.368  16.178   5.594  0.0266 -0.2456  0.3745
29114W        W45961  11.253   7.608   2.780 -0.1447  0.1010 -0.1234
29115W        W45962  10.525  18.015   5.758  0.0858 -0.1036 -0.0060
29116W        W45963   3.497  16.419  15.974 -0.2233 -0.0691 -0.1756
29117W        W45964  18.046   5.111  12.199 -0.1580  0.2495 -0.0734
29118W        W45965   1.849   9.730   0.592 -0.1375 -0.3171  0.3518
29119W        W45966  14.142   5.654   3.786  0.0741 -0.1159 -0.3488
29120W        W45967  15.723  10.424  16.033 -0.2696 -0.1523 -0.1963
29121W        W45968   2.590   1.440  11.715 -0.1792  0.0298 -0.0950
29122W        W45969  15.960   4.388  13.752 -0.1923  0.1388  0.1287
29123W        W45970   8.578   2.475  12.203  0.2523 -0.1175  0.0874
29124W        W45971   9.412   8.513   0.292 -0.0533  0.0074  0.1688
29125W        W45972   2.664  11.179   2.337  0.2628  0.2387 -0.2270
29126W        W45973   2.836   3.884  11.671  0.1554 -0.1691  0.0907
29127W        W45974   4.559  13.065  15.025 -0.2478 -0.2027 -0.4181
29128W        W45975   2.193  18.161   4.659  0.0478 -0.1945  0.2472
29129W        W45976   6.434  11.087  16.016  0.1828 -0.0362  0.2218
29130W        W45977   3.166  16.922   1.470  0.2820 -0.1073  0.3733
29131W        W45978  16.128   6.666  11.914 -0.2463  0.1285 -0.0300
29132W        W45979   0.872   9.929   5.682  0.0759 -0.1142  0.2106
29133W        W45980   5.808   7.360   1.715  0.2132 -0.0122 -0.0613
29134W        W45981   1.816   1.901   4.969 -0.4182 -0.0080 -0.2345
29135W        W45982   4.726  13.108  16.292 -0.1004 -0.0035  0.0450
29136W        W45983  10.317   0.250  14.706 -0.1040  0.0955 -0.0584
29137W        W45984  14.254  12.805   1.937 -0.0958 -0.3261  0.4078
29138W        W45985   7.281   0.386   4.115  0.1132 -0.1185 -0.1338
29139W        W45986  16.916   9.322   2.855 -0.2394  0.0051 -0.1235
29140W        W45987   5.620  12.310   5.659 -0.3094 -0.4359 -0.1698
29141W        W45988   7.395   2.590  12.871  0.2452  0.3065 -0.0783
29142W        W45989  13.531   4.037  16.591 -0.0553  0.1012  0.4508
29143W        W45990   6.250  13.828  15.368 -0.1764  0.0139  0.1256
29144W        W45991  15.649  10.679  14.201 -0.2558  0.1001  0.0314
29145W        W45992   6.882   8.445  12.781 -0.1128 -0.2726  0.2934
29146W        W45993  13.480  13.182  16.521  0.1633  0.1341  0.0986
29147W        W45994  17.143   2.572  11.525 -0.0262  0.1529  0.1186
29148W        W45995  15.475   1.651  13.966 -0.0602  0.0008 -0.0337
29149W        W45996   4.713  12.851   5.441  0.1641 -0.0025  0.1048
29150W        W45997  16.617   4.646   3.918 -0.1729 -0.5681 -0.1027
29151W        W45998  17.851   1.686  13.930  0.1819  0.0652 -0.1132
29152W        W45999  15.312   9.120  14.196  0.2187 -0.0427  0.1855
29153W        W46000  18.111   9.802   0.129  0.2635  0.2146  0.1622
29154W        W46001   9.347   4.952   0.021  0.0042  0.0388 -0.0961
29155W        W46002  16.514  15.262   4.925 -0.0958  0.1876  0.2511
29156W        W46003   1.871  13.751   3.301  0.0249  0.0436  0.0693
29157W        W46004   1.868  12.531  13.068 -0.0911 -0.1266  0.1423
29158W        W46005  15.078   3.468   0.557 -0.0236  0.1406 -0.0861
29159W        W46006  12.233   4.241   2.312  0.0849  0.1152 -0.0581
29160W        W46007  13.837  12.604  14.549  0.5654 -0.0729 -0.0822
29161W        W46008  12.616   1.892  14.162  0.0123 -0.0088  0.0331
29162W        W46009   7.404  13.767  12.637  0.1932 -0.0648 -0.0061
29163W        W46010   5.603   0.314   4.022  0.1084 -0.1844 -0.0938
29164W        W46011  11.691  14.095  15.108 -0.3791  0.2043  0.5231
29165W        W46012  14.099  17.319  12.814 -0.0005 -0.0749 -0.2132
29166W        W46013  15.255   5.498  12.390  0.1425  0.0927  0.0667
29167W        W46014   1.709  17.689   3.847 -0.0301  0.0424 -0.1296
29168W        W46015   3.327   1.953   2.716  0.2088  0.0862  0.1852
29169W        W46016   3.451  10.830   3.232  0.0415  0.3109  0.0123
29170W        W46017   6.980   2.026  15.457 -0.1111  0.2288 -0.1488
29171W        W46018   7.515   2.278  14.371 -0.2766  0.2064 -0.1372
29172W        W46019   0.051   0.734  11.080 -0.3211 -0.0866  0.1113
29173W        W46020  14.464  11.885  15.534  0.2538 -0.2661  0.2705
29174W        W46021  13.449   3.748   3.737 -0.0052  0.2124 -0.1631
29175W        W46022  15.098  14.376   0.260 -0.0711 -0.2418  0.1629
29176W        W46023  16.158  13.434   1.726  0.2252  0.0365  0.0231
29177W        W46024   8.918   2.121  16.048 -0.4392 -0.1908  0.1838
29178W        W46025   5.566   0.905   0.206 -0.1115 -0.3261  0.0966
29179W        W46026  11.586   6.099  12.161  0.2517  0.0046 -0.2013
29180W        W46027   7.428  12.142   5.660  0.0506  0.2061  0.1311
29181W        W46028   6.004  13.559   4.470  0.1503  0.0288  0.1771
29182W        W46029   1.257  12.634  15.183  0.1610  0.3334 -0.0121
29183W        W46030  12.298  15.664  14.680 -0.2227 -0.1824  0.0379
29184W        W46031  13.918  17.165   2.935  0.2225 -0.5426 -0.2944
29185W        W46032  13.249   6.566  14.137 -0.3367  0.1314  0.3530
29186W        W46033  14.350  12.554   3.959 -0.0022 -0.1113 -0.1714
29187W        W46034  11.052  16.994  11.322  0.1626  0.1128 -0.0951
29188W        W46035   6.329   3.447   3.299  0.2564  0.1389 -0.0810
29189W        W46036   7.345  15.715   5.463  0.1137  0.2726 -0.2877
29190W        W46037   0.359   5.593  13.038 -0.0114  0.1358  0.5534
29191W        W46038   1.874  15.565  14.428 -0.2037  0.1554  0.0283
29192W        W46039  10.745  17.846  14.214 -0.2543 -0.1328 -0.0310
29193W        W46040  14.678   7.254   2.929 -0.0306 -0.0920  0.0400
29194W        W46041   3.024   8.707  15.158 -0.0023 -0.2218 -0.3774
29195W        W46042  14.451  11.297  15.532  0.1011  0.0694 -0.1771
29196W        W46043   3.025   1.610  11.569 -0.0455  0.2354  0.2141
29197W        W46044  10.684  16.397   2.150  0.2299  0.2886  0.1688
29198W        W46045   2.888  15.599   3.879 -0.0427  0.1622 -0.0130
29199W        W46046  14.961  17.967  15.192 -0.0612  0.2262  0.0520
29200W        W46047  13.779  12.043  16.186 -0.1634  0.5042  0.0816
29201W        W46048   5.706  12.140   4.783 -0.1670  0.1552 -0.0963
29202W        W46049  16.871   0.327   4.609  0.1789 -0.0699 -0.0495
29203W        W46050   5.369   5.139  13.367  0.1594 -0.0435  0.0563
29204W        W46051  14.482  12.066   2.717 -0.1570  0.1521  0.2092
29205W        W46052  10.987   8.067   4.464  0.1096  0.0806  0.0235
29206W        W46053  14.608   0.164  15.121 -0.1916  0.0263  0.0702
29207W        W46054   9.029   0.068   0.838 -0.0186 -0.1058 -0.1905
29208W        W46055  14.983   9.676   1.772 -0.1216  0.3177 -0.2016
29209W        W46056   9.024   3.998  12.086  0.0453  0.2930 -0.0895
29210W        W46057   2.777   7.526   1.797 -0.0592 -0.0189 -0.2273
29211W        W46058   5.523   9.936  16.186  0.1765 -0.3128  0.1054
29212W        W46059   5.568   9.847   1.756  0.1658  0.1586  0.2721
29213W        W46060  10.543   3.604  16.509  0.4314 -0.1547  0.0090
29214W        W46061  12.832  13.601  13.899 -0.2492  0.1105 -0.1986
29215W        W46062   0.454  15.908   0.931 -0.0523  0.0691 -0.0641
29216W        W46063   8.666   4.825   5.354 -0.1486  0.0507  0.0557
29217W        W46064   9.874   7.638  11.978 -0.1125 -0.0004  0.0816
29218W        W46065  17.934  13.217   1.384 -0.0685  0.0958  0.1230
29219W        W46066  16.562  15.189   3.458 -0.0942 -0.0726  0.3345
29220W        W46067   3.947   4.774  12.568  0.0307  0.1936 -0.0147
29221W        W46068  12.812   2.679   3.578  0.0446  0.0565 -0.1354
29222W        W46069   1.827  16.945   2.686  0.0970  0.1578  0.3796
29223W        W46070  13.097  16.965   3.434  0.0649  0.1872 -0.1794
29224W        W46071   9.953  12.380   2.363 -0.0843  0.2491 -0.2891
29225W        W46072   1.482   2.157  12.777  0.1116 -0.0180  0.2225
29226W        W46073  14.411  17.327   2.268  0.3001 -0.0014 -0.1718
29227W        W46074  10.485   0.873  15.438 -0.1033  0.0716  0.2315
29228W        W46075  12.970   2.312   1.133 -0.3046 -0.0582  0.0720
29229W        W46076   3.936  10.977   2.854  0.2628 -0.1123  0.4383
29230W        W46077   8.921  14.556  15.964  0.1411  0.0380 -0.0795
29231W        W46078   9.699   9.820  15.553 -0.2703  0.2464  0.2012
29232W        W46079   7.077  15.720  12.120  0.1555  0.0950 -0.1697
29233W        W46080   6.666   2.315  15.865 -0.1568  0.3396  0.3106
29234W        W46081   6.956   3.582   2.331 -0.3429  0.0063  0.0986
29235W        W46082  15.546   3.723   2.571 -0.1997  0.1554  0.2352
29236W        W46083   5.787   3.383   5.487 -0.0715 -0.1768 -0.4357
29237W        W46084  14.558   1.855  12.975 -0.0963  0.0134  0.2654
29238W        W46085  10.613  16.974  15.865 -0.2891 -0.0869  0.0238
29239W        W46086  16.224   4.126   5.107 -0.0135  0.3250 -0.2549
29240W        W46087   3.727   4.569  14.083 -0.0604  0.3584 -0.0257
29241W        W46088   0.882  16.056   1.590  0.2962 -0.2252  0.2780
29242W        W46089   1.828   7.566   5.858  0.3088  0.1175  0.1104
29243W        W46090   5.386   3.949  15.170 -0.1429 -0.2806 -0.3453
29244W        W46091  17.065  13.523   2.977  0.1406 -0.0520 -0.2488
29245W        W46092   4.076   9.699   2.655  0.1053  0.3715 -0.0367
29246W        W46093  10.877   3.630   5.369  0.1162 -0.0718 -0.0450
29247W        W46094   1.203   8.330   2.751 -0.0183 -0.1955  0.2136
29248W        W46095   3.567   0.018   1.711  0.0401 -0.3469  0.0786
29249W        W46096   8.992  10.101  15.918  0.1172  0.1596 -0.2877
29250W        W46097  10.254   8.244  15.135  0.1559 -0.2249  0.1856
29251W        W46098   6.417  14.417   0.614  0.0346  0.0552  0.1271
29252W        W46099   8.859   3.345   5.055  0.1792  0.1462  0.0108
29253W        W46100   2.424  16.890   0.995 -0.2857  0.0363 -0.2895
29254W        W46101   4.044   5.762  15.627  0.0940 -0.1779  0.1411
29255W        W46102   2.449   1.474   0.923 -0.1435  0.1266 -0.0270
29256W        W46103   1.038  16.016  15.710 -0.1725 -0.2508 -0.1684
29257W        W46104  15.956  15.136  13.571 -0.1036 -0.3382  0.3507
29258W        W46105  14.379   6.545  13.779  0.0065  0.2305 -0.2967
29259W        W46106  15.486   7.659   2.010 -0.0465 -0.1497  0.2110
29260W        W46107  12.058   8.901   5.830 -0.0664 -0.0024  0.0040
29261W        W46108   4.751   4.946  13.363  0.0540 -0.1186  0.2292
29262W        W46109  13.413   0.379  14.740  0.0435  0.0506  0.0737
29263W        W46110  14.093  17.514  14.099 -0.4901  0.3278  0.1060
29264W        W46111   1.071   6.968  12.480 -0.1122  0.2551 -0.1451
29265W        W46112  14.317  13.598  16.065 -0.0181  0.0396  0.0802
29266W        W46113   2.438   1.720  16.250  0.0912  0.2243 -0.0201
29267W        W46114   8.630  13.292  13.829 -0.1612 -0.3340 -0.1526
29268W        W46115  12.722  10.961   1.001 -0.2624  0.0643  0.2251
29269W        W46116  16.577   5.141   3.808  0.0452 -0.0966  0.1206
29270W        W46117  17.201   9.903  15.222  0.0377  0.1559  0.1008
29271W        W46118  14.178   4.522   3.284  0.1716  0.2818  0.1259
29272W        W46119   8.948  17.201  14.737 -0.1171 -0.0282  0.0911
29273W        W46120   1.372  11.181  15.336  0.0561  0.0788 -0.0631
29274W        W46121   7.278  16.960   6.216  0.1265 -0.2246 -0.3157
29275W        W46122   3.381  10.183  12.639  0.0999  0.0032  0.3672
29276W        W46123   8.278  13.514  12.543  0.0137  0.0421  0.0563
29277W        W46124  11.977   6.523   4.474  0.0379  0.0055 -0.2302
29278W        W46125   0.675  15.243  13.068  0.0972  0.1627 -0.1056
29279W        W46126   8.527   6.292   0.400 -0.0443 -0.0359 -0.0392
29280W        W46127  11.634  14.573   2.877 -0.2396  0.2076  0.1444
29281W        W46128  10.209   3.500   4.087 -0.0103  0.3843 -0.0691
29282W        W46129   0.061   3.648   6.123 -0.1274  0.3636 -0.0405
29283W        W46130   3.673   0.856   4.979 -0.1881  0.0221  0.0624
29284W        W46131  17.687  16.528   5.488  0.0429 -0.0658  0.0653
29285W        W46132   0.766   7.946   0.743 -0.1517 -0.0260 -0.0048
29286W        W46133  18.073   3.639   5.596 -0.1205 -0.0015 -0.3864
29287W        W46134   2.693   1.523  12.604  0.0177  0.1253  0.3421
29288W        W46135  14.706   0.923  11.538  0.0316  0.2104 -0.1997
29289W        W46136   9.366   9.968   3.488 -0.2091  0.1909 -0.2909
29290W        W46137   1.196  16.468  16.556 -0.1084  0.2916  0.1398
29291W        W46138   2.111   0.721  14.475  0.1365 -0.1260 -0.2525
29292W        W46139  12.803   7.404  15.917  0.2806 -0.2395 -0.0405
29293W        W46140   4.167   1.432  12.551  0.2017  0.1747  0.0175
29294W        W46141  13.016   7.593   1.674  0.0619  0.0442 -0.2319
29295W        W46142   5.307  16.772   4.175 -0.1470 -0.1653  0.1984
29296W        W46143  11.790  14.417   4.353  0.2219  0.2424  0.2672
29297W        W46144  14.398  13.762  15.508  0.4131 -0.0367 -0.2847
29298W        W46145  15.773  14.345   0.160 -0.0131 -0.3842 -0.0132
29299W        W46146   5.722   9.333  11.666 -0.2063 -0.1578 -0.0915
29300W        W46147  15.161  10.015   0.526  0.0000  0.0008 -0.1507
29301W        W46148   2.423   6.295   2.578  0.4246  0.0252 -0.0611
29302W        W46149  12.123  16.243   0.420  0.2901  0.0465  0.1819
29303W        W46150   4.840  14.275  15.161  0.4417 -0.1008 -0.0659
29304W        W46151   8.806  12.935  12.580  0.2333 -0.2352 -0.1108
29305W        W46152  18.001  18.040  12.811 -0.1921 -0.0865  0.0882
29306W        W46153  17.403   4.764  14.013 -0.1175  0.0255 -0.0196
29307W        W46154   2.655   6.965  16.362 -0.0373 -0.1244 -0.3263
29308W        W46155   1.405  14.822   2.305 -0.5306  0.1952 -0.2567
29309W        W46156   0.115  12.218  12.910  0.0665  0.2932 -0.1690
29310W        W46157   5.810  14.329  15.968  0.1632  0.0453 -0.1527
29311W        W46158   8.597   4.309   2.347  0.0397  0.0141 -0.1294
29312W        W46159   8.391   9.861  16.072 -0.0393 -0.1748  0.1645
29313W        W46160   6.537  15.238  12.516  0.2755 -0.3394 -0.3186
29314W        W46161   0.060   0.898   1.301 -0.1157  0.1634 -0.2699
29315W        W46162  17.590   0.039   1.673 -0.4170  0.1697  0.2994
29316W        W46163  14.920   2.520  12.908  0.1273  0.0265 -0.0262
29317W        W46164  16.771   6.166  16.497 -0.2221 -0.2966  0.0566
29318W        W46165   6.897  17.405  15.407 -0.1840  0.0791  0.0763
29319W        W46166   8.266  12.625   2.873  0.1450 -0.3406  0.2250
29320W        W46167   8.895  15.904   5.659  0.0264 -0.0537 -0.0152
29321W        W46168  16.604  15.654   1.699 -0.0120  0.0314  0.0716
29322W        W46169  13.552  10.612   5.931  0.3115 -0.1889 -0.0825
29323W        W46170   6.780  11.846  11.644  0.1599 -0.1416 -0.1108
29324W        W46171   3.997   6.580   4.208 -0.1966 -0.0845 -0.0455
29325W        W46172  13.580  13.581   1.788  0.3075 -0.0677  0.0112
29326W        W46173   9.585  11.565  13.544  0.2753  0.2727  0.1594
29327W        W46174   0.466   0.979  11.276 -0.0692 -0.2145 -0.0430
29328W        W46175  13.484   6.950   2.381  0.2385  0.3343 -0.0166
29329W        W46176   0.633  16.835  15.089 -0.1593 -0.1762 -0.0202
29330W        W46177  14.698   3.783   0.737  0.2372  0.1039  0.2768
29331W        W46178  11.387  14.530   0.484 -0.1782  0.0164 -0.2441
29332W        W46179   6.554  10.753  14.850  0.1083  0.2008  0.1107
29333W        W46180  10.250   0.199   4.814 -0.0421 -0.3567  0.5187
29334W        W46181   4.807  13.312  12.938  0.0364  0.2595  0.1283
29335W        W46182  14.746  13.606  12.910 -0.1125  0.0421 -0.2432
29336W        W46183   6.846   0.476   5.765 -0.1319 -0.1891 -0.0668
29337W        W46184   1.911  15.879   0.915 -0.0693  0.0606 -0.2977
29338W        W46185   0.548   5.599  15.181 -0.0674 -0.1988 -0.0505
29339W        W46186  16.108   1.659   3.140 -0.0327  0.1968  0.0791
29340W        W46187   9.587   9.822  12.880 -0.0482  0.0130  0.1887
29341W        W46188   0.138  11.771  12.004 -0.0169  0.1205  0.2226
29342W        W46189   5.183   7.683  12.606 -0.4273  0.1912  0.0020
29343W        W46190   2.253   0.934   2.528  0.2657  0.3247  0.2496
29344W        W46191   0.327   2.400  13.832  0.0468 -0.0655 -0.1666
29345W        W46192   8.245  16.740  14.803  0.1027  0.3102  0.0565
29346W        W46193  14.514   6.316  14.253 -0.0869 -0.2792 -0.1445
29347W        W46194  10.403   1.829   4.710 -0.1263  0.1625 -0.1299
29348W        W46195   3.766  15.855   0.905  0.0369 -0.0825 -0.1285
29349W        W46196   8.981  16.778  13.120 -0.0339  0.3437  0.1656
29350W        W46197   1.398  11.047  11.905  0.0473 -0.2752 -0.1416
29351W        W46198  13.796   9.209  12.448 -0.0960 -0.3404 -0.3467
29352W        W46199   3.598   5.171  16.357  0.1640  0.1487  0.1290
29353W        W46200   1.859   5.731   4.069 -0.0428 -0.1856 -0.2590
29354W        W46201  11.557   3.210  12.811  0.0269  0.0996 -0.0558
29355W        W46202  12.272  12.984   0.631 -0.3431  0.0638  0.0451
29356W        W46203   0.338   3.253  13.646 -0.2262 -0.1168 -0.1460
29357W        W46204   1.696   4.530  16.211  0.0058 -0.0740 -0.0160
29358W        W46205   4.602  10.032  11.853  0.0046  0.0144 -0.0838
29359W        W46206   2.652  16.995  15.163  0.2600  0.0782  0.2161
29360W        W46207  17.484   1.048  16.122  0.0966  0.0439 -0.0467
29361W        W46208   2.087  12.879   1.672  0.3082  0.1317 -0.1352
29362W        W46209  13.186  14.935   0.246 -0.2204  0.1560 -0.2034
29363W        W46210   4.369  15.112   2.705 -0.3032 -0.1506  0.2560
29364W        W46211  12.034   4.232   4.902  0.2865 -0.0056 -0.1500
29365W        W46212   3.595   6.330  15.845 -0.1009  0.1437  0.0665
29366W        W46213   6.974  16.729  13.380  0.2050 -0.0574  0.0178
29367W        W46214   7.607  10.870   1.429  0.1349  0.0410 -0.0147
29368W        W46215   8.818   4.634   4.248 -0.0450  0.0790 -0.1900
29369W        W46216   5.058   1.104   0.045  0.0749  0.2865  0.4363
29370W        W46217   2.168   5.626   0.119  0.1516  0.2823  0.0244
29371W        W46218  13.579  17.921   0.643  0.0314 -0.0475 -0.2204
29372W        W46219  11.080   6.074   4.299  0.1621  0.3180 -0.2033
29373W        W46220   8.940  15.515   1.631 -0.1940  0.3394 -0.3121
29374W        W46221   0.776  14.428  15.210 -0.0190  0.1074 -0.0700
29375W        W46222  13.695   5.690  12.736 -0.4432 -0.1625  0.1596
29376W        W46223   1.122  14.237   5.702 -0.1246 -0.0737 -0.1851
29377W        W46224   3.615   8.155  15.565  0.3956 -0.1674 -0.0717
29378W        W46225   0.073   6.488  15.477 -0.2799  0.2453  0.2279
29379W        W46226  17.603   3.255   0.350  0.2312  0.2264 -0.0795
29380W        W46227   2.975  10.126  14.018 -0.0055  0.1603 -0.1655
29381W        W46228   0.949   5.576   4.763 -0.0723  0.2709  0.4138
29382W        W46229   7.347  11.079   6.214  0.0506 -0.0658 -0.0743
29383W        W46230   9.337  13.907   5.509  0.1131  0.2767 -0.0177
29384W        W46231   3.638  15.908  13.264 -0.2027  0.0829 -0.1570
29385W        W46232   0.635  13.088  15.758 -0.1255 -0.0984  0.1372
29386W        W46233  17.207  17.353   1.264  0.0376  0.2679 -0.3025
29387W        W46234  16.076  18.016  11.331 -0.0163 -0.1428 -0.0694
29388W        W46235   3.501   1.404   0.502  0.1725 -0.0576 -0.1288
29389W        W46236   3.893  16.913  12.903  0.1669  0.3056  0.1723
29390W        W46237   1.296  11.695  15.642 -0.2129  0.0130 -0.0333
29391W        W46238   6.587  10.600   1.613  0.1339 -0.3915 -0.1179
29392W        W46239  15.668  16.387  15.917  0.4264 -0.0381  0.4485
29393W        W46240   8.875   2.584  14.241  0.2735  0.2810  0.1211
29394W        W46241   5.748  13.125  13.991  0.0553  0.0794 -0.0887
29395W        W46242  15.493   7.525  16.097  0.1834  0.2834  0.1178
29396W        W46243   3.830  17.328   0.420 -0.0690 -0.2292  0.1681
29397W        W46244  15.708   8.551   5.351  0.1621 -0.0070  0.2829
29398W        W46245  15.415  14.931  14.567 -0.2267 -0.2273  0.2268
29399W        W46246  15.960   9.942   0.821  0.1063 -0.0491  0.1348
29400W        W46247   5.707   7.051  11.503 -0.0849 -0.1552  0.1577
29401W        W46248   3.941   7.471   5.235  0.2293  0.2314  0.2173
29402W        W46249  15.566   7.059   2.580 -0.1878 -0.1117 -0.1453
29403W        W46250   1.316  16.051   6.071  0.1487  0.1673  0.1050
29404W        W46251   2.159   2.837  13.368  0.0546  0.1018  0.1372
29405W        W46252  13.032   1.980   0.089  0.0107  0.1122  0.1855
29406W        W46253   8.153   2.227  13.307 -0.1003 -0.3617 -0.1432
29407W        W46254  16.275   3.937   3.448  0.0451 -0.1544 -0.4089
29408W        W46255  13.147  16.630   3.085  0.0375  0.3869  0.2249
29409W        W46256   6.887   9.608   5.101 -0.3934  0.0148  0.2540
29410W        W46257  13.675  11.817  11.975  0.0151 -0.3450 -0.2424
29411W        W46258  16.534   7.611  12.942  0.0529 -0.2875 -0.2102
29412W        W46259   5.035  14.995   1.601  0.2985 -0.0488  0.0491
29413W        W46260  15.875   7.044  15.841  0.2627 -0.0268  0.2293
29414W        W46261   3.741  14.164  12.121  0.0426  0.3484  0.0166
29415W        W46262   4.825  14.498   2.944  0.0296  0.1415  0.3281
29416W        W46263  10.625  13.803  15.087  0.2514  0.0697 -0.0725
29417W        W46264   0.112   8.114   1.425 -0.0668  0.2457 -0.0636
29418W        W46265   0.417  15.868   1.779 -0.3039 -0.3731 -0.1483
29419W        W46266  12.967  15.063   3.771  0.3899  0.0360  0.4303
29420W        W46267   0.200  13.441   1.456 -0.2314  0.4656 -0.2933
29421W        W46268   6.519   1.941  13.370  0.1696 -0.0415 -0.2187
29422W        W46269   1.441  18.106  14.957 -0.3605 -0.1556 -0.1143
29423W        W46270  12.060   0.438  14.067  0.2145 -0.2778 -0.0107
29424W        W46271   8.297  11.420  13.359  0.0572  0.2357 -0.1724
29425W        W46272  11.871   7.403   3.605 -0.1169 -0.0543 -0.0427
29426W        W46273  16.066  15.297  11.826  0.1624  0.2077  0.2017
29427W        W46274   4.039   5.327  15.848 -0.1278  0.0047 -0.0011
29428W        W46275  10.754  16.683   0.938 -0.1762 -0.2272  0.0050
29429W        W46276  12.951   8.742  12.016  0.1940 -0.1223  0.2232
29430W        W46277  10.968   5.583   2.200 -0.0329  0.1192  0.0142
29431W        W46278   2.326  14.627   3.358 -0.0414 -0.0728  0.0045
29432W        W46279  13.412  11.509   2.411 -0.2124 -0.0241 -0.1405
29433W        W46280   2.161   8.513   0.086  0.0924 -0.1547  0.1159
29434W        W46281  13.332   3.312   2.888  0.1753  0.0399  0.0637
29435W        W46282  13.398  10.538   5.417  0.0944 -0.1534  0.0881
29436W        W46283  14.272  11.615  16.045  0.1263  0.0350  0.0021
29437W        W46284   2.279  14.992  15.345  0.1592 -0.2592 -0.0934
29438W        W46285   6.756  12.766   4.258 -0.2793 -0.0144  0.0375
29439W        W46286   8.839  12.035   5.413 -0.0736  0.2064  0.0326
29440W        W46287  11.087   2.933  12.708 -0.3006 -0.1310 -0.0545
29441W        W46288   6.146  11.800  16.072 -0.2511 -0.0673 -0.1035
29442W        W46289   3.698   2.835  12.628  0.3617  0.0952 -0.0017
29443W        W46290   5.343  14.314  15.456  0.2460 -0.1255  0.0554
29444W        W46291   0.183   6.228  16.453  0.0016 -0.2897 -0.1072
29445W        W46292   7.669   0.784  12.713  0.3894 -0.5089 -0.0927
29446W        W46293  15.112   4.875  11.231  0.1605  0.0599  0.0972
29447W        W46294   2.403  17.826   3.702 -0.2019  0.1830  0.0413
29448W        W46295   3.608  17.423  15.724  0.2990  0.2223  0.1338
29449W        W46296   6.522   9.869   3.178  0.2518 -0.0514  0.1018
29450W        W46297  10.643   0.721  13.394 -0.0966  0.0423 -0.3385
29451W        W46298  11.858  14.065  16.433  0.1354  0.0782 -0.2271
29452W        W46299   9.576   0.931  14.419  0.0369 -0.0392  0.0247
29453W        W46300   3.833   1.029   3.672 -0.0937  0.1714  0.0310
29454W        W46301  13.997  11.325  13.368  0.1772  0.0025 -0.1287
29455W        W46302  12.659   3.416  11.387  0.0567 -0.0741  0.1324
29456W        W46303   7.169  10.433   6.306  0.0576  0.3675  0.0693
29457W        W46304   1.789   8.571   3.315 -0.3079  0.2997 -0.0968
29458W        W46305   7.857   8.784  15.649  0.1304  0.0765 -0.2586
29459W        W46306  12.509   9.928   0.786 -0.1028 -0.2876 -0.0122
29460W        W46307   9.543   4.084  11.842 -0.2950 -0.1190 -0.0887
29461W        W46308  14.768  13.954  14.636 -0.1843  0.1360  0.1151
29462W        W46309   5.310   9.323   4.951 -0.0494 -0.0844 -0.1061
29463W        W46310   0.089   9.477  13.983  0.2848  0.0653  0.0731
29464W        W46311   5.691   7.836   5.365 -0.1975 -0.0483  0.0822
29465W        W46312   0.077   0.632   3.259  0.0445 -0.1592  0.2902
29466W        W46313   3.186  12.820  13.356  0.0865  0.0143 -0.2794
29467W        W46314  10.040  17.939   5.530 -0.0974  0.1342 -0.0859
29468W        W46315   8.353   3.931   2.469  0.3248 -0.0259 -0.0038
29469W        W46316   2.400   3.248   3.901  0.1031  0.0706 -0.1274
29470W        W46317   4.068  16.261  16.016  0.0006  0.3571 -0.2818
29471W        W46318   7.822   2.507  12.467 -0.0829 -0.0354 -0.1951
29472W        W46319   3.230   7.597   5.489 -0.1205  0.3156  0.2039
29473W        W46320   2.286  15.977   1.232  0.1015  0.0263  0.1147
29474W        W46321  16.355  10.978   3.528  0.0697 -0.1568 -0.0600
29475W        W46322  14.789   0.527   0.461 -0.2252  0.1330  0.1143
29476W        W46323  13.801  10.921  12.043 -0.1626 -0.1689 -0.0464
29477W        W46324  11.356   7.027   3.471 -0.0475  0.2412 -0.1066
29478W        W46325   4.054   9.678   1.602  0.0685 -0.0178 -0.1597
29479W        W46326   7.627  17.825   3.798  0.1516 -0.0743  0.1581
29480W        W46327  10.164   6.493   4.326  0.0645  0.1950 -0.2423
29481W        W46328   6.233   4.986   2.561 -0.1634  0.4693 -0.0839
29482W        W46329   7.049  12.299  13.311  0.2126 -0.1807  0.1087
29483W        W46330  13.123  15.224  12.908 -0.1846  0.4950 -0.0976
29484W        W46331  12.825  12.565  15.395 -0.3467 -0.1479 -0.3144
29485W        W46332  16.506  13.721   1.995 -0.4668 -0.0641  0.0004
29486W        W46333  14.383  14.035  10.518  0.1666  0.3722  0.0984
29487W        W46334  14.305   7.464  12.674  0.1205  0.0331  0.1289
29488W        W46335   9.192  10.542   4.244  0.1866 -0.1104 -0.1131
29489W        W46336   5.090  11.638  11.964  0.0338 -0.2088  0.1150
29490W        W46337   1.714   6.686  16.203 -0.0340 -0.0283  0.2983
29491W        W46338   0.247  10.882   1.333  0.0725 -0.1162 -0.1103
29492W        W46339   2.552   9.813   3.305  0.2560  0.1191 -0.0846
29493W        W46340   8.580  14.479   2.957 -0.1630 -0.1668  0.0619
29494W        W46341   4.599   5.381   5.488  0.0151 -0.0216 -0.1559
29495W        W46342   7.161  11.764   4.975  0.2426 -0.0919  0.3806
29496W        W46343   9.421   0.213  15.351  0.0297  0.2284 -0.2184
29497W        W46344  10.490  13.947  14.499  0.1504  0.1969 -0.0521
29498W        W46345  15.123   0.716   5.841 -0.0514  0.0683 -0.2902
29499W        W46346   9.771  14.493  11.414  0.2339  0.0088  0.2954
29500W        W46347   6.647   4.193   5.303  0.0125 -0.2144  0.0237
29501W        W46348   3.901   9.410   3.253  0.1114 -0.2398 -0.0946
29502W        W46349   4.385  13.940  15.278 -0.1453 -0.1529 -0.5110
29503W        W46350  17.839   0.225  15.837  0.1159 -0.1023  0.0195
29504W        W46351   2.335  11.372  12.286 -0.0344  0.0825 -0.0502
29505W        W46352  16.483  14.934   2.331 -0.1426 -0.1762  0.0004
29506W        W46353  17.798  11.272  15.632  0.2038 -0.1599  0.1644
29507W        W46354  13.316   1.651   2.204  0.0209 -0.0461 -0.3005
29508W        W46355  13.682   2.107  15.572  0.0065  0.1724  0.2199
29509W        W46356   4.419  15.761  16.258  0.1865  0.0524  0.2013
29510W        W46357   3.298  12.142  14.756 -0.3315 -0.0165  0.4684
29511W        W46358  14.913  17.153   1.248 -0.0908 -0.1089  0.1801
29512W        W46359   5.345  15.098   1.099 -0.0476  0.0912  0.0312
29513W        W46360   1.826   9.352   3.653  0.1929 -0.6246 -0.0860
29514W        W46361   4.800  14.212  12.866 -0.0454 -0.3703  0.3639
29515W        W46362  17.736  14.726   3.227 -0.1223 -0.0502 -0.1627
29516W        W46363  15.255   3.241  11.407 -0.2325 -0.1080  0.1275
29517W        W46364   4.883   9.707   4.928 -0.2447 -0.1965 -0.1711
29518W        W46365   2.806   0.682  15.817  0.2060 -0.0662  0.1041
29519W        W46366   9.589   9.122   2.288  0.0269  0.1138 -0.1493
29520W        W46367   8.435  10.253   4.069 -0.2210 -0.4531  0.1280
29521W        W46368  16.675   4.381  14.440 -0.0890 -0.1336  0.1096
29522W        W46369   7.576  16.493  15.291 -0.0727 -0.1772 -0.1817
29523W        W46370  16.464   9.827  15.607 -0.1223  0.2587  0.1506
29524W        W46371  11.346  11.443   2.482 -0.0533  0.0603  0.1174
29525W        W46372   1.817   1.284   3.940 -0.3311 -0.0455 -0.2053
29526W        W46373   8.273   0.803   4.014  0.0575  0.0233 -0.1205
29527W        W46374  10.156  13.558  14.183 -0.1766  0.0531  0.0236
29528W        W46375  10.901   8.148   1.353 -0.2282 -0.0875  0.1740
29529W        W46376   4.697   9.265  14.576  0.2345 -0.0268  0.0394
29530W        W46377   6.938  17.507  16.379 -0.2001 -0.0826 -0.1879
29531W        W46378   6.871  14.760  11.570 -0.2907  0.0652  0.1718
29532W        W46379   0.915   1.276   5.744  0.1651 -0.6105 -0.1091
29533W        W46380  11.468   6.462  14.102 -0.1117  0.1206 -0.3951
29534W        W46381  16.971   7.746  11.709 -0.2505 -0.0185  0.0512
29535W        W46382  15.191   9.773   2.234 -0.3414 -0.1833 -0.1962
29536W        W46383   9.890  16.769  15.405 -0.3402 -0.0219  0.3075
29537W        W46384  11.587   8.694  14.980  0.1622  0.3585  0.1032
29538W        W46385   7.394  15.507  12.421 -0.3589 -0.0785  0.1949
29539W        W46386   8.746  17.169  12.905 -0.3271  0.0282  0.1292
29540W        W46387   1.365  12.430  12.177 -0.0997  0.0663 -0.1686
29541W        W46388   2.685   7.686   3.821 -0.0413  0.3126  0.1239
29542W        W46389  14.479  15.156  14.025 -0.2472  0.0570 -0.0851
29543W        W46390   6.622   0.639   1.004  0.0389  0.0249 -0.2326
29544W        W46391   4.922  10.912  12.237  0.0555  0.0221  0.0613
29545W        W46392  17.718   0.813  13.530 -0.0265  0.1479 -0.0949
29546W        W46393  16.106  10.890   3.075  0.0645  0.0279 -0.3890
29547W        W46394   0.308   2.161   2.395  0.2062  0.0739 -0.3266
29548W        W46395  14.768  17.638   2.068 -0.0436 -0.0985  0.0518
29549W        W46396   4.736  11.405   3.027 -0.5731  0.1592 -0.4048
29550W        W46397  15.152   8.638  12.005 -0.1933 -0.1620 -0.3791
29551W        W46398   3.117   1.068  13.926 -0.3156 -0.1257  0.0093
29552W        W46399   1.053  16.713  12.900  0.0001 -0.1882  0.2053
29553W        W46400  10.363  12.546   3.355  0.0143  0.2429  0.2167
29554W        W46401  11.889   4.821  12.186  0.0244 -0.1402  0.1867
29555W        W46402  12.666  10.162  13.787  0.4866  0.1969 -0.0170
29556W        W46403   9.193  16.245  14.995  0.1397  0.0574 -0.1248
29557W        W46404   1.484   8.893   1.714 -0.0702  0.0348  0.3134
29558W        W46405   6.533  18.108   3.016  0.1803  0.3858 -0.1153
29559W        W46406  15.037   6.183   3.625  0.0826 -0.1584 -0.3101
29560W        W46407   2.906  16.521   2.525  0.0532  0.0334  0.1505
29561W        W46408  10.771   6.059   1.811 -0.1838 -0.0486  0.1204
29562W        W46409   6.804   9.295  13.632 -0.2109 -0.1106 -0.1200
29563W        W46410   5.258   6.251   4.460  0.0298 -0.1914  0.0369
29564W        W46411   7.348   1.118  11.580  0.0068  0.1854  0.1497
29565W        W46412   9.546  15.338  14.686  0.1528  0.0237 -0.3687
29566W        W46413  14.484   2.623   5.187  0.0856  0.2080  0.1760
29567W        W46414   6.205  16.580  16.566  0.2262 -0.1655  0.0136
29568W        W46415  14.822   0.591  15.305 -0.0196 -0.2452  0.1729
29569W        W46416  15.702  18.090   1.880  0.1098  0.0546  0.2025
29570W        W46417   1.531   0.770   1.297  0.1640  0.0308 -0.4638
29571W        W46418   7.545  13.069   1.064 -0.1207  0.1551 -0.1798
29572W        W46419   8.359   8.348  13.666 -0.1585  0.2146 -0.1089
29573W        W46420  18.051  13.078   4.660  0.4375 -0.1032  0.0112
29574W        W46421   7.379   1.570  14.764 -0.0234 -0.0627  0.0304
29575W        W46422  10.495   8.448  14.277  0.0531 -0.0175  0.0853
29576W        W46423  17.733   9.946  15.187 -0.1314  0.0635  0.0615
29577W        W46424   2.998   3.751  14.844  0.0574  0.1150 -0.1961
29578W        W46425   4.709  14.470  14.277 -0.2331  0.3249 -0.0851
29579W        W46426  16.108  10.087   3.644 -0.1214 -0.1269  0.1144
29580W        W46427   6.950  15.698  13.254  0.1747  0.2770 -0.2446
29581W        W46428  13.124   4.238   1.486  0.2385  0.0729  0.0606
29582W        W46429   9.203  11.985   2.142  0.2961  0.2321  0.1676
29583W        W46430   4.781   5.890   2.255 -0.0407 -0.0265 -0.1596
29584W        W46431   3.976  10.171  12.593 -0.0133 -0.0067  0.1077
29585W        W46432  10.705   1.055   4.744 -0.0863 -0.0619 -0.1443
29586W        W46433   0.635  12.399   4.103  0.0772 -0.0442 -0.0875
29587W        W46434  16.767   2.097  15.588  0.0234  0.0724 -0.0335
29588W        W46435  11.343   5.469   0.205 -0.0579  0.2315 -0.2270
29589W        W46436   3.299  16.932   5.110 -0.1682  0.0698  0.1286
29590W        W46437   9.321   8.926  10.050  0.0310 -0.0303 -0.2403
29591W        W46438   2.473  16.956   3.539  0.0381 -0.3821  0.1496
29592W        W46439   2.715   2.437   2.185 -0.1346  0.0136 -0.1428
29593W        W46440  14.574   9.893  14.043  0.0639 -0.0598 -0.1839
29594W        W46441   5.317   3.247  11.754 -0.0343 -0.1761 -0.0073
29595W        W46442  13.421   5.164  15.475  0.0110 -0.1157  0.0508
29596W        W46443  16.079   6.814  13.736  0.1881  0.0543  0.1344
29597W        W46444   8.647   9.946   1.959  0.1058 -0.2211 -0.3667
29598W        W46445  14.947   1.513  15.673  0.2391  0.0850  0.0161
29599W        W46446  12.020  13.098  12.917 -0.0579  0.4000 -0.1446
29600W        W46447   6.388  13.456   2.723  0.0172  0.3297  0.2763
29601W        W46448   2.797  15.168   1.560  0.0818  0.0166  0.1409
29602W        W46449  16.274   8.486  15.806  0.0270 -0.1693  0.0516
29603W        W46450   5.631  15.744   3.922  0.1888 -0.0587 -0.0698
29604W        W46451   6.416   9.723  16.363 -0.1486  0.2896  0.0624
29605W        W46452  12.809  10.720   3.867  0.0592  0.3368 -0.0398
29606W        W46453   8.415   6.088   4.178 -0.0042 -0.2101  0.0972
29607W        W46454   4.816  16.895  13.836  0.0976 -0.0683 -0.2485
29608W        W46455  15.161   3.319   1.413  0.0550  0.3105  0.0826
29609W        W46456   7.581   0.425   0.294 -0.0650 -0.0875 -0.1801
29610W        W46457   2.682  15.019  12.977 -0.0016  0.0070  0.0214
29611W        W46458   6.100   8.250  15.809  0.1814 -0.2925 -0.1311
29612W        W46459  16.973   8.217   5.227 -0.0230  0.1257 -0.0025
29613W        W46460   2.158   3.923   4.428  0.1369 -0.0251 -0.1647
29614W        W46461  11.850   2.959  14.860  0.1966 -0.0301  0.2581
29615W        W46462   0.331   6.039  14.486  0.2837 -0.4585  0.2594
29616W        W46463   6.093  16.449  13.690 -0.2291  0.4043  0.1900
29617W        W46464   5.439   9.001  14.698 -0.1601  0.0104 -0.1522
29618W        W46465   4.540  12.009   0.090 -0.0150  0.2033  0.0428
29619W        W46466  15.665   6.794  12.465  0.2872 -0.1865  0.0376
29620W        W46467  17.401   6.640  11.821 -0.0592  0.1618  0.2018
29621W        W46468   2.978  18.107   0.233  0.2397 -0.2610  0.1017
29622W        W46469   5.440  17.234   5.679 -0.4050  0.3352  0.2514
29623W        W46470  16.264   5.731  14.055 -0.1908 -0.3256 -0.0084
29624W        W46471   0.975   9.804  15.850  0.3528 -0.2973 -0.2190
29625W        W46472  18.088   4.641   2.001 -0.0307  0.0931 -0.0448
29626W        W46473   8.282   1.961   0.386  0.0574  0.3632 -0.2602
29627W        W46474  11.294  16.509   1.392  0.0598  0.2735 -0.0254
29628W        W46475  11.684  16.177  16.130 -0.2921 -0.0060 -0.3083
29629W        W46476   1.509  15.021  15.638  0.1797  0.3454 -0.1901
29630W        W46477   3.821  13.559  16.381  0.4563 -0.1967 -0.0300
29631W        W46478   1.948  10.052  13.767 -0.3003  0.1346 -0.0604
29632W        W46479  11.306   0.950  14.126  0.1429  0.0699  0.0474
29633W        W46480  17.019   3.261   1.974  0.0925 -0.3310  0.2183
29634W        W46481   3.285   2.772  14.798 -0.0089 -0.2103 -0.0350
29635W        W46482  12.198  10.752  12.983 -0.0568 -0.1878 -0.0198
29636W        W46483  10.289   2.243   3.165  0.1318  0.5676 -0.1343
29637W        W46484  11.105   7.496  11.872 -0.1406  0.1668  0.1115
29638W        W46485   8.971  15.407   2.157  0.1494  0.1487  0.0996
29639W        W46486  12.236  15.463  13.498  0.3287 -0.0144 -0.2820
29640W        W46487   1.323   5.116  14.459 -0.0675  0.1045 -0.1239
29641W        W46488   5.249   8.416   3.873 -0.0663 -0.2285 -0.1881
29642W        W46489  14.241   8.985  16.047  0.0247  0.4565 -0.1823
29643W        W46490  13.784   0.281   3.649 -0.2893 -0.1811  0.1765
29644W        W46491  12.072  14.573   2.339 -0.2355  0.0937  0.0766
29645W        W46492   0.950  15.683   4.666  0.1004 -0.0900  0.0419
29646W        W46493   8.600  14.474   2.405  0.0600 -0.0558 -0.2626
29647W        W46494  14.729  10.787   2.551  0.3698 -0.0147 -0.0048
29648W        W46495  14.676  12.958   1.578  0.1115  0.2935  0.0285
29649W        W46496  16.922  11.100   2.661 -0.1875  0.2338 -0.1901
29650W        W46497  11.211   2.295   2.720  0.1240 -0.2614 -0.2301
29651W        W46498  14.604   4.009  16.475 -0.0172 -0.1934  0.0721
29652W        W46499  17.675  10.742   4.297  0.1859 -0.1198 -0.2414
29653W        W46500  15.614   0.775   1.762  0.1308 -0.0742 -0.0776
29654W        W46501  14.123   1.466   3.907  0.0804 -0.0360 -0.1073
29655W        W46502   3.927  11.617  12.443  0.3439 -0.1820 -0.1406
29656W        W46503   5.015  13.393   4.161 -0.0667  0.0894 -0.0060
29657W        W46504  16.228  11.349  11.995  0.1698 -0.3897 -0.3595
29658W        W46505  14.282  10.823  12.000 -0.3053 -0.1699  0.0806
29659W        W46506  12.121  17.529  11.926  0.1724  0.1054 -0.2702
29660W        W46507  13.902   4.731   0.617 -0.0338  0.1480 -0.1074
29661W        W46508   0.416   9.575  13.241 -0.1000  0.1301  0.0277
29662W        W46509  16.856   8.825  11.634  0.0693  0.1270 -0.2283
29663W        W46510  16.165   7.359  16.221  0.2114 -0.1238  0.0107
29664W        W46511   2.203   4.772   2.425  0.5015  0.0521 -0.2141
29665W        W46512   9.599   6.794   0.947 -0.1027 -0.0448  0.0188
29666W        W46513  11.693  16.055   0.721 -0.0788 -0.0890 -0.0858
29667W        W46514  15.950   6.093   5.488 -0.1500 -0.0083  0.2626
29668W        W46515  14.565   0.352  13.617  0.0484 -0.1256 -0.1660
29669W        W46516   3.534   9.471   1.267 -0.1001 -0.0479 -0.0787
29670W        W46517  12.814   1.454   1.711 -0.0458 -0.1027  0.0289
29671W        W46518  10.813  10.215  11.951 -0.0058 -0.2220  0.4608
29672W        W46519  16.222   9.876  12.585  0.2637 -0.3971  0.0900
29673W        W46520  10.720   5.032  16.135 -0.2089  0.2760 -0.2316
29674W        W46521   3.878   6.599   4.817  0.4342 -0.1995 -0.0117
29675W        W46522   6.389  16.902  16.151  0.0439  0.1123  0.2417
29676W        W46523   7.629   0.565   3.131  0.0160  0.0143  0.1060
29677W        W46524  15.885   6.397  13.598 -0.0995 -0.0438 -0.2144
29678W        W46525   5.441   2.282  16.135  0.1659  0.2176 -0.0480
29679W        W46526   7.771  15.817  11.501 -0.0789  0.2108 -0.1162
29680W        W46527   0.381   6.315   1.691  0.2703 -0.0147 -0.2640
29681W        W46528  12.249  15.003  13.028 -0.1288  0.3801  0.2354
29682W        W46529  16.701   9.978  16.213  0.0892  0.4357 -0.0918
29683W        W46530  14.820   5.387  12.145 -0.1514  0.2990  0.0544
29684W        W46531   3.985   8.263  15.176  0.0847 -0.0115  0.0142
29685W        W46532  12.881  15.606  13.281 -0.2891  0.2340 -0.1379
29686W        W46533   7.305  11.490  13.020 -0.0419 -0.3478  0.3766
29687W        W46534  11.633   0.571  12.649 -0.0772  0.1495 -0.1145
29688W        W46535   2.952   9.393   4.990 -0.1354  0.0701  0.3536
29689W        W46536  16.352   4.531  13.966  0.0087 -0.1232  0.1365
29690W        W46537   2.993   3.390  14.407 -0.1460 -0.0351 -0.1326
29691W        W46538  11.731  16.789  15.668  0.5108  0.0159  0.1589
29692W        W46539  15.310  10.724  12.575  0.0636  0.1153 -0.3871
29693W        W46540  15.036  14.825   1.660 -0.1133  0.0896 -0.0620
29694W        W46541  13.411   2.400  13.243  0.2993  0.0788  0.0670
29695W        W46542   0.136  10.745  12.464 -0.2071  0.2690 -0.2638
29696W        W46543   9.751  13.797  13.203  0.1007  0.2461 -0.1122
29697W        W46544   2.096  11.358   5.483  0.0835  0.1256  0.1357
29698W        W46545   6.261  16.154  14.906 -0.0675  0.1313 -0.0801
29699W        W46546  15.290  13.471   4.415  0.0011  0.0230  0.0449
29700W        W46547  14.568   9.426   1.765 -0.3163  0.2444 -0.3561
29701W        W46548  13.573   5.195  11.929  0.0056 -0.0463 -0.1087
29702W        W46549   2.439   9.152  13.511  0.0805  0.0903 -0.0368
29703W        W46550   3.396  13.107  15.924  0.1706 -0.0217  0.0274
29704W        W46551   4.098  11.880  16.428  0.0846  0.0056 -0.0267
29705W        W46552  12.070  11.040   3.662  0.0155  0.0966  0.1424
29706W        W46553  11.235  11.374  12.686  0.0769 -0.2449 -0.1186
29707W        W46554   7.593   0.198  16.493  0.0311 -0.0767  0.0622
29708W        W46555   3.600  17.737  12.967 -0.3652 -0.0635  0.2558
29709W        W46556  15.494   9.607  15.780  0.0660 -0.0529 -0.2737
29710W        W46557  16.899  15.859   0.366 -0.1638 -0.2120  0.0802
29711W        W46558   9.842   5.769   1.034 -0.0985  0.0341  0.1053
29712W        W46559   5.673   0.187   2.534 -0.1885 -0.1072 -0.0646
29713W        W46560   1.740   6.041   5.774 -0.0843  0.0054 -0.1227
29714W        W46561  16.769  12.505   2.598 -0.2230 -0.1514 -0.1354
29715W        W46562   4.785   6.152   1.256  0.2056  0.1621 -0.0542
29716W        W46563   7.993   6.748  11.866  0.1839  0.0942  0.2895
29717W        W46564   2.088   5.190  11.492  0.1077  0.2472 -0.0836
29718W        W46565   3.350  12.571  15.748 -0.2032 -0.1572 -0.4499
29719W        W46566  16.294   0.192  14.864 -0.1284  0.0939  0.2187
29720W        W46567  17.484  14.697  14.532  0.0875  0.1939  0.4175
29721W        W46568  16.864  14.444   3.947  0.0058  0.0022  0.0429
29722W        W46569  10.158  14.632   1.992  0.1037 -0.4082 -0.0426
29723W        W46570   5.002  12.616  11.982 -0.1874 -0.0522 -0.1465
29724W        W46571   8.711   4.280   5.280 -0.5763  0.0483 -0.2219
29725W        W46572   1.739  16.619   4.147  0.2081 -0.5265  0.4031
29726W        W46573   9.120   4.845  13.849  0.1505  0.1005 -0.2486
29727W        W46574   5.300  11.817  12.567  0.1257 -0.0357  0.0858
29728W        W46575   5.707   7.199  16.108 -0.1028  0.0365 -0.1406
29729W        W46576   2.783  14.678   3.644 -0.0319  0.0222 -0.1116
29730W        W46577   5.655   3.062   4.848 -0.0658 -0.0107  0.0252
29731W        W46578  11.530  12.594  12.022 -0.0665 -0.0765 -0.1180
29732W        W46579  15.702  15.709   5.084 -0.3953 -0.1780  0.0631
29733W        W46580   6.846  15.591  11.274 -0.1813 -0.1101 -0.1644
29734W        W46581  10.699  11.355  12.803  0.0523  0.1450  0.0688
29735W        W46582   9.472  14.307   2.790  0.1291 -0.1547  0.1548
29736W        W46583   8.485   4.653   0.965  0.0544 -0.2809 -0.4206
29737W        W46584   2.446   9.936   5.622 -0.0812  0.2254 -0.0447
29738W        W46585  14.717   5.835   1.588 -0.2822 -0.1894  0.3243
29739W        W46586  15.463  13.240  16.076 -0.0143 -0.1601 -0.3796
29740W        W46587   0.777  13.264  14.424  0.1842 -0.1993 -0.0407
29741W        W46588  15.901   3.026  15.996 -0.1844  0.0602 -0.0736
29742W        W46589  12.975  13.799  13.453  0.3840  0.0446 -0.0450
29743W        W46590   9.448   2.995   4.387  0.4264 -0.0926  0.0018
29744W        W46591   6.016   8.958   1.840 -0.2769 -0.0882  0.2042
29745W        W46592   5.208   7.799   1.437 -0.0391  0.1590 -0.3998
29746W        W46593   5.205   2.697  16.020  0.1144  0.2150 -0.2625
29747W        W46594   4.783  10.605  16.323  0.1335 -0.2447  0.2790
29748W        W46595   6.778  14.172   0.868 -0.1845  0.2253 -0.1256
29749W        W46596  15.002  10.088  12.029  0.1450 -0.1474  0.2056
29750W        W46597  11.845   6.007  14.349 -0.2123 -0.1517  0.0824
29751W        W46598  18.069   5.281  11.702  0.0313  0.0202 -0.0774
29752W        W46599   0.043  18.171  15.070 -0.1376  0.4174 -0.3150
29753W        W46600   1.189  15.186   3.593  0.0804 -0.2253 -0.0120
29754W        W46601  13.192  16.194   4.309 -0.0773  0.2566  0.1207
29755W        W46602   7.584  14.264   4.941  0.0831  0.4437  0.0563
29756W        W46603   2.843  11.774  14.452 -0.0696 -0.0396  0.0416
29757W        W46604  13.527  16.612  12.591  0.1990  0.1598 -0.1993
29758W        W46605   4.721  11.610   2.548  0.3953  0.1407  0.2431
29759W        W46606  13.626   9.043   5.024 -0.1039 -0.0340 -0.1894
29760W        W46607  18.129  16.184   3.776  0.0352  0.1555 -0.1896
29761W        W46608  15.297  16.840   5.484  0.3615  0.0051  0.2206
29762W        W46609  13.605   3.350   2.160  0.0199 -0.2235  0.2215
29763W        W46610   5.597   0.130   3.502  0.3235 -0.0444 -0.3410
29764W        W46611   2.872  15.739   1.127  0.2398 -0.0626 -0.0713
29765W        W46612  11.289   5.255  15.390  0.2122  0.1547  0.0145
29766W        W46613   2.695  16.778  13.858  0.0388 -0.2572 -0.2517
29767W        W46614   9.239  10.688  14.808  0.1233 -0.3261  0.0802
29768W        W46615   9.859   5.831  10.792 -0.1081  0.3373  0.1521
29769W        W46616  11.289  15.872   5.937 -0.1066  0.1262  0.0348
29770W        W46617   4.254   5.183  12.663 -0.0324 -0.0179 -0.1299
29771W        W46618   7.357  13.495  12.146  0.0778 -0.0463  0.2767
29772W        W46619   9.095   5.265  14.401  0.0229  0.1388 -0.0357
29773W        W46620   7.539   4.630  14.488  0.1574 -0.1142 -0.2327
29774W        W46621   1.695   1.693  12.036  0.1947 -0.2110  0.1583
29775W        W46622  15.282   2.079   3.058  0.0986 -0.2164  0.6143
29776W        W46623   9.375  17.010  14.638  0.2289 -0.3626  0.0140
29777W        W46624  13.199   8.604   1.648  0.0031 -0.0546  0.1082
29778W        W46625  10.787  13.042  15.440  0.2569 -0.1948  0.0636
29779W        W46626  16.507  17.907  12.924 -0.0825 -0.4233 -0.1246
29780W        W46627  17.706  13.333  14.645 -0.1094 -0.2636 -0.1736
29781W        W46628  16.809  18.042  16.290 -0.0874 -0.4001  0.0409
29782W        W46629   7.461  16.697   0.692 -0.0910  0.2822 -0.4443
29783W        W46630  15.626  16.752   1.481 -0.1034  0.0745 -0.1424
29784W        W46631  13.393   8.318   3.020 -0.1475  0.1393  0.0730
29785W        W46632  10.526   7.511   0.253 -0.1101 -0.1596  0.2426
29786W        W46633   9.041   4.100   1.205 -0.0028  0.0310 -0.2545
29787W        W46634   2.904   6.723  12.972  0.3142 -0.1387  0.1216
29788W        W46635  15.705   8.054  13.571  0.0877  0.1627 -0.0439
29789W        W46636   5.949  11.802   0.784 -0.0898 -0.0904  0.0457
29790W        W46637  12.808   9.864   1.820  0.2806 -0.0054 -0.2656
29791W        W46638  15.430   6.011  11.434 -0.4397  0.1079 -0.2312
29792W        W46639   4.213  13.043   1.060  0.0071 -0.1773 -0.1483
29793W        W46640  14.057  11.152  16.086 -0.1683 -0.1190 -0.1690
29794W        W46641   5.965  13.848  16.033  0.0940 -0.0426 -0.2279
29795W        W46642   5.142  14.649  14.099 -0.4169  0.1775 -0.0551
29796W        W46643   1.549   6.152   0.419  0.1707 -0.0121 -0.2241
29797W        W46644   2.077  13.421   2.446 -0.0123 -0.0647  0.4435
29798W        W46645   8.573  12.164  14.412 -0.1498  0.0274  0.0013
29799W        W46646   2.410  10.268  12.928  0.1470  0.0262 -0.1706
29800W        W46647  17.663  17.224   2.998  0.0510 -0.0953  0.3603
29801W        W46648  10.035   0.298  11.702  0.0229 -0.0321 -0.1523
29802W        W46649   9.723  16.751  11.866 -0.2019  0.3568  0.1891
29803W        W46650  11.871   9.253   4.180  0.0803 -0.0110 -0.2198
29804W        W46651  12.965  14.321  12.130  0.0595  0.0391 -0.3502
29805W        W46652   7.063   0.635   4.548  0.2131  0.2097  0.1246
29806W        W46653   8.461   3.971  12.371  0.2582  0.1320  0.0317
29807W        W46654   7.530  10.459   0.968 -0.0134  0.0330 -0.0450
29808W        W46655  15.620   6.457   3.703  0.2740  0.1319  0.2135
29809W        W46656  16.957   4.858   2.670 -0.1756  0.0862  0.0450
29810W        W46657   5.507  11.808  16.574  0.0317 -0.2136  0.0885
29811W        W46658  14.729  16.668  12.421 -0.2472  0.0676  0.0047
29812W        W46659  13.633   0.775  13.255  0.0229 -0.2137  0.0084
29813W        W46660  16.951   2.930  14.994  0.2230  0.1217  0.3146
29814W        W46661   9.056   1.348   0.242  0.0923 -0.1026  0.0504
29815W        W46662   5.262  13.831  16.578  0.1017  0.1978 -0.1621
29816W        W46663  10.865   0.189   4.193 -0.0267 -0.1289  0.0046
29817W        W46664   1.189   3.917  16.550  0.3450  0.1107  0.1260
29818W        W46665  15.904  16.443  11.733  0.0362  0.1625  0.0318
29819W        W46666  15.293  13.001   5.210  0.1355 -0.0914 -0.2146
29820W        W46667   1.206   6.892   5.635  0.1801 -0.1542  0.2058
29821W        W46668   2.696  13.964   1.787 -0.2331  0.0970  0.1845
29822W        W46669  10.404   2.887  11.751  0.3411 -0.1971 -0.5260
29823W        W46670   8.758  13.569  15.484 -0.0001  0.0917 -0.1910
29824W        W46671   2.179  16.569   5.181  0.0111  0.2062  0.0895
29825W        W46672  15.230   4.822  13.804 -0.2727  0.3540  0.3315
29826W        W46673  12.262   8.407   0.728  0.1170 -0.2745 -0.2398
29827W        W46674  18.142   4.192  16.416 -0.0031  0.0852  0.1053
29828W        W46675  13.167  14.239  13.728 -0.0068 -0.1159 -0.2323
29829W        W46676  13.690  14.329  15.085 -0.2166  0.0685 -0.0712
29830W        W46677   4.085   8.864  11.500  0.0816  0.1337  0.0168
29831W        W46678   4.839  13.081   4.507  0.0520 -0.3792 -0.0296
29832W        W46679  13.928  13.076  14.804 -0.2257  0.0521 -0.1536
29833W        W46680  13.043   9.719   2.235  0.1051  0.1677  0.0903
29834W        W46681  12.800   3.282  11.816 -0.2547  0.0158  0.0892
29835W        W46682  15.649   4.559   4.787 -0.0912 -0.0884 -0.0481
29836W        W46683  13.600  11.866   5.238 -0.1004 -0.1057 -0.1581
29837W        W46684   9.566  18.104  13.448  0.2039 -0.1409  0.0150
29838W        W46685  16.268   0.502  15.919 -0.0358  0.0650 -0.1395
29839W        W46686  10.825   0.393   3.487 -0.0067 -0.0268  0.0744
29840W        W46687   0.395   1.823  15.591 -0.1293 -0.0169  0.3089
29841W        W46688   8.622  10.829   3.416 -0.2417 -0.0664  0.1115
29842W        W46689   4.263   7.389   1.037  0.1522  0.3201  0.2684
29843W        W46690  17.321   1.460  14.650 -0.1177 -0.0860 -0.0580
29844W        W46691  11.112  10.391   1.717 -0.0601  0.3875 -0.0345
29845W        W46692   2.507  14.390  16.108 -0.0474  0.2616 -0.1517
29846W        W46693  11.633  13.052  11.977 -0.0058 -0.0911 -0.1764
29847W        W46694   8.826  12.530  14.252  0.0105 -0.0694  0.0722
29848W        W46695  12.290  10.728   1.250  0.3645  0.0869 -0.1077
29849W        W46696   8.363   7.312  16.368 -0.0507 -0.0188  0.2108
29850W        W46697   6.574   8.297   4.925 -0.3559 -0.0717 -0.0569
29851W        W46698   9.099  13.027  14.098  0.1683  0.1547 -0.0624
29852W        W46699   6.324   3.743  15.322  0.0146  0.0266 -0.1339
29853W        W46700   4.757  12.145  12.814 -0.1719  0.2077 -0.3553
29854W        W46701  16.074   8.243   2.400  0.0835  0.2026 -0.0839
29855W        W46702   5.966   5.848   0.822 -0.2043  0.2189  0.1605
29856W        W46703  17.424   3.950   1.070  0.0267  0.2328  0.0742
29857W        W46704  18.098  13.667   1.072 -0.2013 -0.1408 -0.2004
29858W        W46705  11.671   1.669   3.360  0.3126  0.1395  0.2117
29859W        W46706  10.705  12.632   1.106 -0.0547 -0.0763 -0.0506
29860W        W46707   0.284   5.266   4.055 -0.0211  0.4683 -0.2617
29861W        W46708   0.553  13.335   2.847 -0.0420 -0.4877  0.2770
29862W        W46709  15.615  15.797  12.449 -0.1686 -0.0459 -0.0449
29863W        W46710  17.058  14.419   2.691  0.3179 -0.0768 -0.0646
29864W        W46711   8.114   1.037  13.947 -0.2220 -0.1411  0.0296
29865W        W46712  12.750   5.849  11.541 -0.1023  0.0425 -0.2836
29866W        W46713   4.198  16.042  14.306  0.1039 -0.1772  0.2453
29867W        W46714   2.492  15.627  10.959 -0.4314  0.1438 -0.0430
29868W        W46715   8.107  16.182   2.612  0.1201  0.1345 -0.0422
29869W        W46716   8.108   7.823  14.904 -0.0028  0.1213 -0.0193
29870W        W46717  12.370  11.305  15.975 -0.2047 -0.0080  0.1337
29871W        W46718   6.900   0.602  15.095  0.0620 -0.1800 -0.1018
29872W        W46719   0.244  11.030   2.858  0.1746 -0.0978 -0.0152
29873W        W46720  12.043   0.120   1.919  0.1015  0.0137  0.1124
29874W        W46721  11.862   6.525   3.983  0.0911 -0.0883 -0.0542
29875W        W46722   1.561   0.441   2.934  0.1368 -0.2181  0.0328
29876W        W46723  14.002   0.106  15.945 -0.0039  0.0639  0.1057
29877W        W46724  12.595   5.074   1.477  0.2052 -0.0004  0.0463
29878W        W46725  10.391  14.540  12.127 -0.2072  0.1914 -0.1097
29879W        W46726  14.294  16.537   0.361 -0.2055 -0.1216 -0.1304
29880W        W46727   5.957  15.292   1.938  0.1198 -0.0900  0.0255
29881W        W46728   4.456   6.290  16.191  0.0386  0.1776  0.1115
29882W        W46729   8.178   6.944  13.404  0.2504 -0.3550 -0.0469
29883W        W46730  10.903   2.172   3.918 -0.0715 -0.0140 -0.0465
29884W        W46731  16.846  10.747   2.256  0.0936 -0.2976  0.1849
29885W        W46732  10.543  10.358   4.541 -0.0053  0.0662 -0.1382
29886W        W46733   8.086   8.129  13.230 -0.0419  0.1108  0.0228
29887W        W46734  15.928  15.103   5.775  0.0238  0.2052  0.0531
29888W        W46735   1.403   9.949   4.055  0.3792 -0.0091 -0.0314
29889W        W46736   7.148   2.865  15.494 -0.2253 -0.2653  0.1963
29890W        W46737  14.430  18.072   1.191  0.0257  0.1517  0.0240
29891W        W46738  13.762  13.411   2.201 -0.1909 -0.1888 -0.1415
29892W        W46739  16.023   1.243  14.882 -0.1499 -0.0569  0.0704
29893W        W46740   3.965  16.663  13.626 -0.2986  0.2314  0.0819
29894W        W46741   0.521   8.949   3.462 -0.0569 -0.0606  0.0810
29895W        W46742   0.130   2.766   4.511  0.0762  0.0163  0.0315
29896W        W46743   8.932  14.026  15.940 -0.0748 -0.1043 -0.3031
29897W        W46744  10.195   3.405  11.801 -0.3253  0.0229  0.1935
29898W        W46745   1.172   2.537   5.235  0.2399 -0.0092 -0.1256
29899W        W46746   2.330  11.076  11.833  0.1158  0.0124  0.0668
29900W        W46747  17.868   6.892  14.647  0.1298 -0.2584 -0.3440
29901W        W46748   6.759   4.658  14.529  0.1856  0.1423 -0.0265
29902W        W46749   5.628  14.262  14.272 -0.0778  0.1307 -0.3245
29903W        W46750  15.289  14.665  15.939  0.3075  0.0378 -0.3143
29904W        W46751  11.783  17.866   1.903  0.3094  0.0698 -0.2983
29905W        W46752   6.339  11.100   5.442 -0.0962 -0.2990 -0.0823
29906W        W46753  12.506   8.682  14.944 -0.1605  0.1355 -0.2159
29907W        W46754   3.787   4.031   0.356 -0.4042 -0.3543  0.0871
29908W        W46755  14.216   3.457   3.920  0.2827 -0.0136 -0.0670
29909W        W46756   3.306  14.465  14.395 -0.0279  0.2944  0.0536
29910W        W46757  17.869   7.502  13.897 -0.2162 -0.0261  0.3813
29911W        W46758   1.808  17.409  15.384  0.1534 -0.0414  0.0306
29912W        W46759   9.506   4.040  15.617  0.2110 -0.1793  0.2481
29913W        W46760  12.407   0.367   5.579  0.0996  0.4145 -0.0536
29914W        W46761  13.867   5.216  16.379 -0.0760  0.0527  0.3727
29915W        W46762   4.583   7.029  15.450  0.1693  0.1947 -0.0284
29916W        W46763   4.466   3.308  15.106  0.3580  0.1306 -0.0697
29917W        W46764  15.335  16.046   4.985 -0.0206 -0.0420 -0.2166
29918W        W46765  17.673   8.708  15.201 -0.0888  0.1685  0.4514
29919W        W46766  14.201  13.879   5.086 -0.0544 -0.1009  0.2548
29920W        W46767  12.614   0.418   5.079  0.2791  0.1987 -0.0542
29921W        W46768  16.323  18.143  14.320 -0.1084 -0.0987 -0.1375
29922W        W46769  17.775   1.496  11.824  0.0173 -0.1740  0.0431
29923W        W46770  11.027  12.966   4.195 -0.0441  0.0978  0.4659
29924W        W46771  15.807  12.041  13.837  0.2801 -0.1023 -0.0788
29925W        W46772   0.237   7.388   4.557 -0.0644  0.0387 -0.1236
29926W        W46773   4.967  14.884   0.707  0.1889  0.0139 -0.0054
29927W        W46774   0.106   1.211  13.478 -0.0719 -0.0270 -0.1427
29928W        W46775   4.836   0.079   4.875  0.2196 -0.1006  0.0687
29929W        W46776  15.044   0.063  11.534 -0.0776  0.1619  0.1141
29930W        W46777   9.528  16.679  10.653 -0.3027  0.1480  0.1138
29931W        W46778  17.127  16.738   4.846  0.2050 -0.0695  0.1180
29932W        W46779   2.559  11.612   3.956  0.0319 -0.2617  0.2336
29933W        W46780   3.196  17.749   4.097 -0.6391 -0.0302  0.2204
29934W        W46781  11.030  10.502   3.930  0.1184 -0.3364 -0.3853
29935W        W46782  10.905  11.133  15.056 -0.1693 -0.2289  0.2217
29936W        W46783   7.151   4.282  12.358 -0.4243  0.2156 -0.0189
29937W        W46784  13.234   8.824   1.217 -0.0519  0.0560 -0.3406
29938W        W46785   8.778   0.486  14.855 -0.2851 -0.0330 -0.4969
29939W        W46786   9.048  11.867  16.470  0.2255 -0.0398 -0.2583
29940W        W46787  14.320   2.380   4.299 -0.0761  0.4355  0.1910
29941W        W46788   0.900   4.693  16.052  0.1825 -0.1352 -0.1189
29942W        W46789  14.243  16.182  15.244  0.1181  0.1431 -0.1410
29943W        W46790  15.906   3.238  13.795 -0.0158 -0.0902  0.1093
29944W        W46791  16.696  12.477   0.882 -0.2022  0.0790 -0.2183
29945W        W46792  10.526   4.270   3.571  0.1414  0.1427 -0.1972
29946W        W46793  17.795   1.807   2.048  0.0706  0.2323  0.0804
29947W        W46794   6.651  12.780   0.953  0.0292 -0.2681 -0.2297
29948W        W46795   5.633   6.797   0.756 -0.3115  0.0900 -0.2992
29949W        W46796  11.676  11.312   1.053  0.0611 -0.0635  0.0453
29950W        W46797  10.853   4.569  16.224  0.2644 -0.2054 -0.1416
29951W        W46798   3.314  14.372   6.105 -0.1131 -0.0697 -0.5083
29952W        W46799   9.619   3.077   0.392 -0.3727  0.2346  0.0268
29953W        W46800  12.458  12.228   5.737  0.3426  0.0669 -0.0386
29954W        W46801   2.620   8.513  15.043 -0.1992 -0.1451 -0.1070
29955W        W46802  15.088  11.313  16.130 -0.2461 -0.0992 -0.0312
29956W        W46803   9.593   8.555  16.369  0.2291  0.3658 -0.0687
29957W        W46804   1.698  16.400   6.149  0.0748 -0.1734  0.1694
29958W        W46805  10.414   8.040  14.676  0.0065 -0.3041  0.1631
29959W        W46806  12.269  13.067   4.888 -0.2342  0.0362 -0.0772
29960W        W46807  10.765   3.663  13.740 -0.1367  0.2161  0.0186
29961W        W46808  15.655  10.533   2.013  0.2402 -0.2810  0.0526
29962W        W46809  16.721   0.352  14.477 -0.2432  0.2345  0.0370
29963W        W46810  15.565  14.107   2.253  0.5056  0.0060  0.1404
29964W        W46811   0.158  11.134  15.834  0.1071 -0.1015 -0.0405
29965W        W46812  13.675  14.578   5.429  0.3742 -0.1566  0.1315
29966W        W46813  13.022  17.117   4.397  0.2700  0.0671  0.0339
29967W        W46814   2.671  14.326   6.210 -0.3741 -0.1712 -0.1375
29968W        W46815   3.302  14.579  12.881  0.4987  0.1368 -0.0423
29969W        W46816   3.138  17.690  12.738  0.5568  0.3478  0.1960
29970W        W46817  10.607  12.244   4.958  0.0225  0.3022 -0.1234
29971W        W46818  12.612   9.075   5.068 -0.3378 -0.0756  0.0331
29972W        W46819   3.546   4.405  12.599  0.1123 -0.0804  0.0217
29973W        W46820   2.875   2.450   5.636  0.2998  0.0852  0.0211
29974W        W46821   0.335  15.562  15.423 -0.1616 -0.0506 -0.0018
29975W        W46822  12.507  13.055   5.942 -0.4487 -0.1593 -0.1537
29976W        W46823  11.998  12.491  15.767  0.0286 -0.2621  0.0387
29977W        W46824   6.830   5.795  15.412  0.1973  0.0525 -0.0373
29978W        W46825  15.558   9.007   4.182 -0.1057 -0.7408  0.1753
29979W        W46826   1.816  16.097   4.424  0.0478  0.0964 -0.2308
29980W        W46827   4.841  16.831  15.186  0.4202 -0.2896 -0.0552
29981W        W46828   4.859   6.701   5.942 -0.0189 -0.1172  0.0415
29982W        W46829  14.992   7.777   5.429 -0.3254 -0.0330  0.1820
29983W        W46830  12.627   2.607   4.491  0.0177 -0.1772  0.1326
29984W        W46831   2.424   4.677   3.360  0.0991  0.1241 -0.3463
29985W        W46832  16.995  16.085  12.368 -0.0049  0.1496  0.0477
29986W        W46833   4.000   1.953   4.164  0.1816 -0.0225  0.1220
29987W        W46834  14.830  12.762  12.093  0.1222  0.1838  0.4269
29988W        W46835   1.860   0.587  16.261  0.1045  0.3367  0.4428
29989W        W46836  17.582  14.624  15.549  0.0665 -0.0676 -0.2223
29990W        W46837   1.045   1.156   3.526  0.1814  0.0824 -0.0507
29991W        W46838   2.349   3.462   4.734  0.0755  0.1343 -0.2254
29992W        W46839   6.755   8.005  11.371 -0.2644 -0.2266 -0.0405
29993W        W46840   2.934  11.060   5.447  0.3271 -0.2553  0.1802
29994W        W46841  13.615   0.296  15.636 -0.0276  0.4315  0.0158
29995W        W46842   0.930   8.106   4.545  0.2335 -0.1155  0.0327
29996W        W46843  14.620   9.158   4.159  0.1843  0.3253 -0.3216
29997W        W46844  11.633  11.894   3.025 -0.0049 -0.2892  0.3056
29998W        W46845  11.549   2.266   2.235  0.1965 -0.0699 -0.0049
29999W        W46846   4.686   6.572  13.966 -0.0737  0.0757 -0.3964
30000W        W46847   2.558  11.333  14.409 -0.1289 -0.3197 -0.2062
30001W        W46848   3.039  11.917  13.986  0.1155  0.2360  0.1255
30002W        W46849   0.046   3.710  11.815 -0.2492 -0.0606  0.1945
30003W        W46850  11.071   6.458   1.831  0.0927  0.1134  0.1000
30004W        W46851   8.173   7.399  15.296  0.0617  0.2393  0.2272
30005W        W46852  17.575  12.656   4.048  0.2485  0.1288  0.2568
30006W        W46853   6.484  10.860   2.247 -0.1708 -0.2309  0.0853
30007W        W46854   7.272   2.267   5.335 -0.1445  0.1904  0.1086
30008W        W46855  17.240   5.708  11.953  0.0491 -0.2211 -0.0154
30009W        W46856  14.206  13.510   6.034 -0.0055 -0.1411 -0.2528
30010W        W46857   6.286   8.635   4.621 -0.1601 -0.2507 -0.2842
30011W        W46858   9.690  16.293   2.568  0.1685  0.1278 -0.2313
30012W        W46859   6.330   3.628  12.548  0.2165 -0.2557  0.1524
30013W        W46860   6.638  15.752   1.708  0.0270 -0.0584  0.0994
30014W        W46861  15.412   6.828  14.135 -0.2358  0.1488  0.0992
30015W        W46862  11.252  15.407  16.167  0.2374  0.0666  0.1432
30016W        W46863   9.344   3.735  14.975 -0.0088  0.1310  0.0067
30017W        W46864  13.056  15.763   1.319 -0.0541  0.0032 -0.1601
30018W        W46865  12.260  13.830   1.189  0.0661  0.2339 -0.0753
30019W        W46866   2.574  15.348   5.785  0.1531  0.0775 -0.2043
30020W        W46867   4.201  13.350   2.417  0.0926  0.1924 -0.2312
30021W        W46868   5.154   1.797   3.834 -0.0624 -0.0873  0.0889
30022W        W46869   8.280  17.140   4.288 -0.0913 -0.1692  0.0820
30023W        W46870   8.548  10.876  12.036 -0.1931 -0.1237  0.0188
30024W        W46871   4.665  17.514   4.016 -0.0041 -0.2093  0.0422
30025W        W46872  11.027   3.828   4.381 -0.3016  0.1679  0.1585
30026W        W46873   3.106  13.304  15.583  0.0008 -0.2242 -0.0368
30027W        W46874  14.582  17.692   2.625 -0.0092  0.2513 -0.3397
30028W        W46875   2.542   4.672   0.113  0.0810 -0.1198 -0.0997
30029W        W46876  12.088  16.331  13.838  0.0603  0.2052 -0.0284
30030W        W46877   9.386   8.269   2.091  0.1860  0.0056  0.2175
30031W        W46878  11.605  15.161   1.481 -0.2363  0.3332 -0.1793
30032W        W46879  16.801   6.505  14.151  0.0308  0.0488 -0.0492
30033W        W46880  16.531   7.899  11.945 -0.2840 -0.0301  0.2698
30034W        W46881   9.535   4.600  13.478  0.1321 -0.1330  0.1323
30035W        W46882   0.345   6.073  15.519  0.1707  0.1204 -0.2981
30036W        W46883   6.875  18.111   4.125  0.0231  0.0193 -0.2068
30037W        W46884   8.612   9.065   5.273 -0.1388 -0.1036 -0.0085
30038W        W46885   3.329  10.115  13.713 -0.0623  0.0128 -0.1244
30039W        W46886   3.452  10.135   2.901  0.2519  0.4020 -0.0155
30040W        W46887   3.643   2.337   3.427 -0.0235 -0.2508  0.1838
30041W        W46888   9.637   1.306   4.167 -0.0262  0.5047 -0.1781
30042W        W46889   8.128   7.310   5.162 -0.0052  0.0754 -0.0783
30043W        W46890   3.050  15.208  14.705  0.1919 -0.2144  0.0886
30044W        W46891   5.128   9.652   1.699  0.1196  0.0715  0.2449
30045W        W46892   7.241   6.592  14.346  0.0300  0.0490  0.2550
30046W        W46893   6.284  10.318  14.984 -0.2672  0.1024 -0.1428
30047W        W46894  11.804  13.649   0.990 -0.0415  0.2576  0.2696
30048W        W46895   4.751  13.440  13.522  0.1771 -0.0601 -0.1500
30049W        W46896   7.254   7.578  12.974 -0.0133 -0.1070  0.0930
30050W        W46897  11.721   3.245  15.604 -0.2311 -0.1519 -0.4291
30051W        W46898   2.721  17.044  14.547  0.2243 -0.0321  0.2236
30052W        W46899  11.365  17.981   3.853  0.0007 -0.2269 -0.2307
30053W        W46900   5.506  12.030   2.814 -0.2256  0.2982 -0.5045
30054W        W46901   1.343   9.827   5.454 -0.1559  0.2012  0.2322
30055W        W46902   7.921  14.525   4.654 -0.2438  0.1375  0.0542
30056W        W46903   2.456  11.427   1.045  0.2280  0.3952  0.0849
30057W        W46904   3.748   7.074  12.491  0.1005  0.0846 -0.0297
30058W        W46905   6.446   6.200   0.297  0.1988 -0.1973  0.1109
30059W        W46906   0.741   8.771  13.501 -0.0838 -0.2009 -0.0248
30060W        W46907  17.978  15.923  15.816 -0.0351  0.0549 -0.0636
30061W        W46908   1.749   4.920  15.765  0.2750  0.3661  0.1239
30062W        W46909   1.329  10.684   1.638 -0.0359  0.0064  0.0401
30063W        W46910   9.176   1.468  15.581 -0.0082 -0.2750  0.1735
30064W        W46911  14.257  17.261   0.305  0.1945 -0.0226  0.4007
30065W        W46912  14.463   7.389  12.223  0.2946  0.0839  0.1247
30066W        W46913   1.011   9.084   1.754 -0.2823 -0.0076  0.2055
30067W        W46914   4.854   3.679  13.854 -0.2109  0.2618  0.0179
30068W        W46915  11.899   5.818   3.791 -0.0001 -0.3775  0.1384
30069W        W46916  15.255  16.045   4.277  0.1325  0.0966 -0.0519
30070W        W46917   4.919  13.615   5.977 -0.3149 -0.1006 -0.1012
30071W        W46918  15.035  17.798  14.695  0.1342  0.2995 -0.1144
30072W        W46919  15.623   3.702   4.232 -0.0327  0.0484  0.1840
30073W        W46920   6.089   8.389  15.157  0.3721  0.0456  0.0433
30074W        W46921   9.031   5.448  16.574  0.1030 -0.2233  0.0556
30075W        W46922  11.966   4.953   3.854  0.3423  0.0966 -0.0610
30076W        W46923   7.439   2.874   1.167 -0.3886  0.1258 -0.1776
30077W        W46924  17.083  11.813  15.898  0.4816 -0.0425 -0.3461
30078W        W46925  13.734   9.561   1.588 -0.0284 -0.1085 -0.1197
30079W        W46926  12.450   4.299  12.628 -0.1356 -0.0478 -0.0865
30080W        W46927  14.082   3.227   2.144  0.1291 -0.1077  0.0738
30081W        W46928   2.646   5.301  15.897 -0.0811  0.2490 -0.3183
30082W        W46929  15.482  12.111  14.202  0.0327 -0.0130 -0.2349
30083W        W46930   4.560  11.772   1.061  0.1693  0.0649  0.0695
30084W        W46931   5.741  17.409   1.660  0.2099  0.3228  0.1287
30085W        W46932   0.969   3.770  15.100 -0.1032 -0.0043 -0.0864
30086W        W46933  11.161  16.563  14.642 -0.0768  0.2964  0.1238
30087W        W46934  12.281  13.022  15.542  0.0398 -0.2803 -0.1629
30088W        W46935   6.123  17.283  12.048  0.1664 -0.1095 -0.2114
30089W        W46936  14.095   2.621   0.700  0.1093  0.0954  0.0117
30090W        W46937   7.054   8.781  11.848  0.1607  0.0571 -0.0523
30091W        W46938  11.069   7.184   2.497 -0.1201 -0.0203  0.0109
30092W        W46939  13.084  13.028  16.226 -0.0572  0.2825  0.2331
30093W        W46940   8.968  15.628  14.484 -0.0299  0.0012  0.0326
30094W        W46941   1.670  10.296   1.166  0.0215 -0.0751 -0.2112
30095W        W46942  16.373  10.500  11.784 -0.0694  0.1513 -0.0218
30096W        W46943   9.687   8.046   4.814 -0.0432  0.0442 -0.0135
30097W        W46944  17.023  11.270   1.324  0.0267  0.0716 -0.0632
30098W        W46945  15.218   0.985   4.906 -0.0004  0.1843  0.0035
30099W        W46946  12.796   8.510   5.126 -0.1976 -0.0883  0.1075
30100W        W46947   1.981   9.072  15.851  0.3661  0.0570  0.3127
30101W        W46948   8.986  12.719  15.030 -0.1609 -0.0115 -0.0166
30102W        W46949  11.692   9.580   3.247 -0.3532 -0.3012 -0.4212
30103W        W46950  10.108   1.216   0.086  0.0410 -0.1263 -0.0984
30104W        W46951   5.512  11.579  11.648  0.0052 -0.1793 -0.2151
30105W        W46952   0.538  17.821   4.956  0.2414  0.2288  0.0346
30106W        W46953   8.986   8.574  16.113  0.0177  0.0736  0.1691
30107W        W46954   0.671  17.973  16.279  0.2595  0.1683  0.0724
30108W        W46955  12.965  17.360   1.502 -0.0389  0.1476  0.0542
30109W        W46956   1.899  17.951   4.319 -0.0838 -0.1922 -0.0668
30110W        W46957   2.342  11.791   0.184  0.0364  0.1391 -0.2856
30111W        W46958   5.361  15.138   5.737 -0.1323 -0.1173  0.2659
30112W        W46959  15.193   7.966  13.826 -0.0007 -0.0456 -0.3436
30113W        W46960   5.489   6.552   3.286  0.0716  0.0005 -0.0611
30114W        W46961   1.434  10.512  15.826 -0.3160  0.0928  0.0351
30115W        W46962   3.452  18.008   4.503  0.1435 -0.0303 -0.2642
30116W        W46963   4.610   4.733   3.873  0.1383  0.0360 -0.1495
30117W        W46964  11.864   6.497  11.539  0.3972  0.0847  0.1932
30118W        W46965   3.315   5.862   1.521  0.1529  0.0143  0.0691
30119W        W46966  16.404   9.910  14.690 -0.1898  0.0843 -0.0027
30120W        W46967   5.519  14.413   4.612 -0.0932 -0.0173  0.3636
30121W        W46968   4.784  17.594  13.402  0.0037  0.0883 -0.2010
30122W        W46969  15.558   6.751  15.512 -0.0689  0.1256  0.1450
30123W        W46970   8.025   2.408  14.345  0.2501  0.5449  0.1036
30124W        W46971  14.732   1.071  13.592 -0.1053  0.3314  0.1024
30125W        W46972  10.750   7.982   2.777  0.0694 -0.0821  0.3093
30126W        W46973   2.903  16.119   3.368  0.4764  0.0185  0.0548
30127W        W46974   3.136   7.154   1.850 -0.3745 -0.1281  0.1024
30128W        W46975  17.227   4.380  13.639 -0.1922  0.0627  0.0372
30129W        W46976  10.501   4.606   4.376 -0.3489  0.3693  0.1040
30130W        W46977   9.624   5.306   4.032  0.0687  0.0012 -0.1450
30131W        W46978   0.435  15.559  16.419 -0.3341  0.2159 -0.1513
30132W        W46979   2.723   1.145   3.358 -0.2393 -0.0432 -0.1802
30133W        W46980   8.180   4.399   2.735  0.3730  0.1150  0.1968
30134W        W46981  17.378  11.711   1.306 -0.0878  0.0477 -0.3224
30135W        W46982   2.543  10.309   4.720  0.0349 -0.1255 -0.1220
30136W        W46983  10.718  12.127  11.594 -0.0024 -0.1244  0.2579
30137W        W46984   6.582   5.742   0.129  0.2417  0.2126  0.1270
30138W        W46985  17.874  10.033  15.698 -0.1533  0.0300  0.0981
30139W        W46986   0.856  14.781  12.817 -0.0757  0.5700 -0.2713
30140W        W46987   0.912   4.371   0.254  0.1165  0.0919 -0.0521
30141W        W46988  14.208   5.122  14.681 -0.0524  0.2674  0.0205
30142W        W46989  16.383   0.175  15.592 -0.0347  0.3739 -0.1165
30143W        W46990   1.378  13.995   4.543  0.1530 -0.0506  0.3371
30144W        W46991   3.371  13.720   5.761 -0.0644 -0.0172  0.0359
30145W        W46992  11.886  16.810   0.000 -0.1253  0.0452  0.0946
30146W        W46993  15.146   6.611   3.827 -0.0635  0.1065  0.2014
30147W        W46994   3.532  16.400  13.669 -0.0083 -0.1030  0.1354
30148W        W46995  11.955  15.082   0.927  0.0504  0.2227 -0.4165
30149W        W46996   4.113   0.916   2.669 -0.0395  0.0917 -0.0177
30150W        W46997  13.703   5.649  13.956 -0.1463 -0.2274 -0.1441
30151W        W46998   3.805   6.590   1.160  0.1055  0.2874  0.0190
30152W        W46999   8.052  10.276   0.998 -0.2186  0.1497 -0.5306
30153W        W47000   0.133   3.885   3.234 -0.1434 -0.3200 -0.0569
30154W        W47001   5.399  12.317  15.224 -0.0165  0.1597 -0.0231
30155W        W47002   2.986   3.178  14.910 -0.0427  0.0821 -0.0305
30156W        W47003   4.034  14.372   0.453 -0.3779  0.2056  0.1353
30157W        W47004  12.060   4.865  15.226 -0.1905  0.0539  0.0888
30158W        W47005   7.196  11.454  15.263 -0.5080  0.0564  0.1512
30159W        W47006   3.358  15.076  13.780 -0.0515  0.0131  0.0366
30160W        W47007   0.865  11.883  11.379 -0.5167  0.1951 -0.3645
30161W        W47008   9.293   9.875   1.275 -0.1386 -0.0953 -0.0258
30162W        W47009   2.923   5.943  16.408  0.1207  0.1025  0.1208
30163W        W47010   8.978  12.358   3.512  0.1238 -0.0996  0.0128
30164W        W47011  15.713  17.437  14.623  0.3875  0.3710 -0.2711
30165W        W47012   3.531   4.655   0.974  0.2189 -0.0619 -0.3414
30166W        W47013  11.581   1.809  12.237 -0.0686 -0.2985  0.1410
30167W        W47014   6.450   3.357   3.775 -0.0516  0.1234  0.1690
30168W        W47015   0.396  12.473  16.345 -0.2345 -0.2416  0.0411
30169W        W47016  15.960   5.619   1.507  0.1776 -0.1862  0.0416
30170W        W47017  14.621  17.228   6.007  0.0053 -0.0513 -0.2276
30171W        W47018  17.238   7.226  15.165  0.1248 -0.3746 -0.2015
30172W        W47019  11.995  15.939  13.083 -0.1620 -0.0272 -0.1496
30173W        W47020  11.359   9.625   1.324 -0.1243  0.0140 -0.2216
30174W        W47021   0.062  12.665   4.958  0.3632 -0.0182  0.1712
30175W        W47022  15.294  13.760   1.589  0.2828 -0.0063 -0.0434
30176W        W47023  17.732  14.010   0.215  0.1049  0.2896 -0.0269
30177W        W47024   1.501  11.287  16.429  0.0672  0.1235 -0.0704
30178W        W47025   3.846  11.754  15.325 -0.0445 -0.2398 -0.1771
30179W        W47026  16.477   1.485   0.729  0.0697  0.2037  0.1326
30180W        W47027  14.660  12.778  16.336 -0.0912 -0.3124  0.1446
30181W        W47028   0.072   7.995   6.197  0.0741  0.3770 -0.0763
30182W        W47029   9.520   9.559  14.329 -0.0369 -0.1078 -0.0078
30183W        W47030  14.238   1.977  14.237  0.0762  0.1849  0.0065
30184W        W47031   8.666   8.932  16.292 -0.1672  0.1898 -0.0191
30185W        W47032  17.170  11.691   5.128 -0.0854  0.1429  0.2279
30186W        W47033  15.666   7.509   2.884 -0.0378 -0.1086 -0.3036
30187W        W47034  14.767  13.923   3.090 -0.1706  0.0596 -0.1189
30188W        W47035  10.750   2.513   4.277 -0.2394  0.1215  0.3090
30189W        W47036   8.628   9.421   3.884 -0.2485  0.3583  0.1046
30190W        W47037   3.888  13.929   0.600  0.0232 -0.1202  0.0543
30191W        W47038   6.824  13.475  15.875  0.0640 -0.3977 -0.2252
30192W        W47039   0.164   7.564  13.989  0.0023 -0.0913 -0.0079
30193W        W47040  13.082   1.299   2.446  0.0825 -0.2534 -0.2555
30194W        W47041   9.162   8.156   2.588  0.1749  0.2711  0.0228
30195W        W47042  12.164   3.696   0.296  0.2241 -0.0904  0.4816
30196W        W47043  14.639   8.848   4.916  0.0599  0.0354  0.4568
30197W        W47044   9.347  15.254  13.735  0.1146 -0.2972  0.2361
30198W        W47045  15.370  13.777   2.558 -0.1436  0.2175  0.0450
30199W        W47046   6.297  18.041  15.728 -0.0093  0.4700  0.3500
30200W        W47047   6.103  16.346   5.209  0.3012  0.0026 -0.0252
30201W        W47048  13.748   4.839   3.357 -0.0212 -0.0255 -0.2861
30202W        W47049   4.655   2.289   1.707  0.0940  0.1075 -0.1454
30203W        W47050  17.001   5.983  11.568 -0.0591 -0.0527 -0.2688
30204W        W47051   9.736   9.919  14.585 -0.0139  0.1974 -0.4831
30205W        W47052  14.327  12.712  14.735 -0.3121  0.2290 -0.0301
30206W        W47053   6.414   3.301   0.209  0.1161 -0.0820  0.3335
30207W        W47054   6.785   0.014  14.169 -0.0089  0.3253  0.3983
30208W        W47055  10.911  17.943  12.821 -0.0639  0.0188  0.0855
30209W        W47056  15.231   2.414  13.775 -0.1648 -0.2692  0.1456
30210W        W47057  18.145   1.272   4.863  0.0793 -0.1085  0.0927
30211W        W47058   7.891  16.569   5.352  0.1819 -0.0180 -0.1623
30212W        W47059   0.843  11.460  16.403  0.0066 -0.0257 -0.0920
30213W        W47060   0.785  11.078  13.617 -0.1598 -0.3329  0.3012
30214W        W47061  17.655  13.128  13.859 -0.2855  0.0637  0.3722
30215W        W47062   4.900   6.513  16.001  0.2619  0.1292  0.0737
30216W        W47063   9.593   3.965  12.891  0.0925  0.0864 -0.3255
30217W        W47064  14.715  12.783   3.193  0.2293  0.0930 -0.1447
30218W        W47065  11.313   3.259   1.494 -0.1948  0.0937 -0.2848
30219W        W47066   7.724   4.463  13.916  0.1213 -0.2254  0.0181
30220W        W47067   0.230  17.357   4.753  0.0708 -0.2359 -0.0319
30221W        W47068  14.499  18.111   4.083  0.0567  0.4495  0.1563
30222W        W47069  16.367   5.791  13.049 -0.0232 -0.2033 -0.2987
30223W        W47070  15.698   8.914  14.571  0.0038  0.3098  0.3533
30224W        W47071   3.428   3.435  12.703  0.2795 -0.1484  0.1195
30225W        W47072   3.627  15.518  15.779 -0.3487  0.0119  0.0863
30226W        W47073   5.609   2.401  15.484 -0.2608 -0.0372 -0.2121
30227W        W47074  11.669  16.915   1.811 -0.1108 -0.4227 -0.2669
30228W        W47075   2.796   1.912  11.963 -0.1618 -0.4447 -0.0246
30229W        W47076   3.712   4.948   3.284  0.0634 -0.1543 -0.2449
30230W        W47077  17.167   1.386  16.185  0.1089 -0.1554  0.1174
30231W        W47078   6.119   2.900   2.628  0.2944  0.1926  0.0412
30232W        W47079   4.397   1.688  16.095 -0.0590 -0.0987  0.0825
30233W        W47080   9.309   2.708  15.786 -0.1871  0.0002 -0.1641
30234W        W47081  14.846  12.504  13.095 -0.2722 -0.3534 -0.1373
30235W        W47082   9.720   8.188   2.524  0.1209 -0.3260  0.0579
30236W        W47083   8.962   6.931   2.066  0.0587  0.0862 -0.0482
30237W        W47084   8.848   8.616   5.231  0.2871 -0.1384  0.1707
30238W        W47085  15.361  11.314  14.822  0.0631 -0.1735 -0.1749
30239W        W47086   8.081   4.581  14.912  0.2756  0.1276  0.1734
30240W        W47087   5.682   3.700   0.393 -0.1722 -0.2301  0.1157
30241W        W47088   7.441  10.788  14.008 -0.2678 -0.0020  0.0054
30242W        W47089  14.608   9.229  14.101  0.0681 -0.1311  0.3806
30243W        W47090  15.712   7.983   1.649 -0.1455 -0.0231 -0.1771
30244W        W47091  14.360  12.400   0.818 -0.0472 -0.0641 -0.0204
30245W        W47092   6.010  14.781  14.505  0.0423 -0.1772  0.4821
30246W        W47093  11.823  16.354   3.205 -0.0980  0.0928  0.1685
30247W        W47094   7.309   3.094   2.184  0.0403 -0.1893  0.1735
30248W        W47095   7.959  14.476   3.442  0.0883 -0.2043 -0.3826
30249W        W47096   9.685  17.156   2.472  0.0131 -0.2158  0.1003
30250W        W47097  10.998   6.581   4.230 -0.2011 -0.0984 -0.1986
30251W        W47098   1.587   5.615   3.035 -0.1173 -0.2343  0.0651
30252W        W47099  15.738  10.973  12.444 -0.1133  0.4013 -0.0368
30253W        W47100   0.759  14.112  12.259  0.0880 -0.3094  0.0449
30254W        W47101  16.947  13.762  13.613 -0.1604  0.0108 -0.0590
30255W        W47102   4.528   9.141   0.878 -0.2317  0.1807 -0.0030
30256W        W47103  12.746  13.846   5.172  0.2772  0.1912  0.0709
30257W        W47104   0.410  11.688  12.851  0.1278 -0.0099 -0.1373
30258W        W47105   8.495   8.046   0.406 -0.0750 -0.0816 -0.0873
30259W        W47106  18.065   7.518  14.419 -0.0545 -0.2065 -0.0658
30260W        W47107   9.811  17.078  12.817  0.0529 -0.0957 -0.2866
30261W        W47108  13.135  10.161  14.208  0.3147  0.1233 -0.4352
30262W        W47109  17.000  16.281   4.697 -0.1383  0.1255 -0.3358
30263W        W47110  11.695  10.849   0.723 -0.0994  0.1050  0.2216
30264W        W47111   6.860   1.070  12.402 -0.0107 -0.1046  0.0568
30265W        W47112  16.369   0.401   4.690  0.0795  0.0277  0.1740
30266W        W47113   9.321  15.893  11.531 -0.2097  0.1395  0.1723
30267W        W47114   6.702   7.447  11.808  0.0986 -0.0273 -0.0192
30268W        W47115   0.320   7.115   0.214  0.2378  0.0800 -0.0667
30269W        W47116   3.080  15.291  16.539  0.0445 -0.2689  0.1564
30270W        W47117   5.719  12.035   3.279  0.1354 -0.1043 -0.0564
30271W        W47118   8.717   5.037  16.182  0.4309 -0.3288 -0.1557
30272W        W47119   1.277   4.868   4.209 -0.3179  0.3272  0.0047
30273W        W47120  15.140  10.095  12.764  0.2359  0.0153 -0.1583
30274W        W47121   5.619   2.922   1.350 -0.0363  0.1254  0.2609
30275W        W47122  10.585   2.807  12.641  0.2026 -0.0042  0.2118
30276W        W47123  14.745   2.014   1.605  0.1745  0.1436  0.1707
30277W        W47124   9.833   7.415  12.889 -0.1897 -0.2276 -0.4712
30278W        W47125   7.503   5.497   4.425  0.0971  0.4544  0.0938
30279W        W47126  15.554  14.568   4.899  0.0389  0.1757  0.2868
30280W        W47127   9.749  12.622   3.268 -0.2529  0.1343  0.6979
30281W        W47128   7.203   7.437  14.757 -0.2122  0.1034 -0.2689
30282W        W47129  14.991  12.108  15.384 -0.0207  0.0943 -0.0555
30283W        W47130   8.158   4.009   5.248  0.2983 -0.1228 -0.3617
30284W        W47131   7.437   9.400  13.635  0.0732  0.0097 -0.0779
30285W        W47132  15.620   3.166  14.221 -0.0441 -0.0886 -0.1153
30286W        W47133  10.097   2.765   2.020  0.3761  0.1391 -0.0933
30287W        W47134   3.767   2.907   5.163 -0.0994 -0.1763  0.3277
30288W        W47135   4.232   6.678  15.222  0.1456  0.3590  0.2109
30289W        W47136  12.696  13.090  15.909  0.2880 -0.2200  0.0803
30290W        W47137   3.969  13.345   4.846  0.1459  0.0132  0.0527
30291W        W47138  15.249   9.721   4.823  0.0940 -0.1575  0.2161
30292W        W47139  15.667   2.351   4.005  0.2502  0.1372 -0.0928
30293W        W47140   6.064   0.873  11.020  0.0843 -0.0740  0.0448
30294W        W47141  17.630   4.019   0.610 -0.3623 -0.0882 -0.1430
30295W        W47142  12.233   4.290   0.148  0.2322  0.0511  0.1741
30296W        W47143   9.808  11.014   1.893 -0.0874 -0.0436 -0.1005
30297W        W47144  14.756   2.769   2.384  0.2530  0.2673 -0.3144
30298W        W47145   9.670   6.140  14.876  0.2269  0.0098 -0.4714
30299W        W47146  17.808  11.823   0.398  0.2652 -0.1089 -0.4341
30300W        W47147  12.536   5.606  15.754 -0.0716  0.0698  0.1951
30301W        W47148   4.634  10.961  12.714 -0.0500  0.0989  0.1983
30302W        W47149   2.082  15.006   3.092 -0.2391  0.0416 -0.0431
30303W        W47150   6.391   3.785   0.825 -0.1135  0.2780 -0.0699
30304W        W47151   5.023   0.265   2.927 -0.2607  0.0612 -0.0707
30305W        W47152  15.833   3.467  16.295  0.0112  0.0107 -0.0527
30306W        W47153  11.096   4.899   1.703  0.2722  0.0164  0.1018
30307W        W47154   2.618  16.919   4.261  0.2692  0.3171  0.1491
30308W        W47155  16.276   3.401   4.432  0.0057 -0.0564  0.0894
30309W        W47156   9.924   9.839   3.385  0.0453  0.2520 -0.2257
30310W        W47157   3.483  14.161   4.267  0.1715 -0.4601 -0.1539
30311W        W47158   6.284  13.060   1.346  0.0703  0.2279 -0.3413
30312W        W47159  12.190  15.993   2.816 -0.1259 -0.0635  0.2860
30313W        W47160  14.892   3.720  12.061  0.1448 -0.2601  0.0535
30314W        W47161   9.898   1.683  11.940  0.0352  0.1455 -0.2079
30315W        W47162  15.436   5.817   4.537  0.1327  0.1035 -0.2380
30316W        W47163   7.121   8.544  14.049  0.1979  0.1201  0.0303
30317W        W47164  15.116   1.865   1.210  0.1623  0.0328 -0.0309
30318W        W47165   3.402   8.314   0.413  0.2330 -0.0309  0.0883
30319W        W47166  16.186  16.672  14.240 -0.0222 -0.1230  0.1933
30320W        W47167   3.389   2.683   1.133  0.1007  0.1693 -0.3514
30321W        W47168  14.947  17.867  13.036  0.1731  0.0965 -0.0084
30322W        W47169  14.490  14.019   3.500  0.2574  0.0675 -0.2529
30323W        W47170  16.796  17.565  12.682 -0.1073 -0.0781 -0.0482
30324W        W47171  13.561  16.907   3.157  0.0633 -0.0390  0.0522
30325W        W47172   2.413  13.991   2.750 -0.0296 -0.1999  0.0125
30326W        W47173   9.599   8.913   5.318  0.1799 -0.1560 -0.2519
30327W        W47174  17.712   6.193   3.174  0.2939 -0.1941  0.0282
30328W        W47175  10.570  17.658  15.054  0.0957  0.2443  0.1804
30329W        W47176   2.769  17.416  12.298  0.1417  0.1467  0.1125
30330W        W47177  10.117   2.185   5.833 -0.1017 -0.5258  0.0492
30331W        W47178   4.677   9.218  15.403  0.3241 -0.3703  0.0258
30332W        W47179  10.358   1.767   0.678  0.0416 -0.0456 -0.1203
30333W        W47180  11.775   2.328  13.699 -0.0040  0.1289  0.3420
30334W        W47181   5.812   3.598  12.605 -0.0571  0.0292 -0.1636
30335W        W47182   7.822  16.470  12.393  0.2968 -0.0402 -0.1958
30336W        W47183  16.722  16.851   3.078 -0.4268 -0.3084 -0.0896
30337W        W47184   3.289  11.635   0.400 -0.0445  0.1683  0.4016
30338W        W47185  14.263   7.261  15.976  0.2523 -0.2353  0.1470
30339W        W47186  13.064   1.400   0.858  0.2796 -0.1307 -0.0581
30340W        W47187   1.679  16.277  13.827  0.0410  0.0472  0.1361
30341W        W47188  12.010   4.531   4.128 -0.1469  0.0413  0.2138
30342W        W47189  16.763  14.142  13.254 -0.0105 -0.1481  0.2098
30343W        W47190  14.516  10.502  12.677 -0.1164 -0.1792 -0.0367
30344W        W47191  13.064  14.711   4.817 -0.2492  0.1816  0.1810
30345W        W47192   0.335   7.084  14.007  0.0507 -0.2615  0.1300
30346W        W47193  16.882  17.231   0.899 -0.0130 -0.3465  0.1503
30347W        W47194  16.542   4.799  13.056  0.2686 -0.1462  0.3436
30348W        W47195   3.513  14.229   1.568 -0.0640  0.2769 -0.2485
30349W        W47196  11.288   7.250  13.586 -0.1444 -0.0645  0.2369
30350W        W47197  10.081  10.413  12.182  0.2288 -0.0660 -0.1927
30351W        W47198   7.598   3.000  13.674 -0.2627 -0.1203  0.2474
30352W        W47199   7.595   4.281  15.153 -0.1445  0.1463 -0.3097
30353W        W47200  16.751   0.551   3.600 -0.1352 -0.2546 -0.1364
30354W        W47201  12.570   3.126  14.187 -0.0946  0.1690 -0.1418
30355W        W47202  11.027   7.663  13.812  0.2599 -0.1298  0.1793
30356W        W47203  17.044  15.808  14.880 -0.2623  0.0685  0.3924
30357W        W47204   1.344  13.787   0.648  0.1359  0.2034  0.1558
30358W        W47205   6.797   9.871   0.068 -0.2786 -0.0444 -0.0341
30359W        W47206  11.235  17.416   0.481  0.0090  0.0303  0.0937
30360W        W47207   7.706   8.883   4.405  0.2253  0.1990 -0.0497
30361W        W47208  14.323  16.514   4.511 -0.1386 -0.1067 -0.1598
30362W        W47209  16.778   7.687  16.617  0.2089 -0.0440  0.0867
30363W        W47210   9.795  15.686  11.671  0.2298 -0.0533 -0.1205
30364W        W47211  11.945   8.275  14.885  0.1216 -0.1670  0.1746
30365W        W47212   0.228  17.756  12.880 -0.2604  0.1457  0.0118
30366W        W47213  16.377   5.136  12.592 -0.1512 -0.0528  0.1862
30367W        W47214   8.315   1.713  14.982 -0.0140 -0.1509 -0.1124
30368W        W47215   6.282  16.091   2.839 -0.1239 -0.3166 -0.0894
30369W        W47216   0.673  13.400   5.573 -0.2293  0.0709 -0.2054
30370W        W47217  15.146  18.030   4.842 -0.1836 -0.1512 -0.3062
30371W        W47218   9.513  16.968   1.397 -0.4450  0.1536  0.0712
30372W        W47219   9.616  10.056   3.001  0.0060  0.1036 -0.0490
30373W        W47220  16.596  18.077   1.707  0.1916 -0.1111  0.0041
30374W        W47221  17.901   0.316  14.951 -0.0406  0.0493 -0.0247
30375W        W47222   2.650  15.125  12.480 -0.0279  0.0582  0.3718
30376W        W47223   7.783   1.379  11.859 -0.0213  0.0377  0.1032
30377W        W47224  13.407  14.276  11.510  0.3291  0.1093  0.2101
30378W        W47225   1.202  13.389   1.825  0.0615  0.0906  0.1329
30379W        W47226  13.911   1.692  15.874  0.1506 -0.2952  0.2044
30380W        W47227   7.439   1.086   1.783  0.1926  0.0868  0.1327
30381W        W47228   2.381   5.160  11.962  0.1220 -0.0690 -0.2304
30382W        W47229  13.660   0.516   1.164 -0.1420  0.1561  0.1089
30383W        W47230  13.321   5.323  12.958  0.1988 -0.0531 -0.1233
30384W        W47231  14.756  16.526   0.086 -0.1087  0.0556  0.0785
30385W        W47232   8.904   9.815   0.612 -0.3970  0.2903  0.1239
30386W        W47233   2.581  16.737   1.533 -0.0205 -0.3067  0.3303
30387W        W47234   3.135  16.680  13.637  0.1355 -0.1965 -0.0534
30388W        W47235   6.082  11.041  13.891  0.0584  0.1716 -0.1612
30389W        W47236   1.363  13.303  12.108 -0.4087  0.2522  0.0565
30390W        W47237  12.601  18.108   4.833  0.2023 -0.1801  0.1230
30391W        W47238   4.494  10.184   3.745  0.0859 -0.1026  0.0920
30392W        W47239   3.495   0.940   5.840  0.0925 -0.3621 -0.1767
30393W        W47240  15.387  15.187  14.975  0.1339  0.1243  0.1374
30394W        W47241  13.443  15.026  12.586 -0.1479 -0.2890 -0.1343
30395W        W47242   9.626   0.982  12.277 -0.1867 -0.1812 -0.0803
30396W        W47243   3.742  12.247  13.152 -0.2474  0.2329  0.0128
30397W        W47244  10.219  16.087  12.561 -0.0222  0.0585 -0.0776
30398W        W47245  15.081  13.209   1.833 -0.2157  0.0359 -0.1947
30399W        W47246  10.415  15.007   4.215 -0.0113 -0.2947  0.0717
30400W        W47247   6.937  16.172  13.465 -0.0670 -0.0893  0.3452
30401W        W47248  15.892  18.026   3.178  0.1516  0.1206  0.0479
30402W        W47249   8.332   4.885   3.510  0.1912 -0.1592 -0.1623
30403W        W47250   0.305  14.912   3.809 -0.3288 -0.1029 -0.2488
30404W        W47251   7.105   7.293   3.472 -0.0147 -0.0102  0.0127
30405W        W47252   7.568  12.887   4.260 -0.0476  0.2995 -0.0728
30406W        W47253  11.214  12.503   2.355  0.1134 -0.0066 -0.0673
30407W        W47254   0.469  10.464   2.592  0.0449 -0.0023 -0.0423
30408W        W47255   0.967   8.885   3.312  0.1212  0.1977  0.2304
30409W        W47256  12.834   7.540  14.077  0.5595 -0.3271  0.0249
30410W        W47257   2.783   8.923   4.234  0.0126  0.0275 -0.1080
30411W        W47258  15.678   1.638   2.106 -0.0752 -0.2228 -0.2736
30412W        W47259  10.874  17.211   0.801  0.0542 -0.0623  0.3476
30413W        W47260  16.779   5.814  15.431  0.0233  0.0814 -0.0078
30414W        W47261  11.904   7.064   4.085 -0.0277  0.1745  0.0594
30415W        W47262  17.637   0.702  14.035  0.2749 -0.0469 -0.2269
30416W        W47263   9.053  17.682   0.558 -0.2745  0.3569  0.1439
30417W        W47264  11.365  11.948   4.126 -0.3052  0.3030  0.1311
30418W        W47265   9.207   3.659  13.088  0.0563  0.0634 -0.0159
30419W        W47266   9.634   6.218   1.157  0.0501 -0.3559  0.1017
30420W        W47267   0.036  11.811  12.509  0.0688  0.3791  0.4250
30421W        W47268   6.870   0.246   0.681 -0.1535 -0.1561  0.1232
30422W        W47269  17.636   9.761  12.354  0.3382  0.2596 -0.1705
30423W        W47270  14.854   4.111  12.288  0.0212 -0.1087  0.0700
30424W        W47271   0.193  15.714   3.849 -0.1484 -0.2192  0.1856
30425W        W47272   4.966   4.211  15.472  0.0478  0.0296 -0.0784
30426W        W47273   7.126   5.531   1.898  0.0092 -0.1456 -0.1604
30427W        W47274  11.879  14.068  14.651 -0.2977  0.1722 -0.2649
30428W        W47275   6.277  13.928   2.577 -0.0449  0.1311  0.0520
30429W        W47276   0.200   1.351  16.500  0.1193 -0.2683 -0.0372
30430W        W47277   1.024  10.590   3.183  0.1864 -0.0395 -0.1894
30431W        W47278   6.071   4.003  12.277 -0.3433 -0.2029  0.2401
30432W        W47279   6.883  11.886   4.518 -0.1155 -0.1751 -0.2684
30433W        W47280   9.797   4.802  12.552  0.0244 -0.0907  0.2758
30434W        W47281   5.805   6.510   2.910 -0.1154  0.4339 -0.0264
30435W        W47282   1.869   7.735   3.335 -0.1849  0.1781  0.0324
30436W        W47283   7.852  12.185   0.543  0.1627 -0.2249 -0.1982
30437W        W47284   4.149   3.660   3.880  0.0601 -0.3177 -0.1077
30438W        W47285   2.076   7.743  14.375  0.1720  0.1562 -0.1276
30439W        W47286  11.085  16.942  16.239  0.1736  0.2220 -0.0620
30440W        W47287   6.695  10.217  11.411  0.0372 -0.0306 -0.2038
30441W        W47288   1.924   9.349   0.912 -0.3900  0.0006  0.1283
30442W        W47289  12.643   6.470   4.512  0.4899  0.0216  0.0006
30443W        W47290   1.764  14.657  15.443  0.0839 -0.1134 -0.0331
30444W        W47291  13.441   5.415   3.412  0.1672  0.1239 -0.0359
30445W        W47292  10.341  14.266  13.579 -0.0057  0.3121 -0.1822
30446W        W47293  12.659   0.014  11.412  0.3054 -0.1876 -0.0488
30447W        W47294   6.556   7.048   6.038  0.2169  0.1150 -0.0326
30448W        W47295   9.016  17.905   2.599 -0.0806 -0.2096 -0.4597
30449W        W47296   0.456   8.451  14.959 -0.3590 -0.1247 -0.0507
30450W        W47297  11.362  13.559  15.009 -0.2565 -0.0514 -0.1097
30451W        W47298   9.950   6.859  15.788  0.0385 -0.1395  0.0141
30452W        W47299   8.348   2.193   4.145  0.1761 -0.0278  0.1291
30453W        W47300   3.056   2.289   0.814 -0.2440  0.0574  0.1527
30454W        W47301  11.169  15.715  12.678 -0.2256  0.0765  0.2076
30455W        W47302  11.803   4.917   3.374 -0.0623  0.0581 -0.1163
30456W        W47303   5.080   4.986   2.100 -0.0578 -0.0846 -0.1669
30457W        W47304  11.334  15.115   3.731  0.2888 -0.0568 -0.1279
30458W        W47305   6.252   1.243   2.838 -0.3418  0.1630  0.1286
30459W        W47306  10.393  13.069   1.340 -0.0155  0.2036 -0.1406
30460W        W47307  15.968  18.073  15.767  0.1414  0.3568  0.0927
30461W        W47308   0.640  16.718  13.220 -0.1585  0.0201 -0.1001
30462W        W47309  14.596   4.383  11.808  0.2309 -0.1203  0.1166
30463W        W47310   7.237   1.133  13.696  0.0123  0.0248 -0.1470
30464W        W47311  12.326   1.328   0.828  0.0418  0.0999 -0.2431
30465W        W47312  17.295   3.817  15.752 -0.0307 -0.0668 -0.1705
30466W        W47313   5.139   4.823  12.326  0.2139 -0.0973  0.1314
30467W        W47314  11.194   9.542   6.004 -0.1671 -0.0246  0.0027
30468W        W47315  12.421  11.550   0.461 -0.0861 -0.0251 -0.1645
30469W        W47316   3.985   0.349  16.155 -0.1216  0.4094  0.0825
30470W        W47317   1.906  11.107   5.055  0.0917  0.1689 -0.2763
30471W        W47318   1.292  13.831  13.917 -0.3318 -0.2549 -0.3276
30472W        W47319   2.583   1.702   2.133 -0.1530 -0.1707  0.2216
30473W        W47320   7.914   7.019   4.808 -0.1168 -0.3106 -0.1113
30474W        W47321   9.376   5.647  14.214 -0.3565  0.1742 -0.0082
30475W        W47322   6.569   8.841   2.176  0.4533 -0.1871 -0.0042
30476W        W47323  12.656  10.341  15.665 -0.2356  0.1689  0.2254
30477W        W47324  16.849   4.846   4.472  0.0441  0.1396 -0.2009
30478W        W47325  17.543   0.324   0.083 -0.1731  0.2634  0.0624
30479W        W47326   4.534   3.574   2.912  0.1927 -0.2891 -0.0356
30480W        W47327   3.473  16.300  12.226  0.0443  0.0601 -0.0291
30481W        W47328  12.490   0.078   3.821  0.0911 -0.1998  0.0535
30482W        W47329   5.830  12.482   5.156  0.2881  0.2415  0.0731
30483W        W47330  12.267  13.427  15.206  0.0620 -0.1320  0.0061
30484W        W47331   8.085  10.437   4.462 -0.3949  0.2416  0.1211
30485W        W47332   0.677   4.635  13.111  0.2775 -0.1493 -0.1799
30486W        W47333  18.160   4.140  14.530  0.0738 -0.1677  0.2067
30487W        W47334   3.914  17.145  13.577 -0.0625 -0.0255 -0.0260
30488W        W47335  14.468  17.236   5.206 -0.2304 -0.0170  0.1253
30489W        W47336   7.922  12.423   2.235 -0.2761  0.0250  0.2918
30490W        W47337   3.737   0.711   2.305  0.0775  0.2852 -0.0158
30491W        W47338  14.563  13.447   0.322  0.2602  0.0109 -0.3132
30492W        W47339  16.446   9.378   3.115  0.1474 -0.1869 -0.1446
30493W        W47340   6.383   0.485   2.879  0.3573  0.1432 -0.0579
30494W        W47341   9.569   1.587   5.197 -0.1323 -0.2569 -0.2738
30495W        W47342  14.012   3.045  13.551 -0.1092  0.1753  0.1278
30496W        W47343  11.790   6.631   2.536 -0.0213 -0.1316 -0.0540
30497W        W47344  17.603  17.831  13.112 -0.0234 -0.2475  0.2194
30498W        W47345   5.097   8.589   1.613  0.3070  0.1864  0.0020
30499W        W47346   4.525   8.813  14.512 -0.0859 -0.1268  0.1336
30500W        W47347  15.590  11.000   3.522 -0.3202 -0.0493  0.0150
30501W        W47348   0.212  14.149  12.249  0.1004 -0.0807 -0.2230
30502W        W47349   4.176   5.869   0.374 -0.3732  0.0002 -0.1468
30503W        W47350  14.516   6.403  11.846 -0.0137  0.0124 -0.0621
30504W        W47351  14.549   6.450   0.738 -0.0429 -0.2703 -0.1263
30505W        W47352   5.483   5.446  15.607 -0.0200 -0.1237  0.0331
30506W        W47353  15.944  15.451  12.807  0.0914 -0.0029 -0.1410
30507W        W47354   8.034   4.613  11.255  0.0974 -0.3839  0.1501
30508W        W47355  15.520  10.426  12.888 -0.2242  0.1681  0.0047
30509W        W47356   8.388  13.417   4.124  0.2077  0.0037  0.1788
30510W        W47357   8.490   9.758  14.137  0.3181  0.1208  0.2698
30511W        W47358  18.051  15.748   3.469 -0.0611 -0.0059  0.1743
30512W        W47359  13.808   9.358   1.102  0.0594  0.3462  0.0040
30513W        W47360  17.668   5.432   1.526 -0.2177 -0.0854  0.1112
30514W        W47361  11.661  11.649   5.410 -0.2037 -0.0356 -0.1190
30515W        W47362  15.118   9.087   0.499  0.1548 -0.0463 -0.0459
30516W        W47363   5.078   6.714   4.413 -0.0095 -0.1622 -0.1005
30517W        W47364  18.123   7.139   4.230  0.3107 -0.0717 -0.0573
30518W        W47365   7.069  15.469   1.135  0.0307  0.0758  0.0954
30519W        W47366  15.864   5.926   4.753 -0.0164 -0.2888  0.2029
30520W        W47367   5.831   9.907   6.085  0.2627 -0.1210 -0.0720
30521W        W47368  13.004   9.467  14.709 -0.2844  0.1769  0.2671
30522W        W47369  17.939   1.112   0.981  0.0250  0.0635 -0.3038
30523W        W47370   0.152  16.212  16.099 -0.0989 -0.1251  0.0160
30524W        W47371   4.410   6.056  11.995 -0.0505 -0.1750  0.1965
30525W        W47372   2.480   4.496   5.039  0.0905  0.0400  0.2761
30526W        W47373  16.120   2.150  13.938  0.0026 -0.2464  0.3420
30527W        W47374   3.030   0.327   3.675 -0.1080 -0.0642  0.1298
30528W        W47375   4.638   1.931  13.504  0.0914 -0.2257  0.0302
30529W        W47376   4.395   5.474   0.124 -0.1171 -0.2642 -0.0714
30530W        W47377  17.768  14.112   1.231 -0.0952 -0.3723  0.0981
30531W        W47378   5.588   4.653  13.141 -0.1275  0.2910 -0.1799
30532W        W47379   1.328   7.680   2.697 -0.0503 -0.1030 -0.1966
30533W        W47380  15.321   2.235  12.694 -0.2279  0.0887 -0.0596
30534W        W47381   3.673   9.825   3.410 -0.2916  0.3496 -0.0515
30535W        W47382   6.158   5.709   5.554 -0.0596 -0.0207 -0.3223
30536W        W47383   8.267   1.220   3.734  0.3481 -0.1089 -0.0839
30537W        W47384   4.139  17.763  14.448 -0.0163 -0.4043 -0.1166
30538W        W47385  11.270  10.561  16.561  0.3098 -0.0555  0.0789
30539W        W47386  13.887   3.645  15.366 -0.1652  0.0687 -0.0173
30540W        W47387  13.283   0.664  15.749  0.0244  0.3004  0.2699
30541W        W47388   8.225  17.821  12.958 -0.2758 -0.0453 -0.1082
30542W        W47389  10.317  11.866   2.106 -0.0846  0.2615  0.0108
30543W        W47390   8.093   1.393   2.709 -0.2615 -0.2126 -0.1234
30544W        W47391  11.630  12.168  14.834  0.1063 -0.2164 -0.0054
30545W        W47392  16.050   8.090   1.255  0.0483  0.2498 -0.0209
30546W        W47393   7.426   0.653   3.653 -0.4471  0.2664 -0.0679
30547W        W47394   2.590   2.770  12.452  0.0058  0.2907 -0.4153
30548W        W47395   1.428   6.994  14.894  0.0693 -0.0524  0.1622
30549W        W47396   7.493  16.198  11.977 -0.4014  0.0049  0.1864
30550W        W47397  17.491   4.756  15.472 -0.0062 -0.2328  0.1407
30551W        W47398   7.630   0.254   5.319 -0.1471 -0.1743  0.1002
30552W        W47399   1.813  14.914   0.377  0.0291 -0.1798 -0.1546
30553W        W47400   3.435   2.994   3.951  0.0835 -0.0260 -0.1288
30554W        W47401  11.075   3.909  15.833 -0.1155  0.0316  0.2355
30555W        W47402   2.487  15.179  16.607 -0.0420 -0.0500  0.1217
30556W        W47403  14.980   7.205  12.212  0.2334  0.0457  0.1104
30557W        W47404   5.734   6.436  14.216 -0.0822  0.0757  0.2781
30558W        W47405  10.985   3.852  14.151  0.0989  0.1230 -0.0426
30559W        W47406   6.687  17.109  13.770 -0.2790 -0.4360  0.1013
30560W        W47407  14.068   1.758   0.107 -0.1611  0.0334 -0.2490
30561W        W47408   3.482  12.160  14.083 -0.1731  0.0997  0.2661
30562W        W47409  15.444   1.894   5.133  0.1789  0.1449 -0.4479
30563W        W47410   9.273   1.420  13.531  0.1400 -0.2129 -0.0527
30564W        W47411   5.529  15.910   0.257 -0.1317  0.6161  0.0065
30565W        W47412  12.756   0.840  13.961 -0.1699  0.1338 -0.0730
30566W        W47413   1.308  15.417   4.343 -0.1625  0.0826 -0.0797
30567W        W47414   0.085   2.297  12.877  0.0613 -0.0223  0.0627
30568W        W47415   2.216   3.516   2.499 -0.5043 -0.3218  0.3735
30569W        W47416   2.304   3.860  14.620  0.1832  0.2368 -0.0748
30570W        W47417   8.481  12.986   0.430  0.3246 -0.4011  0.2030
30571W        W47418   5.317   0.737   4.224  0.3715  0.0732 -0.0832
30572W        W47419  10.986   8.738  12.353 -0.3858 -0.1833 -0.0339
30573W        W47420  10.095  10.902  13.871 -0.2046 -0.1502 -0.1098
30574W        W47421   0.763   4.298   3.809 -0.1381 -0.0416 -0.2480
30575W        W47422   5.977   0.793  13.381 -0.2536  0.2827 -0.4479
30576W        W47423  11.540   2.718   1.811 -0.2263 -0.4252  0.1061
30577W        W47424   2.281   8.554   2.909 -0.0132 -0.3190 -0.0164
30578W        W47425   1.182   3.090  16.550 -0.1961 -0.1442 -0.0572
30579W        W47426   1.851   6.592   2.349 -0.1919  0.0718 -0.1670
30580W        W47427  13.966  11.418  11.887 -0.2999 -0.0654  0.0149
30581W        W47428   6.066  11.192   4.527  0.0626  0.1723  0.0462
30582W        W47429  17.154  13.908   0.114 -0.2592  0.2622 -0.2657
30583W        W47430   7.227   8.845   1.004  0.1375 -0.1270 -0.0431
30584W        W47431  17.171   7.688  14.897  0.0457  0.0224 -0.3252
30585W        W47432   8.760  11.474   0.352 -0.1933  0.1032 -0.0356
30586W        W47433   8.878  13.994   0.577 -0.0824 -0.0163 -0.4501
30587W        W47434  17.582   3.619   1.452 -0.1578 -0.1963 -0.0589
30588W        W47435   0.202   3.208  13.131 -0.2351  0.1981 -0.0564
30589W        W47436  17.006  12.694   2.197  0.2133  0.4182  0.1973
30590W        W47437  10.134  11.747   2.912  0.0907 -0.1316  0.1085
30591W        W47438  13.750   2.719  12.916 -0.1452 -0.2292  0.0239
30592W        W47439   0.280   5.315   3.173 -0.0487 -0.0094 -0.0036
30593W        W47440   8.876   3.221  14.409  0.1722 -0.0109 -0.0540
30594W        W47441   1.416   8.320  14.601  0.2335 -0.0333 -0.1167
30595W        W47442   9.841  14.138  13.590  0.1152 -0.1206 -0.3509
30596W        W47443   4.747   8.802   5.350 -0.2162  0.0404 -0.3356
30597W        W47444  10.126  11.486  11.491  0.0526  0.1836  0.1934
30598W        W47445   9.584  16.706   5.125  0.2108  0.2516 -0.1812
30599W        W47446   0.947  15.191  11.109  0.2998 -0.0133 -0.1452
30600W        W47447   5.101   4.969   1.153 -0.2912  0.3102 -0.2368
30601W        W47448   7.878   0.064  11.289 -0.1216 -0.0099  0.2987
30602W        W47449   5.385  14.262  13.752  0.0965 -0.0266 -0.2600
30603W        W47450  12.214  14.267   4.570  0.1070  0.1401  0.3337
30604W        W47451  17.920  12.009   3.046 -0.2653 -0.0991  0.0083
30605W        W47452   7.294   0.554  13.617 -0.1210 -0.2014 -0.3166
30606W        W47453   9.074  11.050   0.439  0.4275 -0.0663 -0.0939
30607W        W47454   5.713  16.234   1.894 -0.1230 -0.2948 -0.3953
30608W        W47455   3.541  14.098  13.715  0.0617  0.3295  0.3217
30609W        W47456  12.820   1.829   0.937  0.0410 -0.1420 -0.0200
30610W        W47457  16.398  14.379  13.814 -0.0655  0.1990  0.1581
30611W        W47458  16.385   1.085  14.536 -0.0794 -0.3970  0.0255
30612W        W47459   8.808  13.271  11.964  0.2060 -0.0567  0.2215
30613W        W47460  15.352   9.388   2.621 -0.0768  0.5894  0.1901
30614W        W47461   5.798  10.836   5.511 -0.3313  0.4841  0.3887
30615W        W47462  10.014   6.091  12.359 -0.0840  0.1703  0.2452
30616W        W47463  16.317  13.078   5.111  0.0990  0.2450 -0.2079
30617W        W47464   0.302   2.780  13.516  0.1741 -0.3360 -0.1960
30618W        W47465  15.538   7.081   3.079 -0.4587 -0.0086 -0.1294
30619W        W47466  10.201   9.085  12.717 -0.0124 -0.3653  0.0074
30620W        W47467   1.387   1.583   2.755  0.2057 -0.2423 -0.1089
30621W        W47468  12.447   4.875  16.240 -0.2346 -0.1781 -0.1299
30622W        W47469   2.515   6.997  13.155 -0.1010  0.2219  0.1995
30623W        W47470   3.941   7.913  14.233  0.1519 -0.2411 -0.3297
30624W        W47471   4.428   0.184  13.731  0.1942 -0.0132  0.0429
30625W        W47472   6.322   7.256   3.086 -0.0823  0.0549  0.2774
30626W        W47473  13.428   6.935   4.425  0.0249 -0.0429 -0.0314
30627W        W47474   1.667  13.276   3.194  0.3417  0.0007  0.2919
30628W        W47475   5.546   8.683  13.498  0.2372 -0.2859 -0.1773
30629W        W47476   8.462  13.805   5.380  0.1663 -0.2843 -0.1422
30630W        W47477   8.105  14.523   1.563 -0.0028  0.1900  0.1046
30631W        W47478   7.612  12.490  11.486  0.0538  0.1059 -0.1095
30632W        W47479   5.713   9.351   4.642  0.2701 -0.3136 -0.1395
30633W        W47480   9.527   5.420   2.204 -0.0913  0.0841 -0.1594
30634W        W47481   5.462  10.097   0.809 -0.0866  0.0075  0.0672
30635W        W47482   6.713   7.524  15.329  0.1961 -0.1997  0.2263
30636W        W47483   2.716   9.818   4.788 -0.1530  0.2799 -0.0474
30637W        W47484   2.821   2.913  11.930 -0.0413 -0.0116 -0.1471
30638W        W47485   2.368  10.277   2.539  0.1416 -0.1933  0.0372
30639W        W47486   8.948  11.553  13.523  0.0171  0.0797  0.2204
30640W        W47487   2.823  17.698  15.094  0.4286  0.2913  0.0855
30641W        W47488  16.713   0.053  13.351 -0.1500  0.0324 -0.0956
30642W        W47489   5.829   5.283  13.307  0.0992 -0.0066  0.1276
30643W        W47490  15.833  17.831  14.266  0.3353 -0.2341  0.0722
30644W        W47491  11.201  18.118  15.411 -0.1241 -0.0617 -0.2034
30645W        W47492  17.125   0.999   5.053 -0.0077 -0.3574  0.0566
30646W        W47493   7.061   5.499   5.199 -0.3958  0.1232 -0.2017
30647W        W47494  14.823   6.632  14.006 -0.2523  0.0055  0.1378
30648W        W47495  17.694   7.568   5.050  0.0420  0.1566  0.3722
30649W        W47496   6.362  17.617   3.647 -0.0121  0.1596 -0.5000
30650W        W47497   8.149  15.755  15.028 -0.2600  0.2114  0.0716
30651W        W47498   0.324   7.389  15.476  0.4292 -0.2284 -0.0559
30652W        W47499   5.363   3.575   4.645  0.0146 -0.1382  0.0955
30653W        W47500  18.007  17.567  11.931 -0.3348 -0.1975 -0.0116
30654W        W47501  12.543   1.075  14.690  0.0383 -0.0106 -0.1458
30655W        W47502   2.826  12.377  13.378  0.1224 -0.0357  0.2854
30656W        W47503   8.313  17.243   2.505 -0.2273 -0.2320  0.0285
30657W        W47504   5.162   3.801   5.621 -0.2057 -0.2700  0.0180
30658W        W47505   0.878  14.515  14.683 -0.2648 -0.0652 -0.2077
30659W        W47506  16.545  14.100   1.639  0.1256 -0.3067  0.2561
30660W        W47507  11.976   2.550  12.705  0.2364 -0.1260 -0.3332
30661W        W47508   1.447   9.420   3.935 -0.0453  0.3349 -0.0740
30662W        W47509   9.005   3.077   4.599 -0.0645 -0.1244  0.0596
30663W        W47510  15.132  16.648   1.434 -0.2182  0.1557  0.0732
30664W        W47511  13.626   4.160  16.066 -0.1221  0.2762 -0.2907
30665W        W47512  11.123   9.500   0.681 -0.0575 -0.2603  0.0848
30666W        W47513   2.622   8.629  16.265 -0.0372  0.1751  0.1362
30667W        W47514   3.442   0.281   4.623  0.3626 -0.2801 -0.0847
30668W        W47515   8.621   8.953   1.957 -0.1718  0.1585  0.3199
30669W        W47516  16.069  13.658   3.061 -0.0516 -0.1430  0.1481
30670W        W47517   7.525  14.860   4.939 -0.0690  0.0198 -0.0681
30671W        W47518   2.175  16.779  12.661 -0.0588  0.0250  0.0249
30672W        W47519   6.006  15.310  12.705 -0.1537  0.0759 -0.1494
30673W        W47520   8.909   9.993  14.213 -0.0253 -0.0356 -0.0247
30674W        W47521  12.426  16.707  13.922 -0.0480  0.2034 -0.1490
30675W        W47522  10.577  14.530   4.317 -0.1020 -0.0046  0.0141
30676W        W47523  17.340   9.470   2.098  0.0197 -0.2451 -0.2201
30677W        W47524  17.982   5.859  16.276  0.2472 -0.2769 -0.3664
30678W        W47525  11.900   5.430   4.077 -0.3406  0.0733 -0.1240
30679W        W47526   2.025   1.420  14.010 -0.1188 -0.0009 -0.1500
30680W        W47527   1.255   6.936   5.128  0.1508 -0.1051  0.2616
30681W        W47528  14.157  12.210   3.609 -0.0101 -0.0217  0.0440
30682W        W47529  14.314   9.119   0.421 -0.0929 -0.1495  0.0527
30683W        W47530   7.688  13.433  13.607 -0.1917  0.0548 -0.2988
30684W        W47531  17.516  10.498  14.998 -0.1677 -0.3122  0.3088
30685W        W47532  14.955   9.965   4.182 -0.1207  0.1394 -0.0407
30686W        W47533   2.199  11.328  15.628 -0.0641  0.3420  0.2601
30687W        W47534   0.134  15.058  15.851  0.1171 -0.0114 -0.0323
30688W        W47535   5.409  16.409  14.831  0.2355  0.0356  0.3564
30689W        W47536  16.943  14.369   0.320 -0.1662 -0.2025 -0.0590
30690W        W47537  17.509  10.705  15.470  0.1349  0.1477 -0.2433
30691W        W47538   4.459  14.276  12.499 -0.0297  0.2078  0.0712
30692W        W47539  11.450  12.241  15.715 -0.0160  0.0348  0.3648
30693W        W47540  15.828   9.465  16.228 -0.0255 -0.1204 -0.1703
30694W        W47541   2.329  14.733  15.818 -0.0240  0.2261  0.1315
30695W        W47542  11.065  12.014   4.507 -0.1506  0.1547  0.0232
30696W        W47543   9.584   8.654  14.307 -0.1266  0.0281 -0.1627
30697W        W47544   7.993   9.499  14.111  0.0739 -0.0056 -0.0141
30698W        W47545  15.460  17.800   0.005  0.2643  0.0850  0.0311
30699W        W47546   6.781   9.909  15.671  0.0394 -0.1772  0.0173
30700W        W47547  15.119  10.847  13.290 -0.1449 -0.0935  0.1109
30701W        W47548   0.848   9.383  12.890 -0.0345 -0.0609  0.3541
30702W        W47549   3.059  14.216   3.254 -0.2285 -0.0324  0.1531
30703W        W47550  11.581   7.675  15.929  0.0503  0.0515 -0.1707
30704W        W47551   4.058   7.218  16.530  0.2162  0.1262 -0.1655
30705W        W47552  15.900  12.158  15.087  0.1328  0.0430 -0.0761
30706W        W47553  10.315   7.690   2.055  0.1366  0.1561 -0.2082
30707W        W47554   9.606   9.989   4.848 -0.0507 -0.0024  0.0138
30708W        W47555   8.808   1.092   2.420  0.2493  0.2111 -0.0436
30709W        W47556   6.940   3.774  12.209 -0.3856  0.4497  0.1037
30710W        W47557   2.698   1.937   4.046  0.2931  0.1404 -0.3459
30711W        W47558  16.190   1.621   1.998 -0.2320  0.0604  0.1115
30712W        W47559   3.644  16.578   5.213  0.1805 -0.1381 -0.3825
30713W        W47560   8.491  15.355   2.387 -0.3072 -0.2575 -0.0941
30714W        W47561  17.224   6.892  12.819 -0.1611  0.2766  0.1869
30715W        W47562   6.887  17.962  11.865 -0.2148 -0.1455 -0.2155
30716W        W47563   5.038   8.962  13.834 -0.0980  0.1832  0.0400
30717W        W47564  13.910  14.839  13.916 -0.0641  0.1731  0.0037
30718W        W47565   9.367   7.493   3.635 -0.2319 -0.0302  0.1758
30719W        W47566  13.205  16.953  11.290 -0.1365  0.0843  0.3175
30720W        W47567  17.717   3.176   4.793 -0.1156 -0.0881 -0.1085
30721W        W47568   7.049   9.660   2.583 -0.0705 -0.0313 -0.3568
30722W        W47569  12.355   3.027  15.517  0.1444  0.0073  0.0888
30723W        W47570  14.412   3.842  12.122 -0.1756  0.0906  0.0811
30724W        W47571   3.586  14.612  12.033  0.2871 -0.2105 -0.0083
30725W        W47572   3.909   5.280  14.864  0.0497  0.1232 -0.2934
30726W        W47573  13.277   9.931   4.902  0.4412 -0.0574  0.5742
30727W        W47574   1.268   9.563  15.504 -0.2807 -0.0122 -0.2182
30728W        W47575   7.205   8.094   4.417 -0.1035 -0.2577 -0.2479
30729W        W47576   3.090  17.407   5.018  0.0843 -0.0484 -0.0577
30730W        W47577  12.272   6.105  16.452 -0.1056 -0.3086 -0.2707
30731W        W47578   1.582  10.525   3.159 -0.0017  0.2251 -0.0125
30732W        W47579   8.205  14.842   2.728 -0.1924  0.3042  0.3118
30733W        W47580   4.126  12.764  16.269 -0.1746  0.1833 -0.1135
30734W        W47581  10.004   1.519  12.904 -0.1171 -0.1641 -0.1244
30735W        W47582   5.608   6.490  12.930  0.0936 -0.2770 -0.0593
30736W        W47583  12.750  13.216  11.507  0.1058  0.2380 -0.0528
30737W        W47584  12.333  14.782  15.599 -0.3796  0.2475  0.4013
30738W        W47585   5.728   7.721  14.823 -0.4334 -0.0650 -0.3519
30739W        W47586  13.878  13.611  11.642  0.1349  0.0988  0.0929
30740W        W47587  17.059  12.839   4.521 -0.0537 -0.1366  0.2985
30741W        W47588  15.700  17.352   4.686  0.2522  0.0653  0.0068
30742W        W47589  12.500   7.751  15.632 -0.0565 -0.0252  0.2733
30743W        W47590   9.332   4.825  12.608  0.1799  0.1042 -0.0573
30744W        W47591  13.373  10.932   4.063  0.0473  0.0221 -0.1346
30745W        W47592   2.474   4.639  16.113  0.0337  0.3092 -0.2248
30746W        W47593  11.549   2.738  13.047 -0.1400  0.1559  0.1066
30747W        W47594   4.731   7.848   4.571  0.0353 -0.0596  0.0444
30748W        W47595   3.112  12.406   4.839  0.1929  0.1045  0.1449
30749W        W47596   3.956   3.868  14.003 -0.3253  0.1945  0.1553
30750W        W47597  12.056   4.135   1.165 -0.2582 -0.1550 -0.0967
30751W        W47598  13.204  13.198   1.072 -0.2594 -0.0701 -0.0951
30752W        W47599  14.224   8.575  15.734 -0.1754  0.0984  0.1814
30753W        W47600   6.589   6.618  16.173 -0.1919  0.1656  0.2805
30754W        W47601   7.806  18.180  13.294 -0.0141 -0.1818 -0.3055
30755W        W47602   8.422  16.721   1.315 -0.1243 -0.2585 -0.2081
30756W        W47603  12.464   0.413  12.954  0.1050  0.1848  0.2134
30757W        W47604   0.261   1.578   1.593 -0.0682  0.2821  0.0907
30758W        W47605   8.608   7.116   3.944 -0.0756  0.0240  0.0373
30759W        W47606  12.213  14.159  11.351 -0.1090 -0.1087  0.1970
30760W        W47607   0.476   9.066  13.185 -0.1633  0.1628  0.0134
30761W        W47608   1.421  17.509  13.392  0.2023  0.2629  0.1412
30762W        W47609  12.975  17.085   1.928 -0.1693  0.2031  0.0560
30763W        W47610  13.395   4.576  13.802 -0.0604 -0.0717 -0.0929
30764W        W47611  15.494  13.651  15.181  0.1104 -0.1661 -0.0120
30765W        W47612   4.922   6.150  14.241 -0.1439 -0.1624 -0.0057
30766W        W47613  17.186  13.183   2.124 -0.1873 -0.1836  0.4626
30767W        W47614  11.572  16.117   1.181  0.0752 -0.1098 -0.1376
30768W        W47615   3.222   0.976  16.068 -0.3694  0.1379 -0.0073
30769W        W47616   0.080  14.215   0.978 -0.0984  0.1999  0.0251
30770W        W47617  16.168  14.012   3.545  0.1959  0.1322 -0.1108
30771W        W47618  16.337  11.409   2.544 -0.0454  0.1530  0.0174
30772W        W47619  11.682   5.574  13.599  0.2379  0.0054 -0.1155
30773W        W47620   7.879  14.430   1.070 -0.3260  0.2609  0.1458
30774W        W47621   6.868  11.926   0.405  0.0778 -0.2880  0.2286
30775W        W47622   0.374   2.637  16.291 -0.0781 -0.0132 -0.0039
30776W        W47623  16.850   2.889   1.619  0.0640 -0.0840 -0.1883
30777W        W47624  12.702   4.672  15.873 -0.1573 -0.2151  0.0922
30778W        W47625   9.305   1.820  14.752 -0.1681  0.1017  0.0334
30779W        W47626   3.314  14.660   1.567  0.1881  0.0365 -0.1217
30780W        W47627   7.253   9.861   5.448 -0.2339 -0.0750 -0.1476
30781W        W47628   7.005  16.522   0.536 -0.1747  0.1422 -0.1259
30782W        W47629   4.474  11.683   4.656 -0.0059  0.0859 -0.3150
30783W        W47630   1.704  11.924   0.871  0.1706  0.0449 -0.0589
30784W        W47631   6.549  16.957   0.612  0.1970  0.0878 -0.1758
30785W        W47632   6.600  13.963   4.837  0.0314  0.3005  0.1468
30786W        W47633   3.664  17.231  11.945  0.1266  0.1546 -0.0745
30787W        W47634   1.049   5.553   2.383 -0.2234  0.2338 -0.0763
30788W        W47635  12.841   5.379  13.686 -0.1048 -0.1850 -0.0093
30789W        W47636   4.618  11.935  16.192 -0.2810 -0.1035  0.0915
30790W        W47637   1.032  15.871  12.698  0.1218  0.1727 -0.1479
30791W        W47638   5.176   5.464  14.222  0.2102  0.1513 -0.1105
30792W        W47639  10.689  11.628   1.214 -0.0901 -0.0310 -0.2425
30793W        W47640  10.408   2.999   2.379  0.2353  0.0616 -0.3716
30794W        W47641   7.123  14.786   3.566 -0.1308 -0.3510  0.0758
30795W        W47642  14.851  15.294  12.811 -0.5805  0.1821 -0.1296
30796W        W47643   4.820  15.937   3.881 -0.1461 -0.0925 -0.3638
30797W        W47644   1.368  11.640  13.404 -0.1287 -0.0850  0.1711
30798W        W47645   5.310   6.036   0.404 -0.2830 -0.2311 -0.5179
30799W        W47646  13.117  13.215  14.588  0.0339  0.2625  0.2651
30800W        W47647   8.597  15.646  15.982  0.1851 -0.3097  0.2512
30801W        W47648  13.586  14.260   1.997 -0.0196 -0.2350 -0.0201
30802W        W47649   7.891  12.868  14.371  0.1561  0.0994  0.1110
30803W        W47650  10.408  15.043   5.437 -0.0148 -0.1482 -0.1098
30804W        W47651  16.619  16.714  12.268  0.0841  0.0244 -0.0710
30805W        W47652  10.697  17.028   1.319  0.0462  0.0904  0.2727
30806W        W47653  12.381  10.385  12.605 -0.0190  0.0806  0.2300
30807W        W47654   0.657   0.097  13.923  0.2401  0.0300 -0.1642
30808W        W47655   6.505  12.728  16.304  0.1638  0.0871 -0.1247
30809W        W47656   7.579   1.338  14.116  0.0998 -0.3332  0.0523
30810W        W47657  16.313   7.968   3.355  0.1517 -0.0314 -0.0785
30811W        W47658   9.904  13.736   0.169 -0.1433 -0.0837  0.0036
30812W        W47659   4.565  16.579  16.110 -0.1249  0.0533  0.3154
30813W        W47660   2.706   6.550   4.659 -0.2453 -0.0344 -0.2627
30814W        W47661  14.505  13.760  12.303  0.3418  0.1081 -0.1984
30815W        W47662   5.107   7.180  12.390  0.2026  0.0433 -0.0239
30816W        W47663  15.355  11.868  16.119  0.2373  0.4016  0.1512
30817W        W47664  11.534   9.529  15.549  0.0610 -0.0283 -0.1985
30818W        W47665   0.005   0.764  14.288  0.2447  0.0642 -0.3084
30819W        W47666   3.501   8.025   0.813  0.2097 -0.2638 -0.0042
30820W        W47667   4.787   5.745  14.783 -0.1152 -0.2320 -0.0333
30821W        W47668   3.371   0.981  15.105 -0.0868  0.3010 -0.5035
30822W        W47669   8.308  16.552  13.734  0.0949  0.4378  0.2462
30823W        W47670  14.298   2.908   2.590  0.1942  0.0427 -0.0378
30824W        W47671  16.544  17.136  12.523 -0.1707 -0.0878 -0.1951
30825W        W47672  10.819   6.602   5.371  0.0876 -0.0998  0.0861
30826W        W47673  11.908   2.971   3.131  0.0722 -0.0821 -0.1253
30827W        W47674  14.162  16.904  13.993  0.0493 -0.0886  0.0878
30828W        W47675   2.070   0.211   4.121  0.0306 -0.2257  0.1882
30829W        W47676   9.135   6.662   1.142  0.0503 -0.0343 -0.4074
30830W        W47677  11.378   3.920  11.334 -0.2927  0.0141 -0.1345
30831W        W47678  13.705   3.750   5.342 -0.2540 -0.1826  0.0849
30832W        W47679  17.965   3.197   3.834 -0.0890  0.1257 -0.2481
30833W        W47680  17.013   1.337   2.197 -0.1018 -0.1942  0.0876
30834W        W47681   1.140  11.458  13.793  0.0127 -0.1111 -0.1422
30835W        W47682  13.241   8.254   3.454 -0.0524  0.0783 -0.4195
30836W        W47683   6.922   6.080   0.175 -0.1229 -0.1698 -0.1234
30837W        W47684   2.830   3.417  12.050  0.1766  0.1986 -0.1757
30838W        W47685  14.226   8.532   4.770  0.1840 -0.1077  0.4664
30839W        W47686   3.264   2.918  14.319 -0.0705  0.1173  0.0077
30840W        W47687   4.988  13.647   1.137 -0.2185  0.0498 -0.0832
30841W        W47688  12.773   1.668   4.537 -0.2892 -0.2398 -0.0424
30842W        W47689  12.036   0.039   3.734 -0.3058 -0.2232  0.0772
30843W        W47690  13.143   8.752  16.338 -0.2704  0.2288  0.1365
30844W        W47691  15.085   2.351   0.498 -0.1076 -0.1999 -0.3164
30845W        W47692   6.550   7.949   3.670  0.0551  0.0217  0.2836
30846W        W47693  15.210   6.895   2.279  0.3425  0.0449 -0.3646
30847W        W47694  17.883   6.831  12.614  0.1415 -0.1130  0.2190
30848W        W47695  13.377  14.417   6.279 -0.1267  0.3724  0.0965
30849W        W47696  16.959   2.051   0.420  0.4069 -0.0742 -0.0062
30850W        W47697   4.908   3.379   4.820  0.1556 -0.0931 -0.0156
30851W        W47698  16.471   7.999   5.485  0.2161 -0.0532  0.2175
30852W        W47699   7.868  15.487   3.644  0.2497 -0.0407  0.2091
30853W        W47700   1.104   2.709   4.229 -0.3076  0.0782 -0.1943
30854W        W47701   6.884   6.225  13.345 -0.1491 -0.1207  0.0760
30855W        W47702   3.875   6.136   5.210  0.0460  0.1318  0.0586
30856W        W47703  10.866  11.009   0.347 -0.0758 -0.0317  0.0102
30857W        W47704  14.373   6.939   0.867 -0.1362 -0.4301 -0.0072
30858W        W47705  13.250  12.474   3.914 -0.1417 -0.1664  0.0544
30859W        W47706   1.994  12.549   2.047  0.2808  0.0333  0.0003
30860W        W47707  14.195   8.379  14.515 -0.0721  0.0192 -0.0658
30861W        W47708  13.541   3.185   0.820 -0.1151 -0.0976  0.0051
30862W        W47709  15.547   2.704  14.043  0.1101 -0.4236 -0.1445
30863W        W47710  17.976  14.725   2.319  0.0171 -0.1207  0.0746
30864W        W47711   5.002   6.300  12.590 -0.0749  0.0285  0.1399
30865W        W47712  17.977  11.412  12.251 -0.0797 -0.2640  0.2752
30866W        W47713  13.818  11.523  14.351  0.1266 -0.2776 -0.2142
30867W        W47714  14.244   2.485   3.377  0.1638  0.1122  0.0886
30868W        W47715   9.394   7.952  15.693  0.2839  0.0890  0.2358
30869W        W47716   6.382   9.566  13.483 -0.0752  0.1520  0.1919
30870W        W47717  14.574   5.351  13.910  0.2787 -0.3153  0.2299
30871W        W47718  12.892  12.148  12.870 -0.1471 -0.2382 -0.2672
30872W        W47719  12.048   6.362  15.312 -0.2239 -0.1082  0.1413
30873W        W47720   4.717  14.347   2.488 -0.3476  0.0570  0.1127
30874W        W47721   5.431   8.794   3.577 -0.3174  0.2311 -0.1521
30875W        W47722   6.149  13.941  12.628  0.0788  0.0809 -0.1444
30876W        W47723  12.689  10.875  11.832 -0.1113  0.2915 -0.0236
30877W        W47724  17.829  12.759   0.618 -0.3034  0.1937  0.0344
30878W        W47725   5.073   1.592  14.116 -0.3676 -0.0137  0.2593
30879W        W47726   5.817  14.400   1.453  0.1442 -0.2111  0.1792
30880W        W47727  13.037  17.870   5.090 -0.1989  0.1438 -0.4773
30881W        W47728   4.362   6.517  14.780 -0.0531 -0.0759  0.0008
30882W        W47729   5.856  16.965   5.588 -0.0178 -0.1955 -0.1260
30883W        W47730  11.169  12.069  13.282  0.4639 -0.0303  0.1708
30884W        W47731   0.101   5.342   0.922  0.0425 -0.1816  0.2032
30885W        W47732   7.636   9.136  12.030  0.0183  0.2558  0.0109
30886W        W47733  17.771  12.746   4.998 -0.0982  0.1459  0.1388
30887W        W47734   1.820  16.693  14.717 -0.2338  0.1724 -0.1564
30888W        W47735   9.573   9.392   1.298  0.1149 -0.2735 -0.2147
30889W        W47736   6.647  13.643  13.423  0.0941 -0.1193  0.0071
30890W        W47737   0.836   0.208  12.302 -0.1319  0.1510 -0.0193
30891W        W47738  10.377  17.792  14.576  0.1886 -0.2011 -0.0316
30892W        W47739  10.307  16.558   5.719  0.0479 -0.1425  0.1796
30893W        W47740  14.149  11.041  15.082 -0.0334  0.2460  0.1961
30894W        W47741  17.159  14.023   3.076  0.0355 -0.2642  0.2070
30895W        W47742   0.109   5.806   4.870 -0.2301 -0.1607 -0.1923
30896W        W47743  12.080   1.165  14.464  0.1272  0.0613 -0.0596
30897W        W47744  12.100   9.509   4.541 -0.0579 -0.0542  0.5085
30898W        W47745   1.233   4.406   3.862  0.1307 -0.0274  0.1192
30899W        W47746   8.102   9.655   3.958  0.0235 -0.1487  0.4062
30900W        W47747   2.929   0.440  12.730  0.2834  0.2214 -0.3855
30901W        W47748   0.327   3.897  13.226  0.1544 -0.2715 -0.1001
30902W        W47749   8.134   7.430   1.630 -0.0715 -0.1046  0.2649
30903W        W47750  12.093   9.118  12.874 -0.2076  0.2825  0.0399
30904W        W47751   5.136  10.222  16.534 -0.2586  0.0363 -0.0361
30905W        W47752   3.506   9.982   1.946 -0.0044 -0.0069 -0.1035
30906W        W47753  10.457  14.701  13.796  0.1526  0.1282 -0.0036
30907W        W47754   0.043   7.789  15.229 -0.1350  0.1351 -0.1074
30908W        W47755   6.890   3.130  13.465  0.2478 -0.0245  0.3820
30909W        W47756  16.157   5.496   5.751 -0.0740  0.0205 -0.1529
30910W        W47757   8.970   6.091  12.484  0.2723  0.1397  0.0559
30911W        W47758   1.227   8.949  13.645 -0.0385  0.3184 -0.2624
30912W        W47759  13.670   7.615   4.471 -0.1984 -0.0284 -0.0598
30913W        W47760  16.765   2.198  14.361 -0.1233  0.1038  0.0920
30914W        W47761   9.918  15.710   3.936 -0.3171 -0.1942  0.2108
30915W        W47762  15.101   1.423   3.736  0.0655 -0.1666  0.0778
30916W        W47763  15.152   0.674  12.299 -0.0188  0.1358  0.1197
30917W        W47764  16.333   4.712  14.731 -0.1430 -0.2185 -0.2955
30918W        W47765  10.821   3.761   4.788  0.0127 -0.4043 -0.2704
30919W        W47766   4.308  17.111   3.873 -0.0706  0.0907  0.4396
30920W        W47767   0.925   7.107   4.847  0.0340 -0.1005  0.2811
30921W        W47768   8.017   3.748  12.391  0.0006  0.1054  0.1355
30922W        W47769  17.703   9.286  13.699  0.0360 -0.0377  0.3013
30923W        W47770   5.188  14.998  12.620 -0.0244  0.1171  0.1560
30924W        W47771  10.023   7.308  14.597 -0.0693  0.1108 -0.0663
30925W        W47772  18.009   3.308  16.238 -0.1224  0.2736  0.1510
30926W        W47773   0.098   5.075   3.630  0.0240 -0.0245 -0.0734
30927W        W47774   7.604  16.923  15.563  0.0923  0.2256  0.0393
30928W        W47775   2.433   5.549   2.999  0.2683  0.2651  0.2271
30929W        W47776   1.033  14.399   1.029 -0.1136  0.0126  0.1620
30930W        W47777   9.062   6.872   1.584  0.0411  0.2050  0.0170
30931W        W47778   8.515  15.534   5.642 -0.3234 -0.1758 -0.0120
30932W        W47779   8.156  12.701   5.754  0.1635  0.4820  0.2541
30933W        W47780   0.439  16.589   2.304  0.3945  0.2175 -0.2518
30934W        W47781  11.038  13.226  14.966 -0.1799  0.0728  0.0349
30935W        W47782   2.028  15.034  13.148 -0.1879 -0.1348 -0.0459
30936W        W47783   2.567  16.367   4.837  0.2963 -0.2985  0.0404
30937W        W47784  18.126  10.515   2.297  0.1456 -0.3739 -0.0833
30938W        W47785  13.440  17.698  13.278 -0.3360 -0.0742  0.0471
30939W        W47786   9.189  14.408   5.753 -0.0675 -0.1378 -0.0553
30940W        W47787  15.049  13.999  12.861 -0.1686 -0.0270 -0.1553
30941W        W47788   3.270  11.379  16.452  0.1129 -0.3295 -0.1582
30942W        W47789   3.992  13.068   0.410 -0.0468 -0.1852 -0.0566
30943W        W47790   5.734  12.633  14.879  0.1334  0.0297  0.2647
30944W        W47791  12.861  16.737  12.462 -0.1387  0.1320 -0.0743
30945W        W47792  14.980   5.827   3.193  0.1315 -0.4202 -0.2247
30946W        W47793   9.831  12.414  16.154  0.2523  0.1973 -0.1171
30947W        W47794   3.569   8.213  13.458 -0.0186 -0.0168  0.0904
30948W        W47795   9.271  17.019   2.794  0.1087 -0.1136 -0.1443
30949W        W47796  12.316   6.855   4.764  0.2652  0.0985  0.1661
30950W        W47797   8.705  11.399  13.098 -0.3302 -0.0080 -0.1647
30951W        W47798  11.598  15.714  14.942 -0.1417  0.1677 -0.0402
30952W        W47799   6.050   8.192  13.785 -0.0426 -0.0971  0.2181
30953W        W47800  16.021   4.639   3.966 -0.3339 -0.0010  0.0832
30954W        W47801   0.636  12.782   1.607 -0.1880  0.2260 -0.2138
30955W        W47802   9.578   5.005  11.303 -0.2308 -0.1389  0.3521
30956W        W47803   7.215  12.883   3.326 -0.2383  0.3272  0.4319
30957W        W47804   7.073  14.790   4.577 -0.1810  0.0128  0.2353
30958W        W47805  14.200   1.736  12.452  0.0017  0.0634 -0.1407
30959W        W47806  13.224   9.117  11.753 -0.3074  0.0611 -0.0207
30960W        W47807  13.678   9.146  13.292 -0.1323 -0.0635  0.0900
30961W        W47808  11.371   7.389  14.053  0.0124 -0.1615 -0.0957
30962W        W47809  17.516  11.903   3.461 -0.0739 -0.0055 -0.0055
30963W        W47810   5.279   3.261   5.619 -0.3648  0.2307 -0.0778
30964W        W47811   2.383  16.455  12.973 -0.1555 -0.2285  0.0571
30965W        W47812  16.831   6.696   4.538 -0.4651 -0.0929  0.1146
30966W        W47813  17.148  16.113  11.851 -0.1063  0.2563  0.1036
30967W        W47814   1.208   3.072  11.101  0.0530 -0.3772  0.1312
30968W        W47815   9.422  14.179   5.053 -0.0117 -0.1117  0.2531
30969W        W47816   3.339   6.062   5.402  0.0921  0.1245  0.0326
30970W        W47817   6.471  11.003  15.465 -0.2047  0.1136 -0.1888
30971W        W47818   5.441   1.846  15.600 -0.1696 -0.2247  0.1734
30972W        W47819   2.535   7.717  11.917  0.4288 -0.2261 -0.0150
30973W        W47820  10.190   2.169  14.661 -0.0213 -0.0361 -0.0187
30974W        W47821   8.814  13.627   1.768  0.0464 -0.1102 -0.1762
30975W        W47822   4.023   1.591  14.229  0.1913  0.1185  0.3744
30976W        W47823  12.285   9.790  14.391 -0.0177 -0.1231  0.2564
30977W        W47824   3.989   0.527   0.004 -0.1182 -0.1178  0.0816
30978W        W47825  11.590   5.089   0.571 -0.0467 -0.1115 -0.0596
30979W        W47826   6.831   9.282  12.353 -0.1928 -0.0202  0.2339
30980W        W47827  12.404  12.311  14.581  0.1300  0.1716  0.4008
30981W        W47828  18.023  16.282  13.319  0.3558 -0.1107 -0.1802
30982W        W47829   4.019  12.079   5.393 -0.1861  0.2208  0.2019
30983W        W47830  17.140   3.030   3.642  0.1190  0.0135 -0.1405
30984W        W47831   4.929  11.614   5.615 -0.1246 -0.1975  0.0089
30985W        W47832  17.009  11.335  16.448 -0.0463 -0.0688  0.0559
30986W        W47833  15.260  14.798  12.958 -0.2796 -0.0646  0.1168
30987W        W47834   5.390  12.765   5.111 -0.2943  0.0681 -0.1370
30988W        W47835  10.550   5.119  14.711 -0.1206  0.1896  0.1388
30989W        W47836   1.072   6.086   4.590  0.1054 -0.1490  0.2519
30990W        W47837   7.833  10.237  12.607  0.0484  0.3535 -0.0771
30991W        W47838  17.163   4.134  14.800  0.1005  0.1853  0.0811
30992W        W47839   5.271   9.546   2.493 -0.3020 -0.2628  0.0562
30993W        W47840   7.303   8.184  11.328 -0.2070  0.1715  0.2785
30994W        W47841   6.506   1.328   2.388 -0.3718  0.0150 -0.1760
30995W        W47842   4.828   8.287   0.643 -0.0080 -0.0973 -0.0483
30996W        W47843   6.067   7.957   0.154  0.1198 -0.1757  0.0475
30997W        W47844   7.369   6.914  14.026 -0.1989 -0.1835 -0.1955
30998W        W47845   8.364  13.716  11.173 -0.0637 -0.1324 -0.1909
30999W        W47846  14.296  12.702   3.448 -0.0322  0.0167  0.0393
31000W        W47847   2.376   9.386   2.541  0.0103  0.1852  0.1738
31001W        W47848  16.854  17.378  11.794 -0.0103  0.2003 -0.0336
31002W        W47849   0.546   6.673  13.864  0.0349 -0.0960  0.0140
31003W        W47850   6.407   5.493   1.489 -0.1831 -0.1367 -0.1054
31004W        W47851   0.681   3.073  14.902  0.1158 -0.2746  0.1664
31005W        W47852  13.246  10.452   3.200  0.2745  0.2206 -0.0340
31006W        W47853  14.123   3.518  14.835 -0.1219  0.1714  0.1422
31007W        W47854   5.843   1.917  12.785  0.2772 -0.2741 -0.1403
31008W        W47855  10.539   1.067   4.142 -0.3309  0.2748  0.1494
31009W        W47856   4.959   1.494   2.322  0.1936 -0.0084 -0.0627
31010W        W47857  15.230  10.828  14.999 -0.0485  0.2695 -0.2950
31011W        W47858  10.824   0.948  14.368 -0.4306 -0.4870 -0.1780
31012W        W47859  16.517  15.288   1.247 -0.1841  0.2330  0.1019
31013W        W47860   9.836   3.192   5.578  0.0233 -0.0165 -0.1163
31014W        W47861   0.139   7.472  12.677 -0.0014  0.0348 -0.1376
31015W        W47862  14.653   3.692  13.415  0.0856  0.2624 -0.1034
31016W        W47863  11.539   5.237  10.655  0.1438 -0.2426 -0.0810
31017W        W47864   2.744   9.858   0.708 -0.0300 -0.2801 -0.0403
31018W        W47865  18.152  12.281  15.696 -0.0443  0.0916  0.2844
31019W        W47866   1.429  12.246  16.313  0.0034 -0.1621  0.0501
31020W        W47867  17.071   6.090   1.961  0.2380 -0.2519 -0.3598
31021W        W47868  11.595  17.735   0.142  0.2695  0.1790 -0.1708
31022W        W47869   8.942   1.022  14.197 -0.0803 -0.0996 -0.0311
31023W        W47870  12.144   2.728   1.643 -0.1259 -0.0602 -0.1609
31024W        W47871   2.556  11.018  15.442 -0.1018  0.0795  0.1370
31025W        W47872  10.705   3.366   2.496 -0.2036 -0.0911 -0.1985
31026W        W47873   6.855  17.141  16.068  0.4285  0.0639 -0.1714
31027W        W47874   5.349  17.453   0.657  0.1363  0.1201 -0.2600
31028W        W47875   3.630   6.873   5.840  0.1281 -0.0136  0.2133
31029W        W47876   4.887  11.257  14.900 -0.2340  0.1638  0.1141
31030W        W47877  11.724   6.895  16.020 -0.0457  0.0186 -0.4798
31031W        W47878   0.204   5.642  15.908  0.0867  0.3171 -0.2650
31032W        W47879   0.213  13.372  14.358  0.1163 -0.1501  0.2298
31033W        W47880  15.077  14.006   2.128  0.1504 -0.2100  0.3635
31034W        W47881   0.746   7.734  12.678  0.0428  0.3000  0.2252
31035W        W47882   5.238   6.925  12.907  0.1713 -0.1563 -0.1399
31036W        W47883   8.848  13.839   4.110  0.2721  0.1033 -0.1086
31037W        W47884   2.587  12.012  13.593  0.3132 -0.1122 -0.0772
31038W        W47885  16.719  12.616  12.437 -0.0115 -0.1050 -0.2239
31039W        W47886  15.798  11.051  13.737 -0.0046 -0.2832 -0.0452
31040W        W47887  15.839  11.503  12.247  0.2285 -0.4778  0.0195
31041W        W47888   5.614   5.649   0.362 -0.2880  0.1429  0.0103
31042W        W47889   7.923  10.820   2.703 -0.1087  0.0060  0.0480
31043W        W47890   4.661   4.943   1.347  0.2062  0.0994 -0.3512
31044W        W47891   2.768  14.585  12.832 -0.1641  0.1691  0.1442
31045W        W47892   1.093  10.606  11.412  0.0679  0.0643  0.2586
31046W        W47893   0.423  10.441   1.673  0.2259  0.2772 -0.1976
31047W        W47894   8.706  15.025  16.154 -0.2720  0.0145 -0.1544
31048W        W47895   4.484  13.939  14.398 -0.1419  0.1363  0.1797
31049W        W47896   6.589  14.371  15.414  0.1405 -0.0077 -0.0971
31050W        W47897   1.212   1.232  15.484 -0.2616 -0.0128  0.1674
31051W        W47898  13.255   0.768  11.528  0.2497 -0.0104  0.0239
31052W        W47899  14.220  13.671   3.767 -0.1122  0.0604 -0.0174
31053W        W47900   0.194   0.237   2.377  0.1348 -0.0788 -0.0546
31054W        W47901  12.402  16.692   0.235  0.4945  0.1755 -0.0956
31055W        W47902  14.580   2.247  14.962  0.3610  0.1284  0.1384
31056W        W47903  13.420  11.880   0.566  0.1292 -0.0968 -0.2640
31057W        W47904  10.226  13.573   4.476 -0.1965 -0.0686 -0.0979
31058W        W47905  10.005   5.170  12.244  0.1693 -0.0088 -0.0547
31059W        W47906  16.990  15.982   5.498 -0.0512  0.1866 -0.2239
31060W        W47907  10.710   1.559  13.842  0.0946 -0.1172 -0.1190
31061W        W47908   3.712  10.854  14.240 -0.1756  0.0349  0.1733
31062W        W47909  13.772  13.900  11.218 -0.0708  0.1559  0.0593
31063W        W47910   3.362   7.687  15.539 -0.0897  0.0842 -0.0044
31064W        W47911  11.945   9.237  11.440 -0.0607  0.0814 -0.2928
31065W        W47912   5.330  12.811   1.580  0.1229 -0.0983  0.0018
31066W        W47913   2.239   1.225   4.291  0.0413 -0.0114 -0.1114
31067W        W47914   4.613   3.795   0.970  0.0275  0.1650  0.0443
31068W        W47915   9.545   2.339   0.297 -0.1727  0.1323  0.0176
31069W        W47916  17.507  11.947   3.972  0.1651 -0.1095  0.1857
31070W        W47917   9.778   5.674  11.294  0.1797  0.0466  0.2227
31071W        W47918  16.299   3.093   4.063  0.0550 -0.0124  0.3356
31072W        W47919   5.096  12.102   2.153  0.3928  0.3501 -0.1806
31073W        W47920  12.928  16.565  13.644  0.1600  0.2474 -0.2092
31074W        W47921  13.088   8.307   4.547  0.1455 -0.0109 -0.1587
31075W        W47922   6.431  16.925  13.257  0.0201 -0.3660  0.0747
31076W        W47923   4.523  11.615   0.403  0.1082 -0.1143  0.2757
31077W        W47924   7.155  10.702   4.993 -0.3761  0.0786  0.1026
31078W        W47925  15.164  12.677  15.276  0.2731 -0.1467  0.1366
31079W        W47926  12.817   0.974   1.503  0.2618  0.2906  0.0587
31080W        W47927   1.906  10.078   0.225 -0.0717 -0.2170 -0.1709
31081W        W47928  12.615  17.425   4.252  0.0043 -0.0536  0.0302
31082W        W47929   3.409   6.192   0.589 -0.0106 -0.1974  0.0066
31083W        W47930  14.909  11.041  15.648  0.2040  0.4912  0.0053
31084W        W47931  12.056  17.854   0.424 -0.2635  0.1746  0.1177
31085W        W47932   7.688   5.862  15.525  0.0266 -0.3687 -0.0367
31086W        W47933  14.286  14.912  12.046 -0.1737 -0.0109  0.0391
31087W        W47934  12.698  12.776   2.135  0.1655  0.1168  0.1329
31088W        W47935  12.380  12.339  12.994  0.1766  0.0629  0.0093
31089W        W47936   0.552   5.394  12.627  0.0410  0.1850  0.3362
31090W        W47937   6.817  17.677  14.155 -0.0580 -0.0176  0.4336
31091W        W47938  14.557   8.131   1.301  0.2567  0.2486 -0.1995
31092W        W47939   4.469   3.776  16.131 -0.1571 -0.0416  0.1843
31093W        W47940   8.453   3.047  16.149  0.2655 -0.2268 -0.0775
31094W        W47941   4.139   1.038   2.201 -0.3871  0.2720  0.2575
31095W        W47942  13.397  12.999  13.025  0.1527  0.1609  0.0692
31096W        W47943   8.064   6.905  16.421 -0.0561  0.1215 -0.0525
31097W        W47944   9.597  15.674   3.475 -0.1897  0.0135 -0.0093
31098W        W47945  14.460   5.540   3.412 -0.1395 -0.1956 -0.0526
31099W        W47946  11.773   9.380  16.535 -0.1044 -0.1042 -0.0618
31100W        W47947   0.496  14.914   0.511  0.2638 -0.4072 -0.0388
31101W        W47948  17.689  16.678   4.161  0.0942 -0.0253 -0.0349
31102W        W47949  16.727   2.490   3.276 -0.2553 -0.0380  0.3040
31103W        W47950   3.961   2.044  12.270 -0.2399 -0.0196 -0.0150
31104W        W47951   9.896  17.515   5.678  0.0124 -0.1654 -0.0926
31105W        W47952   0.926   8.417   3.106 -0.1786  0.1026 -0.1066
31106W        W47953   5.754   1.127  15.060 -0.1509  0.1372  0.0231
31107W        W47954  13.191   6.377   0.511  0.0544  0.1087 -0.2088
31108W        W47955   6.591   9.158   2.511  0.0374  0.2377 -0.1423
31109W        W47956   2.015  13.093  16.075  0.1487  0.2404  0.0309
31110W        W47957  13.945  17.334   1.270  0.3022  0.1771  0.0498
31111W        W47958  14.161  10.434  13.133  0.1098 -0.0786 -0.3120
31112W        W47959  16.018  15.664  14.933  0.0479  0.0541 -0.2947
31113W        W47960   8.600   1.565   2.862 -0.1525 -0.2220  0.1820
31114W        W47961  14.626  16.297  15.571  0.1932 -0.1397  0.2599
31115W        W47962  13.206  10.623  13.281 -0.0286 -0.1257 -0.0165
31116W        W47963  12.754   0.995   1.019  0.2987  0.1011  0.0935
31117W        W47964  12.191  15.376   2.183 -0.1182 -0.4591  0.1648
31118W        W47965  15.504   9.184   0.270 -0.2738  0.0058  0.1206
31119W        W47966   5.838  11.346   0.415 -0.3583  0.0532  0.1398
31120W        W47967   0.595  12.356   3.165  0.2643  0.0677 -0.0236
31121W        W47968  17.255  15.425   2.878  0.3164 -0.2620  0.0290
31122W        W47969  12.410   2.838  16.553  0.1347  0.2249 -0.5390
31123W        W47970  10.651   0.244  15.783  0.1413  0.3662 -0.1992
31124W        W47971   9.334  10.488   3.735  0.3945 -0.0425 -0.0150
31125W        W47972   5.686   0.973  14.463  0.3350 -0.1753 -0.0714
31126W        W47973  13.233  15.232   0.724  0.1325  0.1858 -0.0671
31127W        W47974  10.210  13.180  16.041 -0.1164 -0.0835 -0.2099
31128W        W47975   5.987  11.415  15.282  0.0227 -0.1025  0.0764
31129W        W47976   4.620   2.722   2.312 -0.3354 -0.2022 -0.2628
31130W        W47977   8.743   7.916  12.485 -0.2142 -0.1357 -0.1043
31131W        W47978  12.164   1.208   2.768  0.0889 -0.2309 -0.1113
31132W        W47979  13.591   9.588   5.152 -0.1463  0.3014 -0.2194
31133W        W47980  14.452  11.114   4.530  0.4505  0.0862 -0.1057
31134W        W47981   4.923  17.169   2.608 -0.0066 -0.0747  0.0668
31135W        W47982   6.901  11.160   2.347 -0.1345 -0.1351  0.2561
31136W        W47983   8.705  12.754   3.251  0.0191 -0.0273  0.0144
31137W        W47984  13.557   9.965  13.928 -0.0020  0.0669  0.3741
31138W        W47985   8.373   4.511   1.797 -0.1532 -0.1745 -0.1586
31139W        W47986  12.965  15.714  12.742  0.0844 -0.0806  0.1721
31140W        W47987   5.828   1.592   4.926  0.0445 -0.1405 -0.2221
31141W        W47988  17.844  14.191   2.348 -0.1321  0.2402  0.0828
31142W        W47989  15.383   3.451  15.541  0.0218  0.1042  0.0896
31143W        W47990   7.046  14.212  12.664 -0.1803  0.1781 -0.0559
31144W        W47991  11.627   0.169   4.025  0.3895 -0.2396 -0.3263
31145W        W47992  16.074  15.311   0.673  0.1845  0.1873  0.1774
31146W        W47993  16.562  10.932  12.011 -0.2338  0.0479 -0.1944
31147W        W47994   6.919  14.100  14.636 -0.2154 -0.0651  0.2823
31148W        W47995  15.279  11.285  15.368  0.0924  0.0930 -0.0098
31149W        W47996   4.557   1.983   1.154  0.0720 -0.0631  0.0859
31150W        W47997  12.395  14.000   3.062  0.0808  0.1948  0.3682
31151W        W47998  10.962   5.812  10.334 -0.1317 -0.0270  0.4980
31152W        W47999  13.375   6.338   0.007  0.1556  0.1023 -0.0310
31153W        W48000  10.379   5.993  15.182  0.0746  0.2198 -0.3091
31154W        W48001  11.823   9.031   1.710  0.2705 -0.1196 -0.0603
31155W        W48002   8.562  11.953  16.365  0.3208 -0.0976  0.1183
31156W        W48003   8.774   2.911   4.100 -0.0118  0.1078  0.0321
31157W        W48004  17.601   6.548  12.986 -0.2889  0.0398 -0.0014
31158W        W48005  17.932   1.219  16.278  0.3116  0.0593 -0.1259
31159W        W48006   0.911  12.319  16.358  0.1101 -0.3632 -0.0017
31160W        W48007  13.428   5.649   4.923  0.1565 -0.4218  0.2357
31161W        W48008   9.057   0.521   0.735 -0.1235 -0.1412 -0.1089
31162W        W48009   5.058   7.542   3.288  0.1333 -0.0285  0.2429
31163W        W48010   0.831  15.598  15.562  0.0036  0.0182  0.1364
31164W        W48011  14.660   9.931   2.009 -0.1754 -0.0655  0.3870
31165W        W48012   5.704   2.580   3.730 -0.1655 -0.1900  0.1950
31166W        W48013  11.522  13.717  15.479  0.3061  0.1375 -0.0751
31167W        W48014  17.269   9.090   3.104 -0.4090 -0.0036 -0.0979
31168W        W48015   0.650   7.320  11.157 -0.0614 -0.1135  0.0028
31169W        W48016   8.315  15.512  15.517 -0.1055  0.2112  0.0773
31170W        W48017   1.842  10.274  11.931 -0.0232  0.0559 -0.0960
31171W        W48018   7.947   8.460   2.318 -0.2554  0.1184 -0.1249
31172W        W48019  13.840   6.899   1.554  0.0259  0.0893  0.3311
31173W        W48020  13.118  13.121   1.585  0.3644 -0.0495 -0.0391
31174W        W48021   2.356  11.851   5.259  0.1098 -0.3408 -0.0345
31175W        W48022  16.620  11.090   3.169  0.0078  0.0336  0.0130
31176W        W48023   4.772  13.942  15.580  0.0097 -0.2383 -0.2516
31177W        W48024   1.434  11.743   5.652 -0.0085  0.3200 -0.2830
31178W        W48025   3.914   9.639   5.128  0.0610  0.2723 -0.3593
31179W        W48026  11.444   7.517   0.092  0.1372 -0.2353 -0.1781
31180W        W48027   5.227   6.742   2.283  0.1000 -0.2313 -0.1146
31181W        W48028  17.677   7.024  15.185  0.1510 -0.1717 -0.2383
31182W        W48029   8.746  11.713   4.165  0.1515 -0.1935 -0.1818
31183W        W48030  16.970   1.364  13.898  0.3013 -0.2147 -0.0097
31184W        W48031  12.796  12.105  12.338  0.0455  0.2806  0.0801
31185W        W48032  13.339  12.909   2.838 -0.1906  0.1530  0.1390
31186W        W48033   3.239  17.956  12.150 -0.0132 -0.2570 -0.1176
31187W        W48034   6.689   9.697  11.311 -0.0911 -0.0305  0.0085
31188W        W48035  17.148   3.137  11.834 -0.0133  0.0660  0.0658
31189W        W48036   7.499  11.732   5.418 -0.0195  0.2921 -0.0799
31190W        W48037   1.743   6.454   6.258  0.2966 -0.0485 -0.1544
31191W        W48038   0.483   7.549  12.213 -0.0166  0.0918 -0.0915
31192W        W48039   3.020   5.575   0.942  0.1006 -0.0301 -0.3265
31193W        W48040  11.949   2.992  16.229 -0.0817 -0.0251  0.5303
31194W        W48041   2.921  14.352   5.073  0.1286  0.1104  0.2039
31195W        W48042   5.798   4.859  16.050 -0.1295  0.0576 -0.0732
31196W        W48043  10.004   2.834   1.124 -0.1115  0.2036 -0.0801
31197W        W48044   1.263  16.855   1.413  0.0398 -0.1467  0.0458
31198W        W48045   2.477  11.643  15.924 -0.2287 -0.0201  0.1604
31199W        W48046  12.022   8.462   3.583  0.0639  0.0196  0.0944
31200W        W48047  13.253   9.605  12.241  0.0219 -0.1626 -0.0737
31201W        W48048  12.774  17.504   0.915 -0.2094 -0.0363  0.2442
31202W        W48049  11.146   9.939  11.636  0.0658 -0.3057  0.1703
31203W        W48050   0.497  10.053  13.533 -0.0378  0.1671 -0.0875
31204W        W48051  11.863  14.717   1.356  0.2264  0.5073 -0.0118
31205W        W48052  13.897  13.110   5.170 -0.3715 -0.0871 -0.0320
31206W        W48053  12.456  12.290   1.920 -0.0532 -0.0197 -0.1970
31207W        W48054  11.917  12.755  11.681 -0.2473  0.1619  0.0081
31208W        W48055  17.247   6.801  14.274 -0.3194  0.1155 -0.3150
31209W        W48056   6.372  10.046   0.216  0.0406  0.1763 -0.0960
31210W        W48057   9.751   9.979   5.790 -0.1635  0.3257  0.1629
31211W        W48058  11.351   9.342  13.293  0.2768 -0.3351  0.0048
31212W        W48059   6.248   3.973  14.444  0.1002 -0.1615  0.1064
31213W        W48060  13.520   0.718   5.237 -0.0865  0.0898 -0.2306
31214W        W48061   8.863  18.148   0.358 -0.2615 -0.0921  0.0947
31215W        W48062   5.620  15.523  15.063 -0.1218  0.0368  0.1287
31216W        W48063  17.296   5.959  14.567  0.0780  0.2474  0.0582
31217W        W48064   5.589   0.456  14.228 -0.0907 -0.1076 -0.0312
31218W        W48065  13.685  15.194  13.049  0.0187 -0.0163 -0.1226
31219W        W48066   2.656  13.578   5.339 -0.1131  0.1340  0.3538
31220W        W48067  10.352  17.640   2.863 -0.0406 -0.1831  0.0921
31221W        W48068  14.761   6.934   2.549  0.1861 -0.3646 -0.2827
31222W        W48069  14.915  17.097   5.015  0.0688  0.1380  0.1834
31223W        W48070  12.653   3.658   4.487 -0.0294  0.4942 -0.0737
31224W        W48071   2.306   6.004  15.649  0.0093  0.2803  0.0847
31225W        W48072   4.093   4.809   2.493 -0.1040  0.0442 -0.1791
31226W        W48073   3.644   3.704   3.952 -0.1584  0.1587  0.1855
31227W        W48074   8.710  17.435   1.612  0.0534  0.1460 -0.2099
31228W        W48075   2.199   9.500  13.261  0.2178  0.0424  0.0566
31229W        W48076   0.357  14.682  12.924 -0.0677  0.1573  0.2162
31230W        W48077  11.169   9.665  15.887 -0.1511  0.1625 -0.0269
31231W        W48078   8.072   2.035  13.948  0.2024 -0.4352 -0.4344
31232W        W48079   0.364   7.401  16.417  0.2044  0.0923 -0.2026
31233W        W48080  10.694   0.901   0.027 -0.2112 -0.1823  0.0571
31234W        W48081   5.308   7.328  11.675  0.2467  0.1052 -0.0322
31235W        W48082   0.783  15.684  16.093 -0.1554  0.0940 -0.1381
31236W        W48083  10.806   8.749  14.466  0.0655  0.0216  0.4360
31237W        W48084   9.477   9.826   1.769 -0.0781 -0.2285 -0.0202
31238W        W48085  16.418   0.318  11.968 -0.0174  0.0116  0.3774
31239W        W48086   0.196   5.677   0.468 -0.1763  0.0233 -0.1054
31240W        W48087   8.491  11.817   3.370 -0.2103 -0.1273 -0.3192
31241W        W48088   0.758   7.955  13.922 -0.0061  0.0780  0.2376
31242W        W48089  14.931   7.271  15.178 -0.0103 -0.1448 -0.0552
31243W        W48090  15.823  13.739   0.987 -0.2249  0.1773  0.1320
31244W        W48091   2.946   6.046   0.710  0.0052 -0.2090 -0.0980
31245W        W48092  10.953  14.625   0.227  0.0368 -0.0622 -0.0798
31246W        W48093  13.923  15.334  13.496 -0.1290 -0.0459 -0.1295
31247W        W48094  13.181   3.724  13.039  0.0197 -0.1312 -0.1928
31248W        W48095  10.543  11.493   2.589 -0.1040  0.2885  0.1222
31249W        W48096  12.039   3.796   2.448  0.0960  0.0971  0.1911
31250W        W48097   3.644  11.425  12.084 -0.0381  0.1168 -0.1058
31251W        W48098   1.874  13.064   5.334  0.0764  0.0499 -0.0574
31252W        W48099  10.593   5.347   3.176  0.1620  0.0342 -0.1104
31253W        W48100   8.865   5.934   4.268 -0.1019 -0.0296 -0.3660
31254W        W48101   1.064   8.898  12.667 -0.0534  0.0321  0.0645
31255W        W48102   8.719  14.658  13.546  0.1883 -0.0298  0.2557
31256W        W48103  11.555   4.911  11.039 -0.2385  0.2134 -0.1093
31257W        W48104  16.109  10.816  11.542 -0.3056  0.0865  0.0526
31258W        W48105  16.022   1.961   5.139  0.2201  0.4025 -0.0067
31259W        W48106  15.996  16.068  13.490  0.1381 -0.0038  0.2181
31260W        W48107   7.870  11.078   2.189 -0.1266 -0.1576 -0.0765
31261W        W48108  17.883   4.794   4.430  0.2106  0.1098  0.2971
31262W        W48109   9.710   3.337  14.082 -0.1036  0.1426  0.0928
31263W        W48110  18.114   9.821   5.630  0.3488 -0.1103  0.4038
31264W        W48111  14.970  14.984  16.312  0.0344 -0.1179  0.0249
31265W        W48112  12.321   7.706   3.659  0.0323  0.0490 -0.1976
31266W        W48113   8.501  11.531   4.799  0.1779  0.3610  0.3167
31267W        W48114   0.519   7.565   2.249  0.1572  0.0319  0.3031
31268W        W48115  11.595  11.521  12.314 -0.3755 -0.0966 -0.2035
31269W        W48116  17.360  15.342  12.096 -0.0509 -0.1678  0.1728
31270W        W48117  13.343   4.644   4.756  0.1556 -0.4142  0.1261
31271W        W48118  17.370  13.685   4.138  0.0480  0.1792  0.0051
31272W        W48119   6.268  16.618   5.584  0.1185 -0.3289 -0.2615
31273W        W48120   4.199   9.317   1.288  0.0646  0.3634  0.0802
31274W        W48121   9.737  14.084  16.500  0.4457 -0.2723 -0.2566
31275W        W48122  17.532   5.318  13.947  0.3588 -0.0600 -0.1034
31276W        W48123  15.255   7.687  12.276  0.1434 -0.1736  0.1189
31277W        W48124  12.164  17.041   4.422 -0.1525  0.1628  0.1924
31278W        W48125   0.848   6.814   1.905  0.1483 -0.0515  0.0328
31279W        W48126   8.429   9.934   3.700  0.3763 -0.2447 -0.1713
31280W        W48127  17.258   3.035   4.649  0.1315 -0.1676  0.0490
31281W        W48128   6.400   7.995  15.299 -0.0409 -0.1199 -0.0298
31282W        W48129   2.699  15.192   2.058  0.0270  0.3340  0.0424
31283W        W48130   7.747  11.384  11.762 -0.0290 -0.0487  0.1699
31284W        W48131   6.797   0.227   3.273  0.3220  0.0950  0.1369
31285W        W48132  17.148  11.609   3.662 -0.1896  0.2956 -0.0519
31286W        W48133  12.086  13.770   1.668 -0.1536  0.1898 -0.1216
31287W        W48134  15.536  10.172   0.039 -0.1407 -0.0581  0.0886
31288W        W48135   6.661   5.359   4.937  0.0590 -0.1496 -0.2237
31289W        W48136   7.961   0.022  14.163  0.0791 -0.0082 -0.2750
31290W        W48137  12.673   3.412   2.060  0.0731  0.1062  0.2812
31291W        W48138   7.649  15.839   2.695 -0.0752 -0.3347 -0.1144
31292W        W48139   1.027   7.521  14.278 -0.2818 -0.1288  0.1499
31293W        W48140  10.428  16.247  16.348  0.0248  0.2772  0.1763
31294W        W48141   5.371  13.104  12.749 -0.2176  0.0537  0.1791
31295W        W48142   2.682   2.697  15.496  0.1115  0.1111  0.3000
31296W        W48143   9.130   1.579  12.489 -0.1296 -0.0676 -0.2412
31297W        W48144   2.782   9.130   0.618  0.0925  0.0145  0.1318
31298W        W48145  15.117  15.014  15.457  0.1037 -0.1559 -0.0893
31299W        W48146   4.417   2.992   6.252 -0.1101  0.1329 -0.2688
31300W        W48147   0.504   9.481  15.758 -0.2109  0.1847 -0.2071
31301W        W48148   0.411   2.113  11.444  0.0241 -0.0915 -0.0777
31302W        W48149   3.608  13.314  15.102 -0.1756 -0.0129 -0.0089
31303W        W48150   7.434   5.921   2.027  0.1061  0.2704  0.2358
31304W        W48151  11.963   2.794  15.773  0.2905  0.1213 -0.2130
31305W        W48152  13.671  13.182  11.836 -0.0828  0.0484  0.0485
31306W        W48153   6.335   2.412   1.589  0.2104 -0.1237  0.4876
31307W        W48154   1.255  17.019  14.145  0.1910  0.3162 -0.0612
31308W        W48155  17.031  14.481  14.266 -0.0657 -0.3067 -0.2150
31309W        W48156   6.106   8.060   1.344  0.1620 -0.0406 -0.3312
31310W        W48157  11.215  12.608   2.948 -0.2443 -0.1584  0.0969
31311W        W48158   5.423   9.537  13.431  0.0425 -0.0806 -0.0641
31312W        W48159  16.029  14.226  14.560  0.2460 -0.0265 -0.2883
31313W        W48160  11.638   8.212  13.533 -0.2082 -0.0440  0.2814
31314W        W48161   0.900  17.956   0.660 -0.0877  0.1928 -0.1999
31315W        W48162   1.000   9.877  12.131 -0.0385  0.1942 -0.1232
31316W        W48163   4.271   9.290  12.359 -0.3607 -0.1409 -0.3034
31317W        W48164  16.184  17.257   2.668 -0.0235 -0.1616 -0.0138
31318W        W48165  16.360   0.471   5.764  0.1005 -0.3603  0.1047
31319W        W48166  12.182   6.202   3.594  0.1871  0.0839 -0.1241
31320W        W48167   9.915   7.178   3.073  0.0164 -0.0600 -0.1002
31321W        W48168  11.389   3.605   1.816  0.0473 -0.0817 -0.0074
31322W        W48169  13.821   0.918  12.757  0.0172 -0.1060 -0.1358
31323W        W48170   6.485  16.952   0.123  0.3123  0.1244  0.0245
31324W        W48171  12.483   6.638  15.270  0.0625  0.4171  0.4223
31325W        W48172  10.768  12.133  13.589  0.1662 -0.0246  0.0262
31326W        W48173   0.261   3.088   2.505 -0.1318  0.1919  0.0281
31327W        W48174   8.248  13.743  13.683  0.2757 -0.0166 -0.0702
31328W        W48175   9.702   7.278   2.670 -0.3526 -0.1774  0.1789
31329W        W48176   8.361   1.806  13.521  0.0299 -0.1671  0.3042
31330W        W48177   4.490  14.765  14.603 -0.0047 -0.0430 -0.3320
31331W        W48178  14.366  11.378  13.696 -0.0282 -0.0091 -0.1712
31332W        W48179  14.255   5.891   1.331 -0.1577  0.0369 -0.1269
31333W        W48180  11.678   2.222  13.031  0.0091 -0.1010  0.2712
31334W        W48181   9.805   0.742   3.408  0.2099  0.0534  0.1313
31335W        W48182  14.426   0.105   1.610 -0.0863 -0.0411 -0.1019
31336W        W48183  16.497   4.808  15.262  0.0795  0.0799 -0.2150
31337W        W48184   6.142   5.264  16.179  0.1321 -0.1874  0.0338
31338W        W48185  15.254  17.802  11.549 -0.2387  0.0585  0.2030
31339W        W48186  10.310   3.923  16.134 -0.3561 -0.1749 -0.0626
31340W        W48187   7.860  14.176  11.903  0.0838  0.1914 -0.1136
31341W        W48188  17.077   5.186   5.427 -0.3379  0.0649 -0.1123
31342W        W48189   6.972  10.749   0.588  0.1073 -0.0074 -0.1163
31343W        W48190   3.831   4.139   3.752  0.2227 -0.1944  0.0882
31344W        W48191  15.245  15.800   1.066  0.1640  0.2771  0.1359
31345W        W48192   3.359  18.110  11.540 -0.2916  0.0286 -0.0295
31346W        W48193  15.447   0.792  14.170  0.1688 -0.0560 -0.2043
31347W        W48194   5.117   8.007  16.156 -0.3703 -0.1588  0.0574
31348W        W48195   6.657   3.620   2.782  0.0308  0.0019 -0.1142
31349W        W48196   6.324  13.965   0.893  0.4320  0.1935  0.0585
31350W        W48197  15.824  11.936   1.334 -0.0370 -0.1743 -0.1622
31351W        W48198   4.342   0.455  14.167 -0.0090  0.1451  0.0108
31352W        W48199   5.779   0.624  12.970 -0.1428 -0.0818  0.0619
31353W        W48200  16.967   7.882  13.086  0.0303  0.1887 -0.1338
31354W        W48201   6.544  12.281   4.556 -0.1247  0.2520 -0.0398
31355W        W48202  16.858  14.353  13.704  0.1272  0.1972 -0.1830
31356W        W48203  13.409   2.110  13.944 -0.0080  0.1457  0.1120
31357W        W48204   7.575   7.131  15.089  0.0493  0.1471  0.0612
31358W        W48205   9.720  17.268   3.587 -0.0242 -0.1979  0.1468
31359W        W48206  11.342  10.909   0.342  0.0390  0.0003 -0.4790
31360W        W48207   4.603   4.558  13.613 -0.1330  0.1906  0.5419
31361W        W48208  13.932   5.381  13.070 -0.0930 -0.2463 -0.0724
31362W        W48209  15.375  17.105  13.126 -0.0447 -0.2341 -0.2285
31363W        W48210  14.454   8.611  15.256  0.1174  0.0475 -0.1207
31364W        W48211   6.260   1.662   2.121  0.1368  0.1665  0.1361
31365W        W48212  10.010  15.349  14.734  0.1162  0.1669 -0.1684
31366W        W48213   7.943  12.107   1.251  0.3805 -0.2986 -0.0478
31367W        W48214   8.787  12.807   1.915 -0.3531 -0.0359  0.3649
31368W        W48215   9.949   0.300  15.141  0.1411 -0.1814 -0.0754
31369W        W48216  17.959  16.751  15.433  0.1675 -0.0087 -0.3381
31370W        W48217   8.793  17.465   2.509  0.1677  0.0987  0.0138
31371W        W48218  14.912  12.290   1.610  0.0686  0.0020  0.2717
31372W        W48219  16.806  13.077  15.419  0.1532  0.0528 -0.1334
31373W        W48220   3.255   3.465   3.647  0.0819  0.0023 -0.1047
31374W        W48221   6.890   7.842  15.601  0.0658 -0.2823 -0.4072
31375W        W48222   3.850  10.429  11.924 -0.1672  0.0132 -0.0284
31376W        W48223   5.312  11.059   6.440  0.0478  0.3235 -0.0448
31377W        W48224   2.409   4.075   4.851  0.0055  0.0905 -0.4555
31378W        W48225  10.346   7.074  14.928 -0.0887 -0.2304 -0.0113
31379W        W48226  16.752   0.376  16.432  0.0676  0.2179  0.0694
31380W        W48227  12.024   5.103  13.642  0.0110  0.0529  0.0859
31381W        W48228  11.266   0.474   3.225 -0.0350 -0.1279  0.0600
31382W        W48229  12.315   5.287   1.121  0.1990 -0.2381  0.0857
31383W        W48230  14.500   2.899  15.479 -0.1725 -0.1579  0.1371
31384W        W48231  18.128   1.817  16.343  0.0304  0.2945  0.0766
31385W        W48232  10.107   8.644   1.707  0.3147  0.3087  0.0695
31386W        W48233  14.169  11.976  16.517 -0.0766 -0.0180 -0.1324
31387W        W48234  14.257   6.847   6.133  0.2568  0.2379 -0.0531
31388W        W48235   1.928   4.226   1.822  0.1188  0.0291 -0.1647
31389W        W48236  11.349   4.616  15.527 -0.1893  0.1557 -0.1225
31390W        W48237   2.026  15.446   1.130 -0.1110  0.1838  0.0741
31391W        W48238  10.782  17.830  13.626  0.2123  0.1802 -0.0000
31392W        W48239  13.952   2.172  11.695 -0.1691  0.0292  0.2829
31393W        W48240  16.902   0.687   2.894  0.0269  0.3787 -0.1154
31394W        W48241  15.819   8.391   3.006 -0.1001 -0.2398 -0.0384
31395W        W48242   8.402  13.716   0.837  0.2834  0.0699  0.0573
31396W        W48243  13.495  18.117   4.996  0.0312 -0.1254 -0.1349
31397W        W48244   0.433  16.564  16.396  0.0969 -0.0129  0.2489
31398W        W48245  10.371   6.567   1.581 -0.1502  0.2037  0.2832
31399W        W48246  15.778  13.572  16.247 -0.1520 -0.0509 -0.0984
31400W        W48247   6.609   6.612   5.743 -0.1730 -0.0058  0.1743
31401W        W48248  10.469  15.560  12.263 -0.2476 -0.0661  0.2094
31402W        W48249   5.699   5.259  15.162 -0.1347  0.0390 -0.0055
31403W        W48250   8.292  13.068  15.790 -0.1018 -0.0788  0.3101
31404W        W48251   4.873   7.410  11.941 -0.1209  0.2463 -0.0700
31405W        W48252   6.680   2.567  16.379  0.1016 -0.3003 -0.1981
31406W        W48253   4.106   8.454  12.776  0.2103  0.1323 -0.2665
31407W        W48254   0.234  14.408   3.558  0.1640  0.0921  0.0265
31408W        W48255   7.205  15.963  11.619 -0.1779 -0.1681  0.2779
31409W        W48256  15.719  11.611   4.673 -0.0460  0.2466  0.1217
31410W        W48257  12.671  13.240  16.395  0.0007  0.0025 -0.5174
31411W        W48258  15.920   8.314   0.838  0.0116  0.1583 -0.4383
31412W        W48259  14.084  10.145  15.223 -0.1474 -0.0608 -0.0316
31413W        W48260  15.105   8.624   0.616  0.1761 -0.0285  0.0688
31414W        W48261  15.300   6.905  11.867 -0.0033  0.0108  0.2184
31415W        W48262   3.367   8.546   3.049 -0.1062  0.1360  0.0232
31416W        W48263   3.547  10.559   1.063  0.2128 -0.0985 -0.2068
31417W        W48264   2.055   0.744  13.088  0.1615 -0.0839 -0.4349
31418W        W48265   5.117   8.511   2.911 -0.1577 -0.0049 -0.0846
31419W        W48266  17.768   3.769  14.072 -0.1072  0.3168  0.0315
31420W        W48267   6.292   6.178  14.131  0.1003 -0.1543 -0.2490
31421W        W48268   1.011  12.298   3.723 -0.0174 -0.0912 -0.1197
31422W        W48269  17.400  12.056  14.561 -0.1925 -0.1473 -0.2195
31423W        W48270   4.504   9.713   2.860  0.0239 -0.2584 -0.2547
31424W        W48271   5.147   7.189   4.366  0.0310  0.0084 -0.0384
31425W        W48272   5.073   0.627  15.303  0.3117  0.1269 -0.3828
31426W        W48273   1.464  15.491  15.080  0.2177 -0.1091  0.3459
31427W        W48274   8.190   0.614  12.494 -0.1043  0.0727 -0.1006
31428W        W48275   8.570  17.049  13.407 -0.1385  0.0791  0.1245
31429W        W48276   9.980  17.228  13.297  0.2735  0.0766 -0.0907
31430W        W48277   7.689   9.828   1.761  0.1821 -0.1472  0.0332
31431W        W48278  10.775   3.272   1.560 -0.0415  0.0211 -0.2041
31432W        W48279   1.723   9.086  14.958  0.0268 -0.1504 -0.2061
31433W        W48280   2.102   6.722   1.436  0.0956 -0.2500  0.2382
31434W        W48281   8.414  13.540  14.246  0.0855 -0.1025  0.1783
31435W        W48282  11.603  16.238  13.588  0.0039  0.1219 -0.1961
31436W        W48283  10.008   6.313   5.527  0.2090 -0.0651 -0.2280
31437W        W48284  16.990   5.354   6.062 -0.1434 -0.0905 -0.1151
31438W        W48285  14.562   7.285   6.142 -0.2164 -0.0284 -0.1923
31439W        W48286  11.919  13.833   2.126 -0.0328  0.1774 -0.1456
31440W        W48287  16.216   0.339  12.544  0.2349  0.1049 -0.1504
31441W        W48288  15.021  16.913   2.751  0.0243  0.1991 -0.1545
31442W        W48289   4.017  13.209   4.352 -0.1246 -0.0858  0.1658
31443W        W48290   8.617   4.603  16.431 -0.1218  0.1082 -0.1059
31444W        W48291  13.200  16.458  16.061  0.1466  0.0209 -0.1071
31445W        W48292   8.267   0.466  16.067 -0.3021 -0.0558  0.1057
31446W        W48293  16.237  16.380  12.087 -0.0647  0.0374 -0.0408
31447W        W48294  16.472  17.685  11.478 -0.1981 -0.1389 -0.4607
31448W        W48295  13.953   4.182  11.944  0.1781  0.0304  0.1551
31449W        W48296  15.004  13.981   0.634  0.2084 -0.0196  0.1191
31450W        W48297  17.493   0.150   4.871  0.2041  0.0783 -0.2372
31451W        W48298   4.222  13.759   4.702  0.0441 -0.1521 -0.0326
31452W        W48299  13.929   3.857   3.824  0.2222  0.2073 -0.2473
31453W        W48300  14.669   1.555  11.441 -0.0065 -0.0686 -0.2563
31454W        W48301   4.360  14.011   2.018  0.0129 -0.0446 -0.1418
31455W        W48302  15.045   9.012   1.075 -0.1015 -0.1631 -0.2481
31456W        W48303  11.818  15.514  14.458 -0.0530  0.0147 -0.0233
31457W        W48304   9.742   6.921   4.337 -0.0616 -0.0588  0.4622
31458W        W48305  17.059   9.451   0.181 -0.2637 -0.2947 -0.1024
31459W        W48306   6.960   0.952  16.370 -0.0082  0.0887 -0.0170
31460W        W48307   2.271  17.183   1.412  0.2426  0.1045 -0.0088
31461W        W48308  10.098  16.271  13.011 -0.1558 -0.1113  0.0847
31462W        W48309   6.367  16.459   1.841  0.2192 -0.0367 -0.2169
31463W        W48310  12.389   5.344   3.942 -0.0402 -0.3292 -0.1367
31464W        W48311  17.607  12.112  15.734 -0.3610 -0.1300  0.3401
31465W        W48312  15.032   7.340  11.354 -0.0434  0.3144  0.1773
31466W        W48313  17.616   6.252   4.979  0.1051  0.0237  0.0539
31467W        W48314   0.110  16.945   0.690 -0.0321  0.0713 -0.2676
31468W        W48315   7.474   3.606   2.488  0.4612  0.0753 -0.0273
31469W        W48316  14.629   5.509  14.560  0.0878  0.0547  0.0449
31470W        W48317   3.925  12.256   1.575  0.1727  0.0261 -0.1192
31471W        W48318  17.073  13.218  13.342  0.0865  0.1146 -0.1352
31472W        W48319  13.573   1.358   1.940 -0.0021  0.1511 -0.1241
31473W        W48320   0.000   3.776  16.098  0.0303 -0.0262  0.2364
31474W        W48321   4.501   1.328   5.075  0.2276  0.0481  0.1972
31475W        W48322   7.868   9.284  15.846 -0.0039 -0.0944  0.2708
31476W        W48323   9.062  16.890   3.596  0.1305 -0.1268  0.1253
31477W        W48324  17.506  11.961  13.225  0.1922 -0.0353 -0.0579
31478W        W48325  14.879  13.639  13.809  0.1930  0.1729  0.0715
31479W        W48326  13.637   5.581  16.592 -0.0703 -0.0994 -0.2188
31480W        W48327  16.024   7.807  13.977 -0.1579  0.1063  0.1279
31481W        W48328   1.753  12.507  15.106 -0.0300  0.0367 -0.1047
31482W        W48329   9.071  17.684  15.621  0.0085  0.0094 -0.2270
31483W        W48330   1.896  10.810  13.364  0.0050 -0.1626  0.3332
31484W        W48331  16.326   1.152   1.012 -0.0419 -0.1716 -0.2913
31485W        W48332   8.472   4.138  16.121 -0.6414  0.0880 -0.1776
31486W        W48333  11.526  16.323  15.566  0.0376  0.3993  0.0760
31487W        W48334   2.704   3.680   3.383 -0.2121  0.0342 -0.0170
31488W        W48335  17.572   3.965   1.833 -0.3593 -0.0240  0.1526
31489W        W48336   4.127  15.125  12.617  0.0461 -0.1991 -0.2550
31490W        W48337   7.155   0.049   1.384 -0.0677  0.2195  0.0374
31491W        W48338  11.895  12.202  13.224 -0.4345  0.0685 -0.0569
31492W        W48339  16.660  12.131   2.974  0.1338  0.2281  0.0556
31493W        W48340  11.220   5.737  15.515 -0.0349  0.1169 -0.0079
31494W        W48341   7.735  11.344   4.539 -0.1864  0.2602 -0.0316
31495W        W48342  14.103  11.951   0.771 -0.1650  0.0628 -0.4780
31496W        W48343   6.652  14.524   0.213  0.2188  0.0899 -0.1096
31497W        W48344  17.524  13.367   3.784 -0.0827 -0.2014  0.0102
31498W        W48345   9.384  13.059   4.413 -0.2812 -0.0131 -0.0536
31499W        W48346  13.487  16.362  16.455 -0.2868 -0.3176  0.1714
31500W        W48347   5.567   3.435   1.244  0.0712  0.0436  0.0831
31501W        W48348   0.013   7.495  13.505 -0.0797 -0.0081 -0.1808
31502W        W48349   8.045   9.384  11.239 -0.1663 -0.1406 -0.0123
31503W        W48350   2.824  10.811   3.547  0.1637  0.0671  0.0322
31504W        W48351  12.341  14.894  11.535  0.3843 -0.0764 -0.1068
31505W        W48352  14.290  14.942  13.580 -0.0000 -0.1627 -0.1278
31506W        W48353  15.566  18.144  11.316  0.0372  0.1409  0.1273
31507W        W48354   7.014   7.144  12.596  0.1048  0.1907  0.1307
31508W        W48355  12.504   2.099  16.034  0.0006  0.2353 -0.4854
31509W        W48356   0.042  14.950   5.435  0.3245 -0.1955 -0.0658
31510W        W48357  11.711  13.651  10.311 -0.1522 -0.1489  0.2911
31511W        W48358   8.357   8.541   2.969  0.1132  0.0850 -0.1402
31512W        W48359  10.987   1.944  15.103 -0.2352  0.1909  0.0728
31513W        W48360   1.766   8.463   1.798 -0.1632 -0.0538  0.0075
31514W        W48361   6.793  11.620  13.779  0.2338  0.0952 -0.0442
31515W        W48362   9.673   0.792   1.948 -0.0496 -0.0564 -0.0527
31516W        W48363  16.367   2.008  13.465  0.1496 -0.1588 -0.1102
31517W        W48364   0.979   5.048   3.315  0.0680 -0.0788  0.0990
31518W        W48365  10.953   9.594   0.068 -0.1722 -0.1679 -0.0411
31519W        W48366   1.727   5.985  14.068 -0.3607 -0.1121  0.0763
31520W        W48367   3.620   2.006  11.538  0.0244  0.2447 -0.1379
31521W        W48368   9.796   3.814   2.553 -0.0585  0.0525 -0.0334
31522W        W48369   6.178   9.496   3.355  0.1070  0.2069 -0.1700
31523W        W48370   7.260   6.030  13.874  0.0695  0.1658 -0.3182
31524W        W48371  14.328   7.117   2.289  0.1844 -0.0138 -0.1221
31525W        W48372   6.863  13.905  13.763  0.1764  0.3072  0.0863
31526W        W48373   1.633   8.208  13.612 -0.1357  0.1931  0.1204
31527W        W48374  17.251  17.840  16.122  0.2320  0.2757  0.2280
31528W        W48375  14.815   4.850  16.333  0.0264 -0.1947  0.0397
31529W        W48376   9.547  11.855  12.751 -0.0970  0.0709 -0.3272
31530W        W48377   5.253   3.195   2.400 -0.3147  0.1473 -0.0245
31531W        W48378  11.551  13.272   0.164 -0.2582  0.0751  0.0571
31532W        W48379  11.277   8.405   1.693  0.1809  0.4107 -0.1670
31533W        W48380   6.063  10.015  12.207  0.1542 -0.1215  0.0061
31534W        W48381   9.018   2.572   2.001 -0.1578 -0.0485 -0.3933
31535W        W48382  14.634   4.439   4.138 -0.0091  0.2895  0.1145
31536W        W48383  13.558   0.169   0.264 -0.3062 -0.0466  0.1352
31537W        W48384  11.984   7.538   4.041  0.0034  0.0240 -0.0052
31538W        W48385   2.063  10.302   4.782  0.0202  0.1224  0.2659
31539W        W48386   2.458   6.029   4.568  0.2290 -0.0190  0.0146
31540W        W48387   7.303  14.272   3.530  0.2008 -0.2084 -0.0298
31541W        W48388  16.818   4.351   4.385 -0.1634 -0.1605 -0.0409
31542W        W48389  18.026   3.473   3.040  0.0407  0.2466  0.0928
31543W        W48390   7.010   9.819   3.262  0.0593 -0.0047 -0.0199
31544W        W48391   9.850   2.162  12.801  0.1182  0.1877 -0.0698
31545W        W48392  13.949   9.905  13.589  0.0137 -0.2614  0.0815
31546W        W48393   2.058   1.114  13.431 -0.1575 -0.0958 -0.0278
31547W        W48394   6.774   3.276  14.574  0.0849  0.2022  0.1281
31548W        W48395   2.605  14.566   0.492 -0.0633 -0.2265 -0.2063
31549W        W48396  16.594   7.015   3.561 -0.1862 -0.4372  0.0557
31550W        W48397  16.817  17.845   3.064 -0.3082  0.3294 -0.2384
31551W        W48398   3.033   8.148  14.804  0.1960 -0.3587  0.0109
31552W        W48399   8.650  11.232   0.809  0.2605 -0.0005 -0.2071
31553W        W48400   7.872  17.803  13.872  0.1559  0.1538  0.4207
31554W        W48401  15.849  15.948  12.879  0.0578 -0.3790 -0.0134
31555W        W48402   0.914   1.969   0.903  0.1508 -0.0640  0.1481
31556W        W48403  12.714  15.470   2.364  0.0946  0.0814 -0.0691
31557W        W48404   3.321  12.760  12.176  0.0758 -0.0555  0.1621
31558W        W48405   5.996   1.777   1.147 -0.3276  0.3145  0.3266
31559W        W48406   7.242  13.312   0.409 -0.1321 -0.1570  0.0282
31560W        W48407   2.968  18.166   1.970 -0.2962 -0.4325 -0.0637
31561W        W48408  12.685   2.773   0.402  0.0182  0.2062 -0.2279
31562W        W48409  13.183  14.261  14.429  0.1181 -0.0218 -0.0166
31563W        W48410  17.800  17.098  14.682  0.0603 -0.0543 -0.1222
31564W        W48411   1.523  12.866  14.355  0.3774  0.1984  0.0373
31565W        W48412  17.071  13.726   2.135 -0.0583  0.1002 -0.1101
31566W        W48413   5.213  17.162  14.843 -0.3543 -0.2184  0.2151
31567W        W48414  17.312   0.937  14.745  0.0182  0.2446  0.2471
31568W        W48415  15.851  17.503   3.049 -0.1305  0.1754  0.2163
31569W        W48416  13.234  14.008  14.909 -0.2493 -0.1352  0.1717
31570W        W48417   6.073  17.560   2.588  0.1171  0.0704 -0.2184
31571W        W48418   4.464  16.371   3.131 -0.1421  0.0302 -0.1138
31572W        W48419  14.436   3.418  11.823 -0.0960  0.0573 -0.1198
31573W        W48420  16.775   1.700   4.424  0.1036  0.1082  0.3395
31574W        W48421   3.559  16.028  14.504 -0.1165 -0.0388  0.0623
31575W        W48422  11.124  11.211  14.070 -0.0337  0.0821  0.0529
31576W        W48423   2.527   1.867  15.424  0.0925 -0.2909 -0.0092
31577W        W48424   0.790   4.946  14.444 -0.1969  0.2353  0.0688
31578W        W48425   2.301   4.980  15.807  0.0106 -0.0691  0.2186
31579W        W48426   9.343  15.686   0.754 -0.0774  0.2423  0.0690
31580W        W48427  14.345  10.492   0.654  0.2275 -0.3363  0.0377
31581W        W48428   4.718   5.032   0.825  0.1328 -0.0133 -0.1828
31582W        W48429   2.097  12.998  11.763  0.1217 -0.1495  0.0770
31583W        W48430  10.889   1.997   5.076 -0.0671  0.0683  0.2917
31584W        W48431   0.778   3.249  13.945  0.0424  0.2904 -0.1446
31585W        W48432  17.546   4.301  12.258 -0.0065 -0.2870  0.2411
31586W        W48433   7.227  13.744  15.608 -0.0957  0.1382  0.2391
31587W        W48434   7.680   7.605  15.104  0.1304 -0.2052  0.1928
31588W        W48435   0.091  14.216   5.612 -0.1414 -0.0262  0.2060
31589W        W48436  12.054  12.174   2.619  0.1467  0.3737 -0.4049
31590W        W48437   7.781   6.580   0.044  0.0228  0.0169 -0.1763
31591W        W48438   7.318  16.637   5.326 -0.1466 -0.2303  0.3658
31592W        W48439  18.047  10.199  16.143 -0.0872  0.0807  0.0914
31593W        W48440  16.064   4.840  12.838  0.4430 -0.0442  0.1473
31594W        W48441  10.417   6.489  12.924  0.0939 -0.4817  0.0620
31595W        W48442  17.891   6.500   1.715 -0.2620  0.2536 -0.0682
31596W        W48443   8.354  10.833   0.792 -0.0964 -0.2511  0.1162
31597W        W48444   5.667  11.493  16.109 -0.0160  0.0833 -0.0326
31598W        W48445  15.917  17.420   5.573 -0.0978 -0.1650 -0.0608
31599W        W48446   7.560  15.191  11.988 -0.2566  0.0832 -0.1876
31600W        W48447  12.089  16.565  14.777  0.1714  0.2198  0.4161
31601W        W48448  10.860  10.620   1.260  0.4561 -0.0169 -0.0395
31602W        W48449   6.250   7.742   3.233 -0.0417 -0.0598  0.0552
31603W        W48450   9.820   5.955   1.599 -0.1677 -0.3896 -0.0025
31604W        W48451   4.800  12.725   0.635 -0.0315  0.1860  0.3124
31605W        W48452  17.618  17.761   4.210  0.0152 -0.0980  0.4188
31606W        W48453   3.380  13.158   1.634  0.0744 -0.2085 -0.1883
31607W        W48454   6.336   3.446   5.003 -0.0510  0.3095  0.0435
31608W        W48455  10.708   4.038  12.083  0.3250  0.0425 -0.4871
31609W        W48456   6.727   0.952   2.138  0.1865  0.1669  0.1747
31610W        W48457  11.940   8.440  13.247  0.1010  0.2161 -0.1042
31611W        W48458  10.021   1.859   5.082 -0.0140 -0.1615 -0.0164
31612W        W48459  10.454   8.588  12.432  0.0295  0.0662 -0.5001
31613W        W48460  12.170  13.357   0.306  0.0097 -0.1480  0.1795
31614W        W48461  10.500   3.512   1.972 -0.0491  0.0458  0.1709
31615W        W48462  10.215  10.727   3.678 -0.0348  0.1008 -0.1404
31616W        W48463   9.539   4.995  14.229 -0.3151 -0.3220 -0.1281
31617W        W48464   0.032  12.625  14.191 -0.1829 -0.0976 -0.0008
31618W        W48465  17.705   3.602   3.998 -0.1885 -0.0349 -0.0768
31619W        W48466  15.538  17.123   0.566  0.0099 -0.1536  0.0637
31620W        W48467  14.849  13.975   3.879  0.0669 -0.0882  0.1100
31621W        W48468  14.278   7.035  16.450 -0.1918  0.0960  0.2692
31622W        W48469   9.443   6.714  11.932 -0.2222  0.1606  0.1809
31623W        W48470   5.810  15.388  11.347  0.1665  0.1838  0.1439
31624W        W48471   9.022  14.150  13.874 -0.0105  0.1385 -0.1155
31625W        W48472  14.900  17.736   4.020 -0.3298  0.2115 -0.0393
31626W        W48473  11.178   5.023  13.725 -0.2727  0.2316  0.1448
31627W        W48474   5.013  15.104   4.081 -0.2860 -0.0485 -0.1988
31628W        W48475   1.371  15.878   4.453 -0.0100 -0.0140  0.1453
31629W        W48476   0.079   6.428   4.877  0.0686  0.4459  0.1266
31630W        W48477   6.227   8.274  13.232  0.3226 -0.0065 -0.4947
31631W        W48478  10.919  13.970  14.001  0.1275 -0.2165 -0.0851
31632W        W48479   8.255  10.178  11.477  0.0843  0.3430 -0.2129
31633W        W48480   1.769   6.782   3.731  0.5550  0.1698  0.2652
31634W        W48481   0.166   0.554  15.050  0.2374 -0.1443  0.2258
31635W        W48482   4.802  15.988  15.435 -0.2468  0.3190 -0.0952
31636W        W48483  11.408   7.298  15.519 -0.2654  0.1982  0.1034
31637W        W48484  13.726   7.531  10.590  0.0963 -0.1153 -0.3814
31638W        W48485  17.996   6.770   0.871  0.2887  0.0300 -0.2419
31639W        W48486  15.636   9.911   5.126  0.0555  0.2604  0.1517
31640W        W48487   1.760   6.865   1.732  0.0838  0.0824 -0.2673
31641W        W48488  17.664  16.360  15.421  0.1311  0.2583  0.0563
31642W        W48489  16.040  17.526   2.118  0.3116  0.1375  0.0390
31643W        W48490   8.709   9.593  12.593 -0.2946  0.1036 -0.0479
31644W        W48491  14.085  11.634   5.422 -0.0487  0.0506  0.0122
31645W        W48492   4.485   4.769   4.837 -0.1953 -0.1088  0.0086
31646W        W48493   8.941   8.368  12.816 -0.2274  0.1608  0.3722
31647W        W48494  17.508  17.482   0.327  0.1597  0.2046 -0.4530
31648W        W48495   3.916  15.864   5.853  0.3960 -0.0502 -0.0037
31649W        W48496   4.263  13.389  13.046  0.0279 -0.2446  0.1412
31650W        W48497  17.341   1.329   3.835  0.1442 -0.0630 -0.0790
31651W        W48498   4.548   1.344  11.325 -0.2254  0.1681  0.0353
31652W        W48499  14.974  11.410   5.324  0.2963  0.1182 -0.0482
31653W        W48500  16.701  16.162  15.164 -0.1985  0.0554  0.1193
31654W        W48501   9.697  11.117  16.121 -0.0204  0.0556 -0.2485
31655W        W48502  10.633  16.400   3.049  0.1696  0.0436  0.1841
31656W        W48503   1.533  14.288   5.451  0.3845  0.1533 -0.0778
31657W        W48504   0.881  13.778   1.713 -0.0861  0.0302  0.2574
31658W        W48505  12.331   8.294  12.807 -0.2223  0.0296 -0.2077
31659W        W48506   1.770  17.518   4.462  0.3081  0.0690  0.0019
31660W        W48507   8.018   6.080  13.984  0.0459  0.3318  0.2327
31661W        W48508  15.685  12.148  12.139 -0.0843  0.2945 -0.0471
31662W        W48509   9.075  13.565   1.334  0.0367  0.1203  0.0093
31663W        W48510   4.394   6.145  15.545  0.1005 -0.0290  0.1135
31664W        W48511   9.569   5.681  15.695  0.4230 -0.0536 -0.1325
31665W        W48512   8.463   7.846   3.710 -0.1315 -0.0917 -0.0005
31666W        W48513   3.215  13.882   0.613  0.1269  0.1464  0.4002
31667W        W48514   3.397  14.312  14.892  0.2121  0.1624  0.4984
31668W        W48515   9.847   3.617   0.860 -0.1928  0.1794  0.4642
31669W        W48516  16.702  17.957  11.937 -0.2999  0.0731 -0.0227
31670W        W48517  11.414  14.186   4.106  0.1827  0.1296 -0.2102
31671W        W48518  14.355  15.690   2.696 -0.1587  0.1406  0.2511
31672W        W48519   7.319   0.742  13.127  0.0085 -0.2522 -0.1161
31673W        W48520  11.944   3.491  16.307  0.2083  0.0839  0.3142
31674W        W48521  10.659  13.571   2.688  0.1470 -0.2295 -0.2008
31675W        W48522   6.537  12.377   1.974  0.0373 -0.1753  0.2147
31676W        W48523   2.481   2.466  12.916 -0.2364  0.2482  0.0801
31677W        W48524  11.745  11.573  14.454  0.2592 -0.2965 -0.0045
31678W        W48525   8.634  17.517  13.767 -0.1864 -0.2296  0.1830
31679W        W48526  11.751   7.290  16.377  0.3366 -0.2412 -0.0057
31680W        W48527  17.858  14.899  11.977 -0.0652  0.1918 -0.0467
31681W        W48528  14.486  11.284  11.869  0.0924 -0.0789 -0.0084
31682W        W48529   1.988   3.648   1.539  0.1301  0.0056 -0.0418
31683W        W48530   2.586   8.327   4.737 -0.0432  0.1812 -0.1679
31684W        W48531   9.595   7.300   4.089 -0.1605  0.2120 -0.1234
31685W        W48532   6.880  15.668   2.129  0.2146  0.0908  0.2152
31686W        W48533  14.835  10.812  13.667 -0.0500  0.1663 -0.2469
31687W        W48534  16.449   4.437   1.281 -0.5835 -0.0881 -0.0656
31688W        W48535   6.163  14.474   0.135 -0.0202  0.0477 -0.0661
31689W        W48536  12.970  14.308   0.737  0.0304 -0.0234 -0.1199
31690W        W48537  10.011   1.174  13.232 -0.1508  0.2734  0.2295
31691W        W48538   5.926  12.435   6.125 -0.1179 -0.3872 -0.0690
31692W        W48539   0.630   7.844   1.226  0.1030  0.1721  0.3271
31693W        W48540  14.885  15.842  13.496  0.2045  0.0975  0.3290
31694W        W48541  10.883  17.441   2.989  0.2782  0.0324  0.0521
31695W        W48542   9.856  15.545   2.034  0.0214  0.2159  0.0790
31696W        W48543  17.016   6.681  16.350  0.3589  0.0608  0.0505
31697W        W48544   0.632   5.691   3.252 -0.1704  0.0174  0.3374
31698W        W48545  15.462   4.132   2.854  0.2041 -0.1788  0.0272
31699W        W48546  17.243  16.406  13.061 -0.2098 -0.0205 -0.2479
31700W        W48547  17.727   5.850   5.575 -0.2985  0.1036 -0.2345
31701W        W48548  18.052  12.263  12.303 -0.0036  0.0659 -0.1046
31702W        W48549   8.678  10.249   5.109  0.2828 -0.0285  0.0021
31703W        W48550   0.286   8.349   0.811 -0.0507 -0.1279  0.1087
31704W        W48551   4.704   5.655   5.885 -0.3037 -0.2696  0.0928
31705W        W48552   9.080   1.086  11.649 -0.2313  0.0677  0.3168
31706W        W48553   5.366   3.435   3.192 -0.1204 -0.0180 -0.1423
31707W        W48554   3.707   1.608   0.979  0.0298  0.4013  0.1122
31708W        W48555  16.254   4.404  12.958 -0.0948  0.3905 -0.0786
31709W        W48556  13.281  11.299  15.672 -0.2627  0.0951 -0.1285
31710W        W48557   4.296  12.495   2.368  0.2310 -0.2276  0.2554
31711W        W48558  10.658  15.318   5.997 -0.0765  0.0071 -0.3066
31712W        W48559   3.116  11.591  12.139  0.0928 -0.5136 -0.0146
31713W        W48560  10.030  11.625  13.027 -0.2978  0.0142 -0.2832
31714W        W48561  14.365  14.671  14.096  0.0170 -0.0465 -0.0233
31715W        W48562   5.989   0.948   1.558 -0.0411 -0.0148 -0.1839
31716W        W48563   7.452  13.598  10.941 -0.1072 -0.0845  0.0439
31717W        W48564   8.688   8.859   4.810 -0.0326 -0.1374 -0.0868
31718W        W48565  11.411  16.623   2.923  0.1885 -0.3508  0.1730
31719W        W48566   2.473   8.601  13.874  0.2278 -0.1452  0.0191
31720W        W48567   6.640   8.113  15.934  0.1735  0.1582  0.1264
31721W        W48568   0.021  12.762  15.400 -0.1510  0.2250 -0.1216
31722W        W48569  18.152  17.103  11.445  0.0190  0.1889  0.2046
31723W        W48570   7.984  16.938  13.648  0.1520  0.0959  0.1774
31724W        W48571  12.667   1.985   2.374  0.2490 -0.2576 -0.0680
31725W        W48572   2.335   3.032   1.469 -0.0367 -0.0584  0.0710
31726W        W48573   0.907   0.740  11.501  0.3433 -0.0026  0.1356
31727W        W48574   2.926  11.897  15.914 -0.0238  0.3106 -0.0387
31728W        W48575  16.657   5.597   2.987  0.0879  0.2134  0.2060
31729W        W48576  12.252  14.392  15.272 -0.1495 -0.3464  0.1233
31730W        W48577   5.953  13.003   6.474 -0.1015  0.0451 -0.0636
31731W        W48578  14.187   7.583  15.551 -0.0114 -0.0013  0.0895
31732W        W48579  13.164  10.880   3.510 -0.3319 -0.1027  0.1290
31733W        W48580   4.934   9.953   0.782 -0.1820 -0.0944  0.2810
31734W        W48581   5.436   8.594  16.358 -0.1139  0.1986  0.0523
31735W        W48582  14.892   6.294  15.088  0.3277  0.0368 -0.0361
31736W        W48583   1.346  14.467  15.082 -0.0071  0.1897  0.1755
31737W        W48584  12.224   7.229   1.283  0.1534 -0.0465 -0.1419
31738W        W48585   7.944  18.171   4.537 -0.1799 -0.6969  0.2739
31739W        W48586  15.973  11.091  14.252  0.0195 -0.3135  0.0400
31740W        W48587  12.266   4.816  12.563  0.0965 -0.0872 -0.1024
31741W        W48588  12.860   7.940   1.319  0.0606 -0.2753 -0.2710
31742W        W48589   6.463   6.669  11.848 -0.0988 -0.2522 -0.0775
31743W        W48590   3.480   2.514  14.331 -0.1415  0.1127  0.0975
31744W        W48591  17.407  12.681   1.831 -0.1773 -0.1469 -0.2197
31745W        W48592   4.968   3.161  14.683 -0.2340 -0.1825 -0.0211
31746W        W48593  12.021  11.299  13.058  0.1354 -0.0983  0.3714
31747W        W48594  17.380   7.510   4.223  0.2145 -0.0791 -0.3949
31748W        W48595   3.997  16.282   4.223  0.0980 -0.2102 -0.1549
31749W        W48596   0.394  12.424  15.461  0.1611  0.1662  0.2780
31750W        W48597  17.747  10.900   1.617  0.2106  0.2581 -0.0483
31751W        W48598   8.817   1.353   4.675  0.1617  0.1954  0.3229
31752W        W48599   2.285  13.450   5.779 -0.0144 -0.0991 -0.2057
31753W        W48600   1.572  12.561   3.682  0.1247  0.1090 -0.0978
31754W        W48601   4.086   8.070   2.222 -0.0465  0.1603  0.0137
31755W        W48602  17.233  13.190  15.697  0.0572 -0.3661 -0.1945
31756W        W48603  12.404   3.781   3.615 -0.1195 -0.1308 -0.2152
31757W        W48604  12.810   7.966   3.555 -0.4249  0.1421 -0.0393
31758W        W48605   0.204  15.145  15.200  0.3967  0.1671  0.2457
31759W        W48606  11.729   1.176   2.997 -0.1150  0.1429 -0.2383
31760W        W48607  14.401  15.149  12.577  0.1327  0.1530 -0.0894
31761W        W48608  14.930   3.343   3.907 -0.0059 -0.0729 -0.3344
31762W        W48609   3.287  12.182  16.045  0.0227 -0.0175  0.3897
31763W        W48610   7.959  12.893  16.185 -0.3014  0.0961 -0.0629
31764W        W48611  14.959   6.996  14.706 -0.1472  0.0841  0.1375
31765W        W48612   8.945   3.115  10.410  0.0075  0.1273 -0.0887
31766W        W48613   2.872  15.802  12.075  0.1591  0.0769 -0.0417
31767W        W48614  10.003   6.778   1.916 -0.1933  0.0426  0.0560
31768W        W48615  12.886  14.994   3.244 -0.2743  0.0424 -0.0181
31769W        W48616  12.585   3.612  14.378  0.3856  0.0286 -0.1495
31770W        W48617  11.010   6.123  11.325  0.0550  0.1064 -0.1837
31771W        W48618  14.607   6.400   4.533 -0.3267  0.0052 -0.0431
31772W        W48619   1.005  12.999  15.000  0.0250  0.0131 -0.2358
31773W        W48620   5.156   1.576   0.119  0.1217  0.1339  0.2014
31774W        W48621  16.147   9.687   2.031  0.2035  0.0102  0.5620
31775W        W48622  12.147   9.311  14.365  0.0612 -0.3491  0.1801
31776W        W48623  14.369  14.965   4.758  0.1031  0.1796  0.0881
31777W        W48624  12.888  16.118  16.432 -0.0371  0.2494  0.2191
31778W        W48625  15.847   3.494  15.750 -0.1287 -0.0394 -0.1706
31779W        W48626  14.854  17.108   1.865 -0.1950 -0.2743 -0.1751
31780W        W48627   7.399  13.328   4.068  0.0879  0.0687 -0.0396
31781W        W48628  12.311  11.040  12.113  0.0900  0.1199  0.0622
31782W        W48629  12.820  15.679  11.181 -0.0307  0.0739 -0.1139
31783W        W48630  14.717   1.892  15.330 -0.0911 -0.3316  0.0896
31784W        W48631  11.976  12.449  12.054 -0.0035  0.1258  0.1364
31785W        W48632  15.941   9.408   0.157 -0.1383  0.1074 -0.1952
31786W        W48633   0.619   7.482  13.988 -0.1649 -0.2627 -0.3267
31787W        W48634   1.259   7.820  15.496  0.2297  0.2235  0.0850
31788W        W48635   5.328   3.599  16.526 -0.0977 -0.1546 -0.2332
31789W        W48636  12.767   9.189   3.907  0.2444 -0.2610  0.1610
31790W        W48637   0.411   8.592   4.337  0.1500 -0.1626  0.0661
31791W        W48638  10.993   1.331   0.159  0.1241 -0.3973 -0.1278
31792W        W48639  12.916  10.220  13.188 -0.0744  0.3637  0.0363
31793W        W48640  14.264  12.897   2.450  0.1056  0.3316 -0.0337
31794W        W48641   7.990  17.298  12.461  0.1275  0.1102  0.3126
31795W        W48642   4.980   6.669  15.493  0.0293 -0.1094 -0.2757
31796W        W48643  12.328  11.073   4.644 -0.2006 -0.2145 -0.0461
31797W        W48644   5.569  12.346  12.700 -0.1136  0.1473 -0.3611
31798W        W48645  15.563  14.918  12.086  0.1496 -0.1538 -0.1798
31799W        W48646  13.833  17.645   3.912  0.2222 -0.0708  0.2790
31800W        W48647   2.586   0.354  13.357  0.2378  0.3134  0.3093
31801W        W48648   6.319   0.153   0.579 -0.2502 -0.1503  0.1803
31802W        W48649  16.263   1.435   1.502 -0.1718  0.0935 -0.2044
31803W        W48650  12.377   5.226  13.926 -0.1122  0.0322  0.4918
31804W        W48651   4.682   6.928   3.194  0.1559  0.0479 -0.1302
31805W        W48652   6.933   7.661  13.374 -0.0466 -0.0187  0.2243
31806W        W48653  10.315  13.254   1.815  0.0169 -0.2881 -0.1012
31807W        W48654   3.404  12.351   2.345 -0.1502  0.2001  0.5399
31808W        W48655  17.490  14.237  15.038 -0.0038 -0.0484  0.2050
31809W        W48656  17.052   5.414   0.401 -0.1307  0.3435  0.1374
31810W        W48657  17.527  14.445   0.123 -0.0973 -0.0372  0.3973
31811W        W48658  14.661  10.303   3.297 -0.3260  0.0401  0.0644
31812W        W48659   0.677  13.455   3.366 -0.1155 -0.0657  0.0993
31813W        W48660  11.606  14.365  16.110 -0.1927  0.1282 -0.2695
31814W        W48661  16.086  10.995  15.987  0.1047 -0.1296  0.1376
31815W        W48662   3.766  15.080  13.443  0.3201  0.1363 -0.0187
31816W        W48663  17.227  12.878   0.094 -0.0613  0.0224  0.1505
31817W        W48664  16.537  14.681  15.570  0.0961  0.2569  0.1734
31818W        W48665  12.754  17.810  12.369 -0.2958  0.0294 -0.2055
31819W        W48666  14.776  10.003   1.492 -0.0402 -0.1506  0.2050
31820W        W48667   9.873  16.566   1.163 -0.0750 -0.2605  0.4557
31821W        W48668   2.563   7.305   0.904 -0.1872  0.0418 -0.1461
31822W        W48669  17.667  13.347   4.399  0.1345 -0.1734  0.0893
31823W        W48670   7.253   1.839  15.846  0.0442 -0.3653 -0.0838
31824W        W48671  14.662  13.094  14.378 -0.0226 -0.0329  0.3516
31825W        W48672   9.271  13.700  15.746 -0.0478  0.0729  0.2240
31826W        W48673  13.231   0.798  13.683 -0.2076 -0.1883  0.1178
31827W        W48674   3.838  12.362   0.603 -0.0303 -0.2171  0.0215
31828W        W48675  17.851   7.309  12.512  0.1562  0.0772 -0.0389
31829W        W48676  10.677   1.930   0.318 -0.1376  0.2525  0.0642
31830W        W48677   7.815  14.294  11.405 -0.0530 -0.1888 -0.0208
31831W        W48678   4.463   1.098   4.089  0.0316 -0.0052 -0.3484
31832W        W48679  13.562   5.747  13.168  0.1567  0.2370  0.4700
31833W        W48680   6.554   7.365   1.555  0.0249 -0.1265  0.3242
31834W        W48681  12.847  10.053  16.098  0.3029  0.0261  0.0213
31835W        W48682   7.280   6.498   0.783 -0.1559  0.3419  0.0618
31836W        W48683  17.455  15.178   3.285 -0.1246 -0.1433 -0.0276
31837W        W48684   4.920   5.592   5.133  0.1851 -0.0403 -0.0565
31838W        W48685  17.618   8.079   1.797 -0.1027 -0.1124 -0.3229
31839W        W48686   3.413   9.026   0.093 -0.0458  0.0860 -0.1828
31840W        W48687  17.998   9.090  12.135  0.3060 -0.0732 -0.2310
31841W        W48688   8.142   8.931  16.072 -0.2633 -0.2630 -0.2026
31842W        W48689  13.976   2.526  15.547  0.1383  0.2344 -0.2789
31843W        W48690   6.085   0.377  12.600  0.1030  0.0070  0.0716
31844W        W48691  10.363  17.309   0.771  0.2762 -0.1289  0.0582
31845W        W48692   8.857  16.363   5.477  0.0046  0.2256 -0.1115
31846W        W48693  15.788   9.986  15.558  0.0972  0.0730 -0.0731
31847W        W48694   9.936   2.156  16.571 -0.0877 -0.0465 -0.0947
31848W        W48695  14.633  16.457   3.324 -0.0795 -0.0008 -0.2888
31849W        W48696  17.416  12.371   2.235 -0.2509 -0.3392  0.0768
31850W        W48697   3.724  14.332   5.402 -0.0791  0.2238  0.1072
31851W        W48698  14.846   5.087  15.407 -0.1621  0.0870 -0.4700
31852W        W48699  15.946   2.742  16.529  0.0242 -0.1278 -0.1414
31853W        W48700  17.672  13.410   0.286 -0.1686  0.1317 -0.2422
31854W        W48701  10.984  11.183   3.352  0.1372  0.0780 -0.2489
31855W        W48702   0.017   2.323   3.435  0.2221  0.3334  0.0490
31856W        W48703  15.589   2.226   2.068  0.0264  0.0650 -0.0228
31857W        W48704  12.498   9.685   5.936  0.1486 -0.0437 -0.3075
31858W        W48705   8.338   6.619   4.133 -0.2180 -0.0786  0.1052
31859W        W48706  15.549   0.838   4.005  0.1309  0.0839 -0.0286
31860W        W48707  11.146   8.028   4.958 -0.1133 -0.0850  0.0288
31861W        W48708   3.309  12.856   2.481  0.0703 -0.1640 -0.2059
31862W        W48709   7.558   9.817  14.093  0.2027  0.0445 -0.0154
31863W        W48710  12.712  16.050   1.578 -0.1322  0.0555  0.1423
31864W        W48711   3.294  13.093  12.912 -0.0208  0.0364 -0.0412
31865W        W48712   1.881  10.200   0.693 -0.0470 -0.0533 -0.1207
31866W        W48713   9.165   8.996   1.651  0.1254  0.0911  0.2986
31867W        W48714  11.274  13.481  12.090 -0.0171  0.1710  0.0912
31868W        W48715  14.626  12.963   4.030 -0.0119 -0.1301  0.0158
31869W        W48716  13.778   1.825   3.766 -0.2365  0.0356  0.1397
31870W        W48717   8.029  12.981   5.323  0.0248 -0.5333  0.2609
31871W        W48718  11.932   0.489   3.875 -0.3912  0.2665 -0.0004
31872W        W48719   7.007  11.828  15.545 -0.0250 -0.0989 -0.2493
31873W        W48720   4.371   1.818   2.789  0.0545 -0.1265 -0.1645
31874W        W48721   1.187   1.991   5.004 -0.0787  0.1977 -0.1734
31875W        W48722  11.338   5.994   1.873 -0.0112  0.0475  0.1345
31876W        W48723  10.365  14.946   6.000  0.5964  0.0594  0.3311
31877W        W48724   2.507  17.219   5.610  0.3142 -0.2525 -0.2159
31878W        W48725   8.964   4.072   4.222 -0.5416 -0.0955 -0.1940
31879W        W48726  14.055   8.965   6.195  0.0961  0.0320 -0.0441
31880W        W48727   8.823  13.714   4.593  0.0156 -0.1286 -0.3647
31881W        W48728  17.750   1.218  12.271 -0.1737  0.0662 -0.3985
31882W        W48729  12.249  16.511  16.245 -0.0768  0.2876 -0.2422
31883W        W48730   8.593  12.707  15.457  0.0231  0.0133 -0.2886
31884W        W48731   2.827  17.653  13.242 -0.3500  0.0668 -0.0952
31885W        W48732  10.183   2.740  16.340  0.1708 -0.1372 -0.3307
31886W        W48733   1.720   5.103  14.043 -0.2655 -0.3914 -0.3803
31887W        W48734   9.480   4.100  14.485  0.1397  0.2643 -0.1340
31888W        W48735   7.924  13.781   0.195  0.1231 -0.4103  0.1557
31889W        W48736   6.818  17.228  13.155  0.0820  0.0051 -0.2373
31890W        W48737  10.629   6.970  15.371 -0.0610  0.1302 -0.0489
31891W        W48738  11.101   6.325   0.254 -0.0980  0.0295  0.0451
31892W        W48739  17.438  14.129  16.369 -0.0763 -0.2542 -0.0659
31893W        W48740  10.699   8.432   2.650 -0.2378 -0.0717  0.4511
31894W        W48741  12.638  11.232  13.934  0.1819  0.0582  0.2563
31895W        W48742   1.220  11.758   3.823 -0.1686  0.3813 -0.2642
31896W        W48743   6.108  12.225  12.506  0.1169  0.0183  0.1301
31897W        W48744   2.614   6.402   5.152  0.1069 -0.0132  0.1955
31898W        W48745   4.274  11.435   4.233  0.0282 -0.3695  0.3567
31899W        W48746  17.996   4.714  15.621  0.4186  0.1162  0.1795
31900W        W48747   8.544  15.535  14.826 -0.1353 -0.0287 -0.1645
31901W        W48748   0.445   1.705   0.685  0.0501  0.1326 -0.1001
31902W        W48749   9.693  11.731   1.272 -0.1076 -0.0368 -0.1214
31903W        W48750   2.613   2.227  15.785 -0.2542  0.0357 -0.3539
31904W        W48751   8.305  17.024   5.716 -0.0017  0.2729 -0.1138
31905W        W48752   3.501  15.089   3.408 -0.1850 -0.1261 -0.1079
31906W        W48753  15.497   2.781   3.662  0.1619 -0.0574  0.2444
31907W        W48754  14.040   6.529  11.864  0.1545 -0.2012 -0.2351
31908W        W48755   7.383   4.974   3.920 -0.2034 -0.0751 -0.1758
31909W        W48756   6.058  15.713   3.656 -0.2314 -0.3749  0.2456
31910W        W48757  11.612   3.437   2.841  0.1305 -0.3840 -0.0185
31911W        W48758   4.800   7.826  14.866  0.2389  0.0197  0.1032
31912W        W48759  17.022   1.469   2.679 -0.0022  0.0997 -0.0663
31913W        W48760   1.101   3.913   3.826 -0.0389 -0.3934  0.0396
31914W        W48761   5.273  14.944   3.729 -0.1449 -0.0065  0.1450
31915W        W48762   7.346   3.452  12.600 -0.0894 -0.2734  0.0088
31916W        W48763  13.799  14.411   1.018  0.3402  0.2874  0.1775
31917W        W48764  13.835   4.176   0.466 -0.2300  0.2095  0.1485
31918W        W48765  11.916   6.296   0.236  0.4376 -0.0582  0.3833
31919W        W48766  16.107  15.582   1.997  0.1619  0.1254 -0.2083
31920W        W48767   6.130   8.225  12.279  0.0447 -0.1698 -0.2102
31921W        W48768   8.141  15.030  12.366 -0.3138 -0.1311  0.0649
31922W        W48769   4.008   5.851  12.322  0.1312 -0.0685 -0.3273
31923W        W48770  18.000  14.830  14.410  0.2332  0.0690  0.3625
31924W        W48771  13.548   7.874   3.207  0.2559  0.1103  0.0505
31925W        W48772   9.374   5.209  14.832 -0.2892  0.1071  0.1144
31926W        W48773   6.149   3.293   2.022  0.0685  0.0675 -0.1489
31927W        W48774   5.059  12.996   3.687 -0.0775 -0.0725  0.0263
31928W        W48775   7.146  13.839   0.583  0.0955 -0.1382  0.1208
31929W        W48776   8.680   7.626  16.077  0.0911  0.0838  0.0001
31930W        W48777   9.773  13.384   1.536  0.2384  0.0349  0.0576
31931W        W48778  10.335  16.307   5.176  0.0599 -0.3037 -0.3766
31932W        W48779   1.746   0.625   3.372  0.3080  0.1343 -0.2969
31933W        W48780   0.981  14.576  14.226  0.0069 -0.1659 -0.2233
31934W        W48781   3.981  12.706  13.748 -0.0320  0.1167  0.1311
31935W        W48782  15.412  14.485   1.444 -0.0274 -0.0792  0.0258
31936W        W48783   6.245   1.228  15.135 -0.4091  0.0948 -0.3928
31937W        W48784   4.923   1.381  12.218  0.2499 -0.3598 -0.2024
31938W        W48785   5.410   1.847  16.406  0.0253  0.2371  0.0328
31939W        W48786   7.293   0.612  15.811  0.2858 -0.0943  0.0875
31940W        W48787  13.401  10.902  13.884 -0.0216 -0.3570  0.0946
31941W        W48788  13.748   3.773  13.991  0.1315 -0.1614 -0.3100
31942W        W48789   8.158  16.302  15.152 -0.3819  0.0226 -0.0150
31943W        W48790  17.020  11.709  14.603 -0.1283 -0.1366  0.1528
31944W        W48791   1.677   4.668   1.616 -0.0586  0.2906  0.1488
31945W        W48792  17.188  11.641  12.246 -0.3926  0.5817 -0.1477
31946W        W48793   4.625   9.152   1.539 -0.0569  0.2117  0.0707
31947W        W48794   9.714  16.617  12.807  0.1057 -0.1113  0.1418
31948W        W48795   5.520   0.868   3.142  0.4221 -0.1637 -0.0094
31949W        W48796   9.815   5.361  13.246  0.1028 -0.1949  0.3486
31950W        W48797   3.421   1.677  15.074  0.0216 -0.1727 -0.0633
31951W        W48798   6.491   5.751  15.061 -0.2304  0.2404  0.3053
31952W        W48799  11.964   8.867   2.203  0.4996 -0.0155  0.1291
31953W        W48800   4.087  14.863  15.421  0.1231 -0.1665  0.2850
31954W        W48801  17.067   1.741   3.104 -0.2967 -0.2503  0.0798
31955W        W48802   8.071   7.704   3.355 -0.3140  0.1538 -0.0644
31956W        W48803   8.116  16.445   3.660 -0.0102  0.1594 -0.0378
31957W        W48804  12.503   2.244  13.747  0.0834 -0.0776  0.1844
31958W        W48805  16.537   0.379   4.184  0.1171 -0.1286  0.2304
31959W        W48806   1.327   9.841   0.833  0.1318 -0.4014 -0.0919
31960W        W48807  15.519  15.850   3.585 -0.0008  0.1510  0.0952
31961W        W48808  15.423   6.445  12.159  0.1642 -0.0479  0.0793
31962W        W48809  11.246   4.749  11.417  0.0322  0.1862 -0.2097
31963W        W48810   8.452   3.791  14.686 -0.0794 -0.1543  0.2115
31964W        W48811  16.682   5.737  13.692  0.0568  0.1014 -0.1013
31965W        W48812   6.027   7.718   2.311  0.2100 -0.0763  0.1671
31966W        W48813  10.144  11.519   4.941  0.0926  0.0263 -0.0849
31967W        W48814   6.645   9.438   4.100 -0.1452 -0.1630 -0.1801
31968W        W48815  10.934   8.868   2.640  0.2073  0.2236  0.0864
31969W        W48816   2.177   6.861  16.096  0.1811  0.1602  0.4265
31970W        W48817  16.752  15.494   4.398 -0.2962 -0.2234  0.2416
31971W        W48818   9.018   9.981  15.096 -0.1128 -0.0997 -0.4535
31972W        W48819  13.536  11.182   3.370 -0.0259 -0.1678  0.0177
31973W        W48820   1.531   0.731  15.596 -0.0696 -0.0737 -0.1329
31974W        W48821   6.291  10.261   2.691  0.0314 -0.0726 -0.1694
31975W        W48822   1.990   1.971  16.227 -0.1731  0.1595  0.1200
31976W        W48823   5.619   7.448  15.326  0.3171 -0.2660 -0.0998
31977W        W48824   7.852  13.618   1.552 -0.0722  0.1005 -0.3000
31978W        W48825  16.983  16.040   1.604  0.1359 -0.1426  0.1956
31979W        W48826   8.017  14.150  13.526 -0.3010  0.1541 -0.1639
31980W        W48827   3.084  12.752  14.215 -0.0592  0.2042 -0.4400
31981W        W48828   0.566   2.271   2.835 -0.0897 -0.0773  0.1612
31982W        W48829  12.512  10.472  16.414 -0.0773  0.0749  0.1721
31983W        W48830  16.806  17.872  11.147  0.4484 -0.2038  0.0760
31984W        W48831   3.815  11.171  13.648  0.3010 -0.1595  0.2249
31985W        W48832  14.035   3.028  15.534  0.1875  0.1417 -0.0341
31986W        W48833   3.666   6.007   2.363 -0.3028 -0.1536  0.0438
31987W        W48834  17.069   8.460  16.322 -0.0407 -0.3169  0.1362
31988W        W48835   3.736   9.247  12.547  0.0536  0.3367 -0.2506
31989W        W48836  13.734   8.772  13.669  0.1211 -0.0505 -0.2793
31990W        W48837   8.556  17.273  15.945  0.1059  0.0023  0.0935
31991W        W48838   5.543  11.897   4.387  0.0032  0.1964 -0.1163
31992W        W48839  13.305   7.738   0.986 -0.0986 -0.0887  0.2354
31993W        W48840   4.166  17.604   3.229  0.3986 -0.4483 -0.0419
31994W        W48841   3.662  15.436  16.289  0.0574  0.2017  0.1350
31995W        W48842   0.359  17.804  14.847  0.1039  0.0251 -0.0739
31996W        W48843   0.873  16.616  11.776  0.1863 -0.2471  0.1449
31997W        W48844  11.866  12.959  15.875  0.1197  0.2402 -0.2156
31998W        W48845   7.431  12.903   2.845 -0.2664  0.1990  0.4270
31999W        W48846  17.871  18.049  14.146  0.1088  0.2578 -0.1228
32000W        W48847   6.411  10.197  12.717 -0.2166  0.2523  0.3015
32001W        W48848  15.729  11.240   5.350  0.0976 -0.0159 -0.2337
32002W        W48849   4.378   3.987   2.532  0.2406 -0.0294  0.2499
32003W        W48850  14.577   6.268   1.226 -0.0294  0.2279 -0.0449
32004W        W48851   2.863  14.552  15.766 -0.1720  0.1701 -0.1951
32005W        W48852   4.250   8.895  12.635  0.0165  0.3106 -0.0702
32006W        W48853  12.754   0.649   2.979  0.1682  0.2459 -0.0045
32007W        W48854   6.183  14.527  12.994  0.1953  0.0910  0.1093
32008W        W48855   4.096   3.259   2.937  0.0187  0.1693  0.1465
32009W        W48856  10.106  12.262   1.889 -0.1229 -0.1524 -0.2546
32010W        W48857   9.417  17.544   2.405 -0.0048 -0.4040 -0.0753
32011W        W48858  12.606   0.970   4.918 -0.0917 -0.0392 -0.1405
32012W        W48859   6.969  17.121  14.302 -0.4637 -0.1741  0.3102
32013W        W48860   8.149  13.288  13.441  0.1753  0.0106 -0.0068
32014W        W48861   5.821   9.754   0.902  0.0768 -0.1516 -0.0205
32015W        W48862   0.155  14.466  16.180  0.5598  0.0614  0.0533
32016W        W48863   8.539  13.754   2.203  0.1570 -0.0182  0.1188
32017W        W48864   4.904  10.417   4.576 -0.4129  0.0084 -0.1945
32018W        W48865  14.798   4.271  12.797 -0.0751  0.4196 -0.1493
32019W        W48866   0.674  10.565  14.318  0.1806  0.2716 -0.0074
32020W        W48867  12.844   9.397   1.928 -0.0622 -0.0232  0.1602
32021W        W48868   9.692   8.710   3.439 -0.1211  0.1084  0.4632
32022W        W48869  13.860  11.195   5.546  0.1425 -0.0603 -0.1817
32023W        W48870  14.684   5.325   2.851  0.1139  0.1099  0.0641
32024W        W48871   5.959  14.515   4.224 -0.0677 -0.0903  0.0319
32025W        W48872  17.100   5.275   4.490 -0.0433 -0.0500  0.1155
32026W        W48873   6.690   9.469   0.770  0.3991 -0.0645  0.1022
32027W        W48874  18.115  16.576  14.560 -0.1403 -0.0842  0.3468
32028W        W48875   1.753   6.104   0.895 -0.3216 -0.0279  0.0819
32029W        W48876  17.569  17.689  13.979  0.2258  0.0938  0.0202
32030W        W48877  15.323  10.409  11.795 -0.4140  0.1144 -0.1691
32031W        W48878  17.490  13.967   2.710  0.0677 -0.0448  0.1863
32032W        W48879   6.373  15.582  13.982 -0.0718 -0.2627 -0.0937
32033W        W48880  12.127  13.369   1.176  0.1002  0.2354 -0.2348
32034W        W48881  10.945   7.044   4.439 -0.1705 -0.0276  0.1915
32035W        W48882  10.818   6.812  13.032  0.0822 -0.0869 -0.0048
32036W        W48883   0.480   7.863   3.731  0.1615 -0.1944  0.2936
32037W        W48884  11.466   2.734  12.544 -0.3835 -0.0291 -0.1704
32038W        W48885  12.443   8.198  15.773  0.0361 -0.3382 -0.2474
32039W        W48886  13.605   1.985   2.540 -0.1495 -0.1779 -0.0563
32040W        W48887  14.141  15.489   6.330  0.0498 -0.0747  0.0297
32041W        W48888  10.597   4.392  12.555 -0.1365 -0.2249  0.2042
32042W        W48889  15.378   3.932   5.849 -0.1298 -0.3102 -0.2408
32043W        W48890   0.699   6.645   1.497  0.0713  0.0741 -0.0062
32044W        W48891   9.249   2.517   5.220  0.1153  0.0760 -0.3084
32045W        W48892  14.389  17.721   0.265  0.1483  0.1041  0.0850
32046W        W48893   2.367  15.611   0.809 -0.0210 -0.0712  0.1200
32047W        W48894  17.302   2.920   2.301  0.1570 -0.1331  0.0698
32048W        W48895  15.951  15.900   0.557  0.2651 -0.0433 -0.1801
32049W        W48896  16.271   1.457   4.789  0.0470 -0.0276  0.0082
32050W        W48897   2.073   2.898   3.308 -0.0559 -0.0883  0.0854
32051W        W48898  15.374  18.160  13.135  0.0661 -0.2960  0.1353
32052W        W48899  17.715   1.572   4.693  0.0971  0.0627 -0.0948
32053W        W48900  14.328   4.995  14.142 -0.1012 -0.3279  0.0229
32054W        W48901   9.686  14.063  15.994 -0.0305 -0.0039  0.0680
32055W        W48902   3.222  14.960  12.028  0.0776 -0.3002  0.2337
32056W        W48903   3.730  15.488   0.540 -0.1614 -0.0293  0.1477
32057W        W48904  14.997  10.553   3.014  0.1176 -0.1288  0.3374
32058W        W48905  12.084   4.402  12.925  0.2223 -0.1307 -0.1518
32059W        W48906   9.503  11.300  15.374 -0.3325 -0.0378  0.2806
32060W        W48907  15.436   1.004  10.542 -0.0784 -0.2304  0.3466
32061W        W48908   0.590  14.226   2.600 -0.0812 -0.0101 -0.2200
32062W        W48909   3.605   6.480  11.992  0.1552 -0.0018 -0.1518
32063W        W48910   0.759  11.158   1.081 -0.0827  0.1014  0.0595
32064W        W48911   1.975  11.104   1.054  0.0230 -0.1281 -0.2257
32065W        W48912   7.913  14.818   0.193  0.0532 -0.0063  0.0178
32066W        W48913  10.920   4.465  10.526  0.3071  0.1860 -0.1226
32067W        W48914   7.926   5.053  11.438  0.0503  0.0102  0.0243
32068W        W48915  14.945  17.708   3.438  0.2094  0.0196  0.2027
32069W        W48916   6.553   0.807   1.555 -0.1057 -0.1900  0.1658
32070W        W48917  10.090  12.138   4.180 -0.0847 -0.0878  0.2092
32071W        W48918   7.632   2.552   3.389  0.1795 -0.1711  0.1265
32072W        W48919  16.057   9.318  13.821 -0.0865  0.2216  0.0986
32073W        W48920   6.221   4.292  16.584 -0.0654 -0.4666 -0.1653
32074W        W48921  15.011   5.130  14.469  0.0509  0.1894  0.1383
32075W        W48922   4.002   2.606  12.267 -0.0388 -0.1581 -0.1653
32076W        W48923   3.459   0.492  14.954  0.0124  0.1475  0.2555
32077W        W48924  12.374   0.638   2.497  0.1201  0.1840  0.2165
32078W        W48925  13.130  15.437  11.556  0.1589  0.1054  0.2594
32079W        W48926   9.267   7.928   0.248 -0.0602 -0.1131  0.2470
32080W        W48927   6.828   6.519   2.004 -0.1215 -0.4230 -0.1052
32081W        W48928   1.697  11.251  13.439 -0.1018 -0.0378 -0.1098
32082W        W48929  14.106   3.557  13.691 -0.0409 -0.2067 -0.1214
32083W        W48930  12.314   3.206   5.364  0.3604 -0.1201 -0.0809
32084W        W48931  11.476   5.413  15.874  0.0287  0.0433  0.0391
32085W        W48932   1.478  12.712   2.546 -0.0701  0.0393 -0.1185
32086W        W48933  11.690  12.789   0.247  0.0001  0.0411 -0.2455
32087W        W48934   8.851   0.715   5.256 -0.0376 -0.0282 -0.0199
32088W        W48935   3.142   2.099   0.323 -0.0887 -0.1364  0.4660
32089W        W48936   8.171   1.112   3.231 -0.3230 -0.2578  0.0840
32090W        W48937  11.404   1.021  11.663 -0.3435  0.1315 -0.1597
32091W        W48938  15.610   0.553  16.535  0.0772  0.0145  0.0111
32092W        W48939   1.554  18.078   2.053 -0.2100 -0.0947  0.1868
32093W        W48940   5.800   8.482   4.674 -0.0342 -0.1576  0.3575
32094W        W48941   6.997  10.717  11.459  0.2043 -0.0894 -0.0196
32095W        W48942  15.418   5.052  13.197 -0.2612  0.1118 -0.3472
32096W        W48943  14.394  12.558  11.711  0.0660  0.0275 -0.2114
32097W        W48944   6.886   7.215   0.260 -0.0290 -0.0022  0.1241
32098W        W48945   3.712  13.906   3.835  0.0976  0.3621  0.0713
32099W        W48946  12.961  18.052   4.511 -0.2828  0.2167 -0.0603
32100W        W48947  17.518  15.918  16.598  0.3463  0.3018 -0.0417
32101W        W48948   8.457   3.531   0.921 -0.1550 -0.3645 -0.2257
32102W        W48949  15.348  17.296  12.502  0.1781 -0.0130  0.0557
32103W        W48950  17.370   7.741  15.959  0.1644  0.0245  0.0546
32104W        W48951  12.765  13.993   2.389 -0.0970  0.3842  0.0138
32105W        W48952   4.781  16.046  11.664  0.2338 -0.0975  0.3093
32106W        W48953  12.820   6.065   0.498 -0.0431  0.1868  0.2360
32107W        W48954  12.076   8.688  15.177  0.0332  0.0522 -0.1195
32108W        W48955   0.707   5.696  15.663  0.1025 -0.1809 -0.1466
32109W        W48956   0.571   9.872  16.142  0.2574 -0.1060 -0.1521
32110W        W48957  11.318  10.873   4.083 -0.1291  0.0784 -0.1401
32111W        W48958   6.037  16.760  11.918  0.1635 -0.0867 -0.0947
32112W        W48959  14.678  11.795  16.388 -0.3522 -0.0930  0.3946
32113W        W48960  16.896   6.711   0.235  0.1691 -0.1827  0.0664
32114W        W48961  13.054  15.227  13.623 -0.4013  0.1310 -0.0571
32115W        W48962   8.288  17.836  12.473 -0.0006  0.1284  0.2153
32116W        W48963   7.834  15.410   4.129 -0.1783 -0.1640 -0.0603
32117W        W48964   3.126   7.141   3.171 -0.0563  0.0627  0.1331
32118W        W48965  14.668   5.974   2.215 -0.0862  0.3349 -0.1930
32119W        W48966  16.454  10.092   2.816  0.2290  0.0462 -0.2279
32120W        W48967   6.174  13.552   5.287  0.3506  0.0028 -0.1089
32121W        W48968  14.533   0.895  14.531  0.0512 -0.0844  0.2672
32122W        W48969  18.058  15.688  13.720 -0.0227  0.0568 -0.3755
32123W        W48970   2.506   8.233  11.828  0.1325 -0.0793 -0.0082
32124W        W48971   4.157  11.155  12.837 -0.0448 -0.1311  0.0985
32125W        W48972   2.134   2.652  14.849  0.1034  0.0593 -0.3532
32126W        W48973   0.843  12.215   5.329  0.0658  0.0241 -0.1110
32127W        W48974   1.300  12.711  16.021  0.0643  0.5252 -0.3104
32128W        W48975  17.338   1.444  12.443 -0.1349 -0.0511  0.3222
32129W        W48976   8.705   9.961  11.501  0.0311 -0.1163 -0.2838
32130W        W48977  10.058  13.492   5.102 -0.0170 -0.2032  0.2228
32131W        W48978  15.357  16.262  15.532 -0.0432  0.0334 -0.2274
32132W        W48979   6.514   0.697   3.956  0.6964  0.0876 -0.1844
32133W        W48980   6.960  11.227   5.001 -0.1063  0.0375  0.2438
32134W        W48981  17.833  12.962  14.305  0.0512 -0.0654 -0.0481
32135W        W48982  13.652  15.266  11.502  0.0551  0.1582 -0.1545
32136W        W48983   7.058  15.532  16.008 -0.2191  0.1287  0.1800
32137W        W48984  13.813  12.773   1.712  0.1149  0.1388  0.0858
32138W        W48985  16.424   7.341  15.037 -0.1241  0.2251  0.1782
32139W        W48986  11.641  14.391  13.240 -0.2004  0.3485  0.3396
32140W        W48987   1.018  12.207   4.299  0.0675  0.0717  0.0539
32141W        W48988  10.511  11.343  13.827 -0.1088 -0.1194  0.1844
32142W        W48989   2.100   1.647   1.824 -0.0558  0.0242  0.1408
32143W        W48990   7.320   9.286   4.563 -0.0762  0.1513 -0.0433
32144W        W48991   4.413   1.183  12.208  0.0538 -0.1557 -0.0957
32145W        W48992  10.082  14.081   2.370  0.2222 -0.2032 -0.0450
32146W        W48993  17.322  17.360  13.160  0.0696  0.1658  0.1323
32147W        W48994  12.106   2.031  13.357 -0.0295  0.0235 -0.0143
32148W        W48995   3.564   5.371   3.679  0.0329 -0.0377 -0.1137
32149W        W48996   7.551   8.747   2.111 -0.2440 -0.2267  0.0617
32150W        W48997  16.133   8.664   5.057 -0.2162 -0.0643 -0.0248
32151W        W48998   0.203  17.419  14.031 -0.1678 -0.0372 -0.1224
32152W        W48999  14.260  14.618   1.455 -0.2356  0.1923  0.1083
32153W        W49000   3.980   8.820  11.972  0.2943  0.0891 -0.0495
32154W        W49001  12.730  13.237   3.595 -0.4812  0.0112  0.0307
32155W        W49002   3.405   9.052   1.673  0.3512  0.2380  0.1514
32156W        W49003   8.424   8.482   1.902  0.1675  0.0223 -0.0014
32157W        W49004   0.623   7.237  12.574  0.2224 -0.0618 -0.1679
32158W        W49005   7.031   7.166   4.353 -0.1445  0.0190 -0.0708
32159W        W49006  13.667   7.850  15.602  0.2945  0.2377 -0.0788
32160W        W49007   0.337  14.061   3.046  0.1425  0.4463 -0.1821
32161W        W49008   3.255  16.128  16.561 -0.1547 -0.1931 -0.2804
32162W        W49009  12.721  16.041  13.021  0.2247  0.1744 -0.0318
32163W        W49010   5.671  17.165   0.898  0.0983  0.1087  0.3138
32164W        W49011  11.829  10.867   5.012 -0.0479  0.3140  0.3967
32165W        W49012   8.516   5.801   4.987 -0.2129 -0.1616  0.2112
32166W        W49013   5.094   2.663   2.215  0.2588 -0.0996 -0.1437
32167W        W49014   4.119  16.259   3.438 -0.3535 -0.1213 -0.3454
32168W        W49015   0.782   3.619   1.546 -0.0027  0.1165 -0.1163
32169W        W49016  16.613  18.148   2.663  0.0475 -0.0075  0.0180
32170W        W49017  10.519   1.229  14.123  0.1501  0.2840  0.0400
32171W        W49018   5.033   2.611  15.471  0.0395  0.1510 -0.2105
32172W        W49019   5.388  16.201   1.098 -0.0657 -0.0495  0.0928
32173W        W49020  12.929   6.948  14.158 -0.2697 -0.0913 -0.0080
32174W        W49021   2.787   1.906   1.044 -0.1917 -0.1921 -0.0648
32175W        W49022   6.164   2.763   1.309 -0.2847  0.1979 -0.1528
32176W        W49023   6.974   1.152  14.981  0.2186 -0.1370 -0.1711
32177W        W49024  16.169   2.117   2.865 -0.2851  0.2147 -0.1459
32178W        W49025   4.789   6.419   2.284 -0.0394 -0.4463 -0.1109
32179W        W49026   4.501  10.407  12.444 -0.2717  0.1369 -0.0476
32180W        W49027  13.940  10.269   4.494 -0.0872  0.0543 -0.2074
32181W        W49028  11.764  12.993   1.199 -0.0089 -0.3161  0.0709
32182W        W49029   7.755   3.994  14.183  0.0349 -0.3637  0.0661
32183W        W49030   9.631   2.989  15.458  0.1358  0.0872 -0.2472
32184W        W49031   7.646   5.891  12.146 -0.0201 -0.0185  0.0912
32185W        W49032  17.515  10.462   4.698  0.3488  0.2657  0.1231
32186W        W49033  16.718  14.052  14.100 -0.0001 -0.5267 -0.0833
32187W        W49034  12.503   9.624   2.251  0.1304  0.3680  0.1856
32188ION     NA49035   1.464  15.627   6.126  0.2391  0.1194  0.1785
32189ION     NA49036   9.429   9.562  12.406  0.1282  0.0705 -0.1736
32190ION     NA49037   9.758  13.979  11.369 -0.0499  0.3198 -0.1202
32191ION     NA49038  11.189  10.228  16.122  0.4105  0.0894 -0.0324
32192ION     NA49039   9.381   5.326  13.869  0.1046  0.1075  0.0991
32193ION     NA49040  13.843   2.751  10.502  0.0473 -0.2454  0.4268
32194ION     NA49041  11.908  15.942  10.537 -0.0690  0.0828 -0.3990
32195ION     NA49042   4.611   7.838  10.695  0.2620  0.2340 -0.0739
32196ION     NA49043   8.602   2.513   0.442  0.0419 -0.1875  0.1779
32197ION     NA49044  11.642   0.629   0.141  0.2275 -0.0761 -0.1513
32198ION     NA49045   3.344   8.376   1.747  0.0087  0.1411  0.0691
32199ION     NA49046   0.883  14.135  11.159  0.0507  0.0855  0.1003
32200ION     NA49047  15.852   2.594  10.908 -0.0679 -0.4076  0.1402
32201ION     NA49048  12.077   8.367  10.470  0.1666  0.1023  0.0308
32202ION     NA49049   1.619  13.122   1.871  0.0596  0.0203 -0.1170
32203ION     NA49050   5.305   7.256   2.493  0.1972  0.0320 -0.0706
32204ION     NA49051  11.316   3.953  14.698  0.4417 -0.0314  0.1173
32205ION     NA49052  12.643   4.682  10.279  0.1073  0.0301  0.2293
32206ION     NA49053  15.443  15.421  10.746 -0.0745 -0.2002  0.0284
32207ION     NA49054   4.424   3.400   1.244 -0.0928  0.0103  0.1572
32208ION     NA49055   9.180   0.728   5.922 -0.0327 -0.1939 -0.0198
32209ION     NA49056   7.854   5.291  10.439 -0.0921 -0.1733  0.1123
32210ION     NA49057   5.359  10.406   1.230 -0.3232  0.2397 -0.2893
32211ION     NA49058  12.584  17.666   6.018  0.0431 -0.1876 -0.1208
32212ION     NA49059   5.153  15.767  10.774  0.1036  0.0412  0.1718
32213ION     NA49060  15.480   7.769  10.561  0.2150  0.0334 -0.1141
32214ION     NA49061  11.073  17.931   1.181 -0.1665 -0.1503 -0.1823
32215ION     NA49062   3.850  15.677  14.254  0.2060 -0.0678 -0.1484
32216ION     NA49063   2.885  10.454  10.961  0.0163  0.0026  0.0432
32217ION     NA49064  14.809  18.083   6.003 -0.1113  0.1236 -0.1673
32218ION     NA49065   0.509   7.368  10.651 -0.0365  0.0275 -0.2406
32219ION     NA49066  11.079   3.559  10.393  0.2064 -0.0580  0.1226
32220ION     NA49067   4.547  12.582  11.115  0.1878  0.1105 -0.2186
32221ION     NA49068   6.370   3.984  13.952  0.0786 -0.5838  0.1073
32222ION     NA49069   1.892  17.038  10.797  0.4314  0.3458  0.0808
32223ION     NA49070   9.059   8.535  10.206  0.0625  0.1232 -0.1234
32224ION     NA49071   0.213  10.460   6.103  0.1222 -0.2260 -0.0434
32225ION     NA49072   3.427  10.026   5.316 -0.0560 -0.0368 -0.0446
32226ION     NA49073   0.887   3.365  10.251  0.0176 -0.0251  0.1232
32227ION     NA49074   6.490  13.054  10.766 -0.0206  0.4386 -0.1563
32228ION     NA49075   8.459   6.133  15.172 -0.2069  0.3176 -0.1473
32229ION     NA49076  13.725   4.874  10.431  0.2247 -0.1358  0.1152
32230ION     NA49077   0.966  14.279   4.684  0.0922  0.3665  0.2495
32231ION     NA49078   2.933  16.697   0.991 -0.1979 -0.0996  0.1339
32232ION     NA49079   6.673  17.009  10.868  0.0944 -0.0653 -0.0608
32233ION     NA49080  11.466   3.933  10.087 -0.3989  0.1712  0.0154
32234ION     NA49081   5.584  16.719   1.047 -0.2628 -0.0754  0.0722
32235ION     NA49082  17.169  12.514  11.181 -0.0387  0.1872 -0.1897
32236ION     NA49083  17.229   0.452  10.153  0.0454 -0.2193 -0.1302
32237ION     NA49084   4.159   9.629  10.950  0.1965 -0.3419 -0.0156
32238ION     NA49085   2.455  10.090  11.073  0.0139 -0.0179  0.2147
32239ION     NA49086  12.725   2.786  15.149 -0.0224 -0.1307 -0.4319
32240ION     NA49087   6.511  12.504   5.874 -0.0565  0.1556 -0.0475
32241ION     NA49088   9.810   2.621  10.587 -0.0398  0.0864  0.1606
32242ION     NA49089  14.030   4.414  12.956  0.0307 -0.0261 -0.0842
32243ION     NA49090   8.970  17.407  10.743 -0.1017  0.1801 -0.1101
32244ION     NA49091   9.760   3.475  10.557  0.2234 -0.0868  0.2328
32245ION     NA49092   5.077  12.861  10.969  0.4022  0.0500  0.0505
32246ION     NA49093   7.516   0.451  11.008  0.1183  0.1780  0.1845
32247ION     NA49094   9.003  16.770  10.576 -0.2634  0.1955 -0.2040
32248ION     NA49095   7.997   5.042   6.021  0.0047 -0.2645 -0.0928
32249ION     NA49096   2.583   6.004   6.074 -0.2963 -0.0339  0.2292
32250ION     NA49097   4.333   6.382   1.170 -0.1434 -0.0546 -0.1691
32251ION     NA49098   4.634   9.045  10.908 -0.1247 -0.1258  0.2063
32252ION     NA49099   6.232   4.587  10.675  0.0089 -0.0383  0.2808
32253ION     NA49100   7.323  17.851  16.513  0.1264 -0.0178  0.1008
32254ION     NA49101  17.741   9.503  10.701  0.1707 -0.3374  0.0172
32255ION     NA49102   1.895  17.698  10.753 -0.0435 -0.0395  0.0298
32256ION     NA49103   6.188  15.700  11.197 -0.1115 -0.0774  0.0555
32257ION     NA49104   9.406   4.910  10.371  0.1358  0.2342 -0.2802
32258ION     NA49105  14.309   6.074   5.901  0.3444  0.0131  0.2679
32259ION     NA49106   0.538  18.170   0.970 -0.3003 -0.2276 -0.0654
32260ION     NA49107   8.752   1.659  10.606  0.0966  0.5521  0.0408
32261ION     NA49108   1.706  10.544  13.795  0.0271 -0.0999  0.1204
32262ION     NA49109   5.053   9.622  10.727 -0.1191 -0.0671 -0.0655
32263ION     NA49110  11.984   4.063  15.566  0.0116  0.0940 -0.0181
32264ION     NA49111   3.454   0.294  10.719 -0.1989  0.3249 -0.0445
32265ION     NA49112  10.717  14.805  10.510 -0.2521 -0.2234 -0.3308
32266ION     NA49113  16.721   6.929   5.453  0.0351  0.2129  0.2057
32267ION     NA49114   7.701   2.914  10.681 -0.0253  0.0776 -0.2703
32268ION     NA49115   3.679   5.809   5.591 -0.1786 -0.0876  0.2579
32269ION     NA49116  10.070  13.235  10.711 -0.0586 -0.2121 -0.2517
32270ION     NA49117   1.632   4.375  10.265  0.0095 -0.3259  0.0842
32271ION     NA49118   5.989  11.322  10.758 -0.4839 -0.0673  0.0473
32272ION     NA49119   0.062  13.964  11.050  0.0480  0.2165  0.1411
32273ION     NA49120   2.610  14.982   0.763  0.0522  0.2153  0.2138
32274ION     NA49121  16.675  14.939   6.231 -0.1903  0.2336  0.2876
32275ION     NA49122  12.750  18.156  10.559 -0.0863  0.1899 -0.1454
32276ION     NA49123   4.349   0.568  10.879 -0.1239 -0.1337 -0.1725
32277ION     NA49124  17.858  11.449  14.197  0.1752 -0.1131 -0.1204
32278ION     NA49125   7.575  13.537   5.857  0.0888 -0.0309  0.0780
32279ION     NA49126   2.644   7.600   6.113  0.0664 -0.3351  0.0070
32280ION     NA49127   2.837  17.877   3.254  0.1311  0.1447  0.0867
32281ION     NA49128   9.551   1.288   0.283  0.1458  0.0757 -0.0953
32282ION     NA49129   9.050  18.163  15.632 -0.3168 -0.0392 -0.1682
32283ION     NA49130   4.063  12.954  14.191  0.1587 -0.2273 -0.4149
32284ION     NA49131   4.949  13.387  11.007 -0.3235  0.0707  0.0996
32285ION     NA49132   7.048   4.616  10.596  0.1156 -0.1173 -0.3083
32286ION     NA49133   9.940   6.628   3.911 -0.1608  0.3106 -0.0499
32287ION     NA49134  17.296   1.325  10.539 -0.0398  0.0318  0.1491
32288ION     NA49135  16.374  16.073   3.505 -0.3971 -0.0319 -0.1292
32289ION     NA49136   1.685   0.395  10.667 -0.1959 -0.1205  0.1980
32290ION     NA49137  16.633   4.900  14.298 -0.0823 -0.0284 -0.2036
32291ION     NA49138   5.547   2.090   1.254 -0.0238  0.2248 -0.1619
32292ION     NA49139   0.024   9.858  13.464 -0.2563 -0.0177  0.2303
32293ION     NA49140   1.735  13.361   5.956 -0.0881  0.0948  0.0646
32294ION     NA49141  17.435  11.964   1.832  0.3866  0.0946  0.0466
32295ION     NA49142  12.620  17.937  15.770 -0.0570 -0.0802 -0.1782
32296ION     NA49143   3.080  13.138   6.190 -0.3418  0.3366 -0.1079
32297ION     NA49144   5.282   0.536   6.476  0.1607 -0.0833  0.1247
32298ION     NA49145   6.987  16.125   0.811  0.0328  0.3546  0.4211
32299ION     NA49146   3.768   6.694  10.853  0.1428  0.1158 -0.1037
32300ION     NA49147  10.353  16.250  10.602  0.3916  0.1557  0.1271
32301ION     NA49148   1.937   3.148  10.359  0.1722  0.1482 -0.2942
32302ION     NA49149  12.885  11.533  10.542  0.1885  0.0122  0.0217
32303ION     NA49150   0.532   9.625   4.613 -0.0110 -0.1801  0.2626
32304ION     NA49151  17.156   8.058  10.675 -0.1709 -0.1016  0.1709
32305ION     NA49152   6.939  12.088  10.679 -0.0121  0.0518 -0.0894
32306ION     NA49153  14.178   9.116  10.750  0.0567  0.0693  0.0852
32307ION     NA49154  14.067   4.514  10.342  0.0764 -0.1669  0.1953
32308ION     NA49155  18.149  11.575  10.834 -0.0178 -0.1267 -0.1024
32309ION     NA49156   4.966   5.155  10.688  0.1707 -0.0118 -0.0424
32310ION     NA49157   2.319   6.314  10.646 -0.2270 -0.0634 -0.1815
32311ION     NA49158  17.734   4.539   5.718  0.0210  0.0588 -0.1009
32312ION     NA49159  10.360  16.976  12.367  0.2997 -0.1218  0.1546
32313ION     NA49160  13.030   7.630   5.376  0.2684  0.0637  0.3474
32314ION     NA49161   9.079  17.707   6.190  0.1889  0.0844 -0.2780
32315ION     NA49162  13.313   2.937  10.453 -0.1850  0.1714  0.2607
32316ION     NA49163   9.769  10.734  10.595 -0.1702 -0.0862 -0.2956
32317ION     NA49164  15.881   6.967  13.288 -0.0734  0.1908 -0.0965
32318ION     NA49165  13.738   6.741  10.459 -0.1343 -0.3106 -0.0041
32319ION     NA49166  11.288  17.698  12.038  0.2175  0.4986  0.2541
32320ION     NA49167  12.415   5.564   5.430  0.0994 -0.0618  0.0314
32321ION     NA49168   7.726  12.229  10.841  0.1145 -0.1595  0.3264
32322ION     NA49169   2.984   0.388  14.391 -0.1526 -0.1789 -0.0999
32323ION     NA49170  13.738  17.973  10.533 -0.0092  0.0796  0.4093
32324ION     NA49171   9.336  10.465  15.756  0.2325 -0.1763  0.2402
32325ION     NA49172  16.187  16.098   6.072  0.3334  0.0492 -0.2299
32326ION     NA49173  11.291  10.895   1.099  0.1888 -0.1632  0.2006
32327ION     NA49174   0.482   2.864   5.514 -0.0147 -0.3242  0.1829
32328ION     NA49175   9.126  13.450  10.551  0.0051  0.0804  0.1065
32329ION     NA49176   6.654   5.801  14.288  0.1480  0.3178 -0.1923
32330ION     NA49177   5.475  17.748   6.441 -0.2456 -0.3182 -0.0249
32331ION     NA49178   4.734  15.157  12.912  0.0100  0.3510 -0.0480
32332ION     NA49179   8.169  12.957  10.716  0.3615  0.3802 -0.1037
32333ION     NA49180   4.863  11.867  12.336 -0.0512 -0.1458 -0.0715
32334ION     NA49181  12.344  10.850  10.629 -0.1738  0.1063  0.2356
32335ION     NA49182  16.458  14.418   1.089  0.0550 -0.1136 -0.3668
32336ION     NA49183   4.644   4.416  10.693  0.0953 -0.0079  0.1796
32337ION     NA49184   8.887   5.684  10.379 -0.1529  0.0060 -0.0757
32338ION     NA49185  12.096  13.461   5.736  0.0886  0.2073 -0.2529
32339ION     NA49186   8.391   9.005  10.326  0.3446 -0.1065 -0.2047
32340ION     NA49187  15.034  14.745  10.543  0.1941 -0.3231 -0.1665
32341ION     NA49188  12.360   3.736  10.125 -0.2301 -0.0839  0.4586
32342ION     NA49189  10.826   4.161   5.553 -0.2655 -0.0877  0.0099
32343ION     NA49190  17.068   5.930   5.091  0.0507  0.1253  0.0720
32344ION     NA49191   6.063   7.603  10.270 -0.0663 -0.0256 -0.0196
32345ION     NA49192   3.338  15.535  13.317 -0.3813  0.1445 -0.0116
32346ION     NA49193  15.297   7.441   3.680 -0.2743 -0.0209 -0.1185
32347ION     NA49194   7.206   0.113  15.561 -0.1492 -0.0616 -0.0395
32348ION     NA49195  12.742  17.529   4.755  0.0479 -0.1510  0.0949
32349ION     NA49196   2.005   8.179   6.233  0.5080 -0.2893  0.0169
32350ION     NA49197   4.919  15.546  16.572 -0.0057  0.1205  0.1148
32351ION     NA49198  15.823   0.721  10.427  0.0142 -0.1491  0.3007
32352ION     NA49199  10.175   9.899  10.358 -0.1519 -0.0653  0.0846
32353ION     NA49200  10.015   1.300  10.793 -0.1102  0.0098  0.0156
32354ION     NA49201  10.558   8.629  11.287  0.1400 -0.2415  0.1055
32355ION     NA49202  15.713   5.338  12.099  0.1717 -0.1277 -0.3314
32356ION     NA49203  16.132   0.322   6.190  0.2561 -0.1279 -0.0011
32357ION     NA49204  11.977   4.433  10.144 -0.0113  0.1206  0.1094
32358ION     NA49205   9.130  10.352   4.806  0.2026  0.0876 -0.0782
32359ION     NA49206   3.183   1.626   1.275  0.0927  0.0995 -0.1715
32360ION     NA49207  12.699   2.960  10.486  0.0140  0.0380 -0.2938
32361ION     NA49208  14.714  11.976   6.170 -0.0735  0.1882 -0.1287
32362ION     NA49209   3.900   0.080  11.350  0.2150  0.1271 -0.2441
32363ION     NA49210  11.842  18.119  10.908  0.2036 -0.0645  0.1366
32364ION     NA49211   6.262   0.921   2.387 -0.0235  0.2808  0.1753
32365ION     NA49212   7.355   9.167   5.903 -0.1055 -0.0446  0.1471
32366ION     NA49213   1.156   5.152  10.340 -0.2640 -0.0526 -0.1482
32367ION     NA49214   3.095   2.644  10.536  0.1351  0.1299 -0.2734
32368ION     NA49215  11.418  14.565  10.434 -0.1362 -0.0747  0.2043
32369ION     NA49216  17.805   9.307  15.047  0.0158 -0.1687 -0.1679
32370ION     NA49217   4.591   3.566  12.094 -0.1959 -0.0314  0.2820
32371ION     NA49218  16.939   4.045  10.422  0.2172  0.2218  0.2417
32372ION     NA49219   4.024  12.129   6.507  0.3447 -0.1789 -0.1726
32373ION     NA49220   0.542  12.329  11.221  0.2967 -0.1482  0.0354
32374ION     NA49221   3.300  11.232  11.019 -0.0008  0.2185 -0.1754
32375ION     NA49222   0.642  14.994  15.471 -0.1420  0.1866 -0.0260
32376ION     NA49223   1.752  13.882  10.990 -0.1593 -0.0256 -0.1790
32377ION     NA49224  17.994   5.799  10.490  0.1797  0.1106  0.2032
32378ION     NA49225  17.887   1.928  13.045  0.1632  0.1481 -0.1517
32379ION     NA49226   5.453  12.180  10.851 -0.1165 -0.0138 -0.0101
32380ION     NA49227  16.290  11.289   6.055 -0.2401 -0.4798 -0.2497
32381ION     NA49228  17.326  17.974  10.458  0.1607  0.4397  0.1293
32382ION     NA49229   3.344   7.491  10.854  0.1506 -0.0521  0.2560
32383ION     NA49230   4.519  13.644   6.301 -0.0527 -0.1413 -0.0000
32384ION     NA49231   7.547   7.650  10.220 -0.0179  0.0727 -0.1460
32385ION     NA49232  17.506   2.324  10.295 -0.4134 -0.1242 -0.1451
32386ION     NA49233  16.935   5.267  10.579 -0.2337  0.2245  0.1026
32387ION     NA49234   2.812  12.136  11.191 -0.1092 -0.0492  0.1925
32388ION     NA49235  16.733   5.967  14.745  0.1265  0.0499  0.3051
32389ION     NA49236   2.991   2.453   2.975 -0.2747  0.0220 -0.1442
32390ION     NA49237  18.113   9.788  10.839  0.2802 -0.1153  0.2286
32391ION     NA49238  14.531  14.027  12.753  0.0381 -0.0155  0.0208
32392ION     NA49239  17.462  17.280   4.965  0.1602  0.0967 -0.2445
32393ION     NA49240  16.437   1.398  10.520  0.0201 -0.1304 -0.1449
32394ION     NA49241   3.383   9.596  16.607  0.4219 -0.2614 -0.1801
32395ION     NA49242  16.420   8.344   5.900 -0.1094  0.0224 -0.3058
32396ION     NA49243   5.169  15.862   4.195 -0.0798  0.1388 -0.0006
32397ION     NA49244   1.408   6.588  14.356 -0.1814 -0.1669  0.2462
32398ION     NA49245  14.048  10.451   6.030 -0.2364  0.2286 -0.4307
32399ION     NA49246   0.122   5.948   2.420  0.1911 -0.0437 -0.1607
32400ION     NA49247   0.662   8.251  10.669  0.3047  0.0597  0.0435
32401ION     NA49248  16.563   2.760  10.514  0.0528  0.1038  0.2992
32402ION     NA49249   7.526   6.507  10.569  0.1065  0.0511  0.3694
32403ION     NA49250   7.807   9.083  15.271 -0.2138 -0.0518  0.2401
32404ION     NA49251  13.125   9.500   3.800  0.0306  0.0803 -0.0237
32405ION     NA49252  12.621   8.406  10.640  0.0100 -0.3722  0.0109
32406ION     NA49253   2.164   8.251  11.059 -0.0700  0.2125  0.4895
32407ION     NA49254   8.262   3.500  13.420  0.0740  0.0787  0.0036
32408ION     NA49255   9.404   5.873   0.775 -0.0043 -0.2970  0.1170
32409ION     NA49256  13.297  13.005  10.675  0.2602  0.0554  0.1889
32410ION     NA49257  10.259   7.537  10.432  0.3049  0.0382  0.0232
32411ION     NA49258  16.676   2.450   0.738  0.0724  0.1398 -0.2472
32412ION     NA49259   3.759  13.817  10.810  0.1713 -0.1715 -0.0802
32413ION     NA49260   2.740   2.904   5.951  0.1420 -0.1755  0.3460
32414ION     NA49261  10.202   9.397  10.446  0.0647 -0.1139  0.2827
32415ION     NA49262  14.127  12.230  14.707 -0.4355  0.1482  0.1875
32416ION     NA49263  13.236  10.867  11.101  0.0881  0.0738 -0.0333
32417ION     NA49264  10.556  12.484  10.638 -0.1578  0.0567  0.2724
32418ION     NA49265  13.152  16.931  12.016 -0.1664  0.0515 -0.1219
32419ION     NA49266   7.444  14.522  10.812 -0.0720  0.0958 -0.2589
32420ION     NA49267   1.575   9.016  11.219 -0.0387  0.1327  0.0995
32421ION     NA49268   5.939   9.476  10.730  0.2065 -0.1409 -0.1641
32422ION     NA49269   6.211   5.617  10.654 -0.0258  0.0695 -0.0339
32423ION     NA49270   1.089   9.846  10.796  0.2208  0.0638 -0.2506
32424ION     NA49271  11.766  14.220   3.783 -0.2965  0.0794  0.1415
32425ION     NA49272   7.737   1.022   0.458 -0.0180 -0.0730  0.1297
32426ION     NA49273   8.270  16.827  10.792  0.1140 -0.0761 -0.1264
32427ION     NA49274  12.427   8.051  12.283  0.0152  0.0930  0.1598
32428ION     NA49275   5.126   4.589   0.686  0.0784 -0.1072  0.1871
32429ION     NA49276  10.625   0.412  10.934  0.0865 -0.2186 -0.1568
32430ION     NA49277  14.309  16.626  10.695 -0.2184 -0.0302 -0.0368
32431ION     NA49278   2.919   0.704  13.145  0.0231  0.0308 -0.0726
32432ION     NA49279  13.754   8.489  10.765  0.0387 -0.1372  0.1123
32433ION     NA49280   2.052  15.960  11.059  0.1043  0.0083  0.2059
32434ION     NA49281  10.022  15.601  12.445 -0.0992  0.0324 -0.0392
32435ION     NA49282   6.690  10.053  15.179 -0.3070 -0.1370  0.0261
32436ION     NA49283  15.710   1.912  12.395 -0.2760 -0.1251  0.0609
32437ION     NA49284   3.749  10.491  11.004  0.0364 -0.2248 -0.2903
32438ION     NA49285  15.100  17.130  10.609 -0.1271 -0.2755 -0.0633
32439ION     NA49286  16.582   5.024   1.192 -0.0552 -0.2401 -0.0935
32440ION     NA49287   6.898   2.489  10.719 -0.0933  0.0480 -0.0563
32441ION     NA49288   9.272  13.898  10.626  0.1942  0.0459 -0.0877
32442ION     NA49289  11.936   9.234  10.663 -0.2809  0.0897  0.3685
32443ION     NA49290   5.696   5.398  10.612  0.0660  0.0324  0.0351
32444ION     NA49291  14.749  11.286  14.014  0.1195  0.0303  0.1761
32445ION     NA49292   7.878   1.709  10.585 -0.0064 -0.2574 -0.1559
32446ION     NA49293  11.838   6.862  11.197 -0.3938  0.1201  0.0308
32447ION     NA49294   9.207  11.370  10.454 -0.1049 -0.1479 -0.1353
32448ION     NA49295  14.855  12.417  10.741  0.3643 -0.0276 -0.1058
32449ION     NA49296   8.199  13.992  14.132  0.0206 -0.2226  0.0953
32450ION     NA49297   5.273   0.305  11.080 -0.0828  0.2823 -0.0251
32451ION     NA49298  15.972   3.994   5.952 -0.1319 -0.2583  0.0771
32452ION     NA49299  11.166   9.557  10.501 -0.0476 -0.0024 -0.2042
32453ION     NA49300  12.433   1.065   0.456 -0.0814  0.0642 -0.0676
32454ION     NA49301   3.641  16.084  10.945  0.2903  0.0811 -0.2105
32455ION     NA49302  13.899   2.128   3.293  0.2450 -0.1477 -0.0560
32456ION     NA49303   0.868   6.065  10.514  0.1027  0.1440  0.2752
32457ION     NA49304   6.183  10.364  10.602 -0.3052  0.1419 -0.2434
32458ION     NA49305  15.840  14.832  14.815  0.2272 -0.0528  0.0174
32459ION     NA49306   0.074   3.305   2.075 -0.1078  0.2519 -0.2365
32460ION     NA49307   7.450  11.399  10.775  0.1181 -0.0810 -0.1338
32461ION     NA49308   8.136   8.269  10.010 -0.2905 -0.0483  0.1749
32462ION     NA49309  12.842   9.304  12.130 -0.0946  0.2193  0.1487
32463ION     NA49310   0.503   0.765  10.403 -0.0232 -0.5999 -0.0280
32464ION     NA49311   7.630  13.085   2.363 -0.1532  0.0290 -0.3344
32465ION     NA49312   4.106  11.246  10.959 -0.1105 -0.2106  0.0848
32466ION     NA49313  16.855  12.420   6.115 -0.3893 -0.0189 -0.0075
32467ION     NA49314   4.812  14.971  10.893  0.1032 -0.2451 -0.0962
32468ION     NA49315  17.141   3.518  11.437  0.1802 -0.1308 -0.1323
32469ION     NA49316  11.722  15.007  10.572  0.1613 -0.1591  0.0151
32470ION     NA49317  13.574  15.524  10.341 -0.1359 -0.1181 -0.1932
32471ION     NA49318   0.476   4.370  10.303 -0.1929 -0.2169 -0.1858
32472ION     NA49319   0.003  10.747  10.629  0.1033 -0.1065 -0.0094
32473ION     NA49320   0.912  12.193   6.250  0.2287 -0.1560 -0.0856
32474ION     NA49321  16.216   9.141  10.721 -0.1324 -0.2700  0.2548
32475ION     NA49322  14.812   4.043  10.385  0.0309 -0.0694 -0.1493
32476ION     NA49323   8.440  15.942  10.817  0.2582 -0.0466 -0.1201
32477ION     NA49324  12.021   0.843   4.759 -0.3764 -0.2638  0.0185
32478ION     NA49325   0.039  11.271   5.989 -0.3119 -0.0544 -0.0340
32479ION     NA49326   3.493   8.561  12.072  0.3718  0.3716  0.0705
32480ION     NA49327  15.895  10.599   3.500  0.1626 -0.0965 -0.0750
32481ION     NA49328   5.676   1.216  10.918  0.1857  0.0796 -0.0028
32482ION     NA49329  17.172   2.009  10.609  0.0720 -0.2782 -0.0561
32483ION     NA49330  15.515   8.963   1.781  0.1518 -0.1477  0.2162
32484ION     NA49331  14.576   4.520  10.461 -0.0681  0.1599  0.2478
32485ION     NA49332   5.373   6.173  10.542  0.0346  0.0150 -0.1987
32486ION     NA49333   1.033   3.456   3.062 -0.1000 -0.2161 -0.1347
32487ION     NA49334  17.355   3.389  10.252  0.0124 -0.0003  0.3530
32488ION     NA49335  13.496  12.178  10.724  0.2649  0.0386  0.0304
32489ION     NA49336  11.927   0.429  10.610 -0.0736 -0.2483  0.1169
32490ION     NA49337  17.445   0.045  14.006  0.0905  0.1946  0.2490
32491ION     NA49338  10.857   3.435   0.258  0.0753 -0.0235  0.1088
32492ION     NA49339  17.809   8.879  10.685  0.0944 -0.1147 -0.0670
32493ION     NA49340  13.243  16.434   5.464  0.0727  0.1334 -0.0497
32494ION     NA49341  16.542  10.827  10.591 -0.1445 -0.2487 -0.0073
32495ION     NA49342   6.391   4.931   4.858  0.0209 -0.0839 -0.0832
32496ION     NA49343  13.316   2.104  10.843  0.0342 -0.3743 -0.3118
32497ION     NA49344  12.615  16.847   3.167  0.3543 -0.1873  0.0379
32498ION     NA49345   1.801   7.317   3.625 -0.2713  0.0155 -0.1719
32499ION     NA49346   2.940   8.334   5.647 -0.0015 -0.0091 -0.0519
32500ION     NA49347   6.984  15.057  11.194  0.0830  0.1722  0.1132
32501ION     NA49348   0.996  17.597  10.743 -0.2214  0.1324 -0.1514
32502ION     NA49349  11.015   1.730  15.988  0.1001 -0.0296 -0.0585
32503ION     NA49350  11.163  16.914  10.587 -0.2155  0.2070 -0.0351
32504ION     NA49351  10.915   2.718  10.511  0.1185  0.3467  0.0137
32505ION     NA49352   5.626   9.067  16.241 -0.1386 -0.1508  0.0023
32506ION     NA49353   8.410  10.884  12.544  0.2180 -0.1583  0.1316
32507ION     NA49354  16.030  10.001  10.707 -0.2040 -0.0095 -0.1310
32508ION     NA49355   9.111   5.423  12.258  0.0221  0.2119  0.2364
32509ION     NA49356   8.764   8.711  11.442 -0.0657 -0.2323 -0.0749
32510ION     NA49357  15.835   3.663  10.555  0.1274 -0.0801  0.1803
32511ION     NA49358   8.958   3.453  13.965  0.4060  0.2990  0.3403
32512ION     NA49359   9.770   8.134  10.265 -0.2824  0.0142  0.0896
32513ION     NA49360   7.939   1.313   6.019  0.5255  0.0730 -0.3294
32514ION     NA49361   8.438   3.216  10.469  0.0342 -0.0880 -0.1003
32515ION     NA49362   6.804   9.783  10.740  0.0813 -0.1599 -0.0281
32516ION     NA49363  10.799   7.989  10.324 -0.0979  0.1733  0.2798
32517ION     NA49364  15.871   4.508   5.300 -0.0381  0.1960  0.0031
32518ION     NA49365  14.439  13.874  10.956 -0.0841  0.0173  0.2198
32519ION     NA49366   6.965  15.919  10.795  0.1274  0.2491  0.0169
32520ION     NA49367  15.035   3.326  10.526 -0.1126  0.3715  0.2070
32521ION     NA49368  15.675  11.128  10.654 -0.0302 -0.2334 -0.2031
32522ION     NA49369   5.956  12.699  12.725 -0.0230  0.0921  0.2534
32523ION     NA49370   5.287   6.554   6.123 -0.1267 -0.1529  0.0789
32524ION     NA49371   7.143   9.281  11.833  0.0107 -0.0234  0.2722
32525ION     NA49372  12.903  11.750  16.423  0.1537 -0.1798  0.3387
32526ION     NA49373  11.859  17.290   5.483 -0.0004 -0.0681  0.1764
32527ION     NA49374   1.310  12.757  11.051 -0.1056  0.0437  0.0548
32528ION     NA49375   7.348   6.825  16.487 -0.1784 -0.0782  0.0343
32529ION     NA49376   0.246   6.020  10.570  0.0100 -0.0816  0.0762
32530ION     NA49377   8.347  11.421  10.767 -0.3967 -0.1820 -0.0197
32531ION     NA49378  15.894  18.169   0.826  0.1195 -0.0745 -0.1517
32532ION     NA49379   9.566   9.913  11.002  0.1414  0.5179 -0.1151
32533ION     NA49380  13.340  13.283   5.768  0.0418 -0.3063 -0.0409
32534ION     NA49381  16.434   5.936  10.864  0.0596  0.1319 -0.3417
32535ION     NA49382  17.771   4.793  11.310 -0.1060  0.1012 -0.1839
32536ION     NA49383   7.159   7.326  10.353 -0.0760  0.1312 -0.0576
32537ION     NA49384   5.567  14.995  11.033  0.2015 -0.1058  0.1638
32538ION     NA49385  10.975  15.651  14.709  0.0795  0.1138  0.1636
32539ION     NA49386   6.662  13.782  10.777  0.1087  0.1070 -0.0971
32540ION     NA49387   3.762  17.105  10.954  0.2073 -0.0248  0.0441
32541ION     NA49388  10.974  13.218  10.611  0.1572  0.1158  0.0359
32542ION     NA49389  15.308   8.515  10.718  0.1950 -0.0199 -0.1270
32543ION     NA49390   3.764   2.848   1.947 -0.0480 -0.3059 -0.1498
32544ION     NA49391  18.065   1.687  10.370 -0.1118 -0.2159  0.1310
32545ION     NA49392  17.586  14.482   6.202  0.0528 -0.2312  0.0470
32546ION     NA49393   6.745   1.485  10.952  0.3698 -0.0622 -0.2346
32547ION     NA49394   6.285   0.691   6.378  0.1622  0.1093 -0.2539
32548ION     NA49395   2.111   1.090  10.626 -0.0010  0.0645  0.0529
32549ION     NA49396   3.214   6.591  10.645 -0.2401 -0.2269 -0.0607
32550ION     NA49397  12.724   3.740  10.477 -0.0304  0.1299 -0.1853
32551ION     NA49398  12.643  10.031  10.785 -0.2720 -0.0132  0.0859
32552ION     NA49399   0.995  13.044   5.526  0.0599  0.1991 -0.1512
32553ION     NA49400   6.563   6.550  10.765 -0.1778  0.2560  0.1330
32554ION     NA49401   8.200  17.502   2.070 -0.2244  0.1768  0.2385
32555ION     NA49402   7.634  16.253  10.715 -0.1005  0.1605  0.3061
32556ION     NA49403  14.680  17.923  10.395  0.0804  0.0202 -0.0267
32557ION     NA49404   9.653  16.745  11.276 -0.1536 -0.3155 -0.1187
32558ION     NA49405  13.215  14.535  10.534  0.0180 -0.1978 -0.1665
32559ION     NA49406   8.914   7.611   9.908  0.3635  0.0137  0.0641
32560ION     NA49407  12.271  10.501  12.056 -0.1642 -0.0768 -0.0752
32561ION     NA49408   7.203   7.730  14.358 -0.0106  0.0153 -0.0435
32562ION     NA49409   9.615  11.109   2.398  0.0108 -0.0300  0.1660
32563ION     NA49410   9.598   1.634  10.705  0.0046 -0.0685  0.1385
32564ION     NA49411   9.271   2.604  10.557 -0.1723 -0.3799  0.0611
32565ION     NA49412  17.960  13.079  11.163 -0.1521  0.2450  0.1758
32566ION     NA49413  13.522  13.187   3.197  0.0499  0.0600  0.4426
32567ION     NA49414  13.527  16.494  10.578 -0.2552  0.1399 -0.2794
32568ION     NA49415   4.951   4.306   3.809  0.0384  0.2489 -0.0465
32569ION     NA49416  12.831  16.867  15.227 -0.1288 -0.1199 -0.3073
32570ION     NA49417   3.826  14.819  11.032 -0.1718 -0.3805  0.2014
32571ION     NA49418   1.501  13.358  11.122 -0.0125  0.1436 -0.0288
32572ION     NA49419   9.692   2.328   4.989  0.1234  0.2685  0.0466
32573ION     NA49420   6.440  14.834  10.867  0.0447 -0.1412 -0.0055
32574ION     NA49421   2.968  15.265  13.456 -0.0756  0.2899 -0.3428
32575ION     NA49422   4.288  15.646  10.691 -0.0683 -0.3980 -0.1703
32576ION     NA49423   8.317  14.960  10.692  0.1077 -0.1075 -0.1036
32577ION     NA49424  11.250   4.280  11.058 -0.0082 -0.3992  0.0979
32578ION     NA49425  14.970   0.655  10.384  0.3420 -0.1303 -0.0090
32579ION     NA49426   4.369  13.325  11.041 -0.0966  0.0320  0.0256
32580ION     NA49427   1.025   7.878   3.025  0.0658 -0.2046  0.2611
32581ION     NA49428  12.350  17.783  10.373 -0.0936  0.1338 -0.1038
32582ION     NA49429   1.958   7.971   0.167 -0.1223  0.0564  0.0109
32583ION     NA49430   4.606  17.712  10.982 -0.1126 -0.0179 -0.0788
32584ION     NA49431   2.136   9.833  11.402 -0.0763  0.2428 -0.4318
32585ION     NA49432   8.597   4.660  10.394  0.0401  0.0678 -0.3089
32586ION     NA49433  17.213  14.958  11.210 -0.0433  0.1860  0.2844
32587ION     NA49434  12.251  14.226  10.454  0.1467  0.1724  0.2556
32588ION     NA49435   7.866   3.448   3.988  0.2680  0.3298 -0.2988
32589ION     NA49436   8.519   0.049  10.611  0.1486  0.6614  0.2114
32590ION     NA49437   9.724   5.926   5.350 -0.2727  0.0501 -0.2960
32591ION     NA49438   1.313   1.201  10.344 -0.1042 -0.2515 -0.0159
32592ION     NA49439   5.605   3.375  12.199  0.4282 -0.0876 -0.0575
32593ION     NA49440   6.618   9.103  10.640 -0.1453  0.2648  0.0538
32594ION     NA49441   9.135   9.605  13.487 -0.1655  0.2749  0.0205
32595ION     NA49442  17.704   0.747  10.255 -0.1435 -0.2894  0.2522
32596ION     NA49443   5.778   0.558   0.422 -0.5676  0.1719 -0.1376
32597ION     NA49444  11.507  12.337  13.611 -0.0454 -0.1374 -0.1623
32598ION     NA49445  10.028   9.229   5.161 -0.1967 -0.0535  0.1225
32599ION     NA49446   6.433  10.534   3.491 -0.0143  0.0412 -0.0368
32600ION     NA49447  13.854  12.675  12.942  0.1202  0.3109  0.0878
32601ION     NA49448   1.725  11.957  13.757 -0.1031 -0.0447  0.0414
32602ION     NA49449   3.581  12.338  11.284 -0.0596  0.2039 -0.0593
32603ION     NA49450   6.944   3.888  10.936  0.1753  0.1656  0.3761
32604ION     NA49451  12.018   4.994  11.290  0.1357 -0.1152  0.0567
32605ION     NA49452   7.238  10.716  12.019 -0.1265 -0.2006  0.0446
32606ION     NA49453   3.755   8.797  11.128  0.2193  0.3499  0.0674
32607ION     NA49454  14.052   0.422  10.450 -0.0543  0.0130 -0.0339
32608ION     NA49455  17.083  18.126   5.333  0.0971  0.0195  0.2086
32609ION     NA49456   1.083  15.533  11.474 -0.1264  0.0080  0.1824
32610ION     NA49457  11.252  14.064  10.448 -0.1719  0.0826  0.1346
32611ION     NA49458  10.626  17.631  10.842 -0.0909  0.2236  0.3018
32612ION     NA49459  16.062  17.462   6.101  0.0234 -0.4894 -0.2531
32613ION     NA49460   8.681  18.080   6.201  0.2420 -0.2172  0.0754
32614ION     NA49461  13.389  10.531  16.378  0.3485  0.0616  0.0005
32615ION     NA49462   0.331   2.537  10.452 -0.0512 -0.0594  0.2746
32616ION     NA49463  17.065  12.071   0.824 -0.0589 -0.2876  0.3574
32617ION     NA49464  11.066   1.818  10.562 -0.0464  0.0723 -0.1344
32618ION     NA49465  16.522  17.609   1.876  0.1134  0.1830 -0.1021
32619ION     NA49466  14.378   1.287  10.465  0.0120  0.0684 -0.3276
32620ION     NA49467   0.570   0.869   5.663 -0.0556  0.3465  0.1832
32621ION     NA49468   8.402   6.073  10.263 -0.0806  0.0176  0.2031
32622ION     NA49469  12.379  15.184   1.325 -0.2867  0.3646 -0.2104
32623ION     NA49470  11.951   6.273  10.552  0.1924 -0.2530 -0.1119
32624ION     NA49471   0.054   3.122  10.076  0.0768  0.1011 -0.2892
32625ION     NA49472  13.925  16.834   4.371  0.1171 -0.2887  0.2324
32626ION     NA49473   4.663  12.727   6.344 -0.4044 -0.1824 -0.0028
32627ION     NA49474  15.363  16.318  10.619 -0.3357 -0.3380  0.0902
32628ION     NA49475   7.486  17.599  10.936 -0.1335  0.4956 -0.1520
32629ION     NA49476  18.106  16.260  10.869  0.3546  0.0420 -0.0061
32630ION     NA49477  12.109   7.522  10.523  0.0928  0.1709 -0.1227
32631ION     NA49478  16.872  13.457  10.913  0.2161 -0.0798  0.0535
32632ION     NA49479   3.545  15.133  14.462  0.2584 -0.0103 -0.0236
32633ION     NA49480   2.482  12.406   0.964  0.1252 -0.0544  0.0180
32634ION     NA49481   1.364   8.311  15.587 -0.1019 -0.0628  0.0835
32635ION     NA49482   2.494   2.358  10.628 -0.1255 -0.0281 -0.0535
32636ION     NA49483   4.619  10.469  10.866  0.1364 -0.2683  0.1250
32637ION     NA49484   3.328  14.544  11.062  0.0420  0.1289 -0.1861
32638ION     NA49485  12.202  16.830  10.508 -0.0008  0.0175 -0.0241
32639ION     NA49486  11.771   3.054  10.508  0.2428  0.1620  0.0290
32640ION     NA49487  13.773   0.409  11.301 -0.1619 -0.3165 -0.0973
32641ION     NA49488  15.740  11.644  15.747 -0.0360  0.0906  0.2679
32642ION     NA49489  11.195   8.987  14.146  0.1100  0.2107 -0.1478
32643ION     NA49490  17.717  12.232  10.928  0.2648 -0.0060 -0.1374
32644ION     NA49491   9.606  11.066  14.062  0.2922 -0.1023  0.2092
32645ION     NA49492  11.848   1.849  10.812  0.0172 -0.1260  0.3520
32646ION     NA49493   8.420   5.609   4.424 -0.3399 -0.0149  0.2370
32647ION     NA49494  12.158  13.305   1.873 -0.2408 -0.0332 -0.1115
32648ION     NA49495   2.310   4.774  11.456  0.3282  0.0404 -0.1772
32649ION     NA49496   3.157  17.689  10.730 -0.0083  0.2286 -0.1615
32650ION     NA49497   9.291  10.300  10.292 -0.0333 -0.1061  0.2441
32651ION     NA49498  10.463   3.044  15.133  0.2080 -0.3155  0.0418
32652ION     NA49499   0.029  16.445   6.107  0.1465 -0.0500 -0.0388
32653ION     NA49500   4.305  15.891   6.175  0.1719  0.3259  0.0597
32654ION     NA49501  12.085  11.746  10.617 -0.2860  0.0723  0.0772
32655ION     NA49502   9.514   7.216   9.978 -0.1385 -0.0261 -0.1955
32656ION     NA49503  12.151  12.175   5.346  0.1708 -0.1286 -0.3506
32657ION     NA49504   9.051   6.650  10.223  0.2866  0.3284  0.0424
32658ION     NA49505   5.792  14.244  11.083 -0.0763 -0.1061 -0.0513
32659ION     NA49506  15.019  13.241  10.690 -0.0122 -0.0229 -0.0273
32660ION     NA49507   6.045   1.977  10.769  0.1791 -0.1020 -0.1161
32661ION     NA49508  13.249   0.717  10.552  0.1266  0.1085  0.0388
32662ION     NA49509   4.553  14.219  10.975  0.2633  0.1284 -0.1037
32663ION     NA49510   0.306  18.117  10.588 -0.1824 -0.0397 -0.2221
32664ION     NA49511   9.246   7.434  11.367  0.3607 -0.1657  0.3295
32665ION     NA49512   3.600   6.474   2.902  0.1948 -0.1298  0.4067
32666ION     NA49513  11.479   1.186  10.499  0.1371  0.2776 -0.4141
32667ION     NA49514   1.390   6.641  10.650  0.1137  0.0082  0.0225
32668ION     NA49515   3.216  14.797   4.862 -0.0500 -0.2233 -0.0206
32669ION     NA49516   2.429  16.341   5.628 -0.4189  0.0637 -0.0965
32670ION     NA49517  13.924  13.666  10.760  0.3223  0.0301 -0.0232
32671ION     NA49518   2.134   1.906  15.765  0.2555 -0.2152 -0.0119
32672ION     NA49519  13.104  17.106   0.999  0.1852  0.1160 -0.0801
32673ION     NA49520   5.760  16.570  11.002  0.1529  0.1387 -0.0201
32674ION     NA49521  10.597  10.359   2.777  0.2537 -0.1151 -0.1188
32675ION     NA49522  14.526   7.312  10.595 -0.0453 -0.0558 -0.3134
32676ION     NA49523  11.709  16.967   4.382 -0.2308 -0.0746  0.2175
32677ION     NA49524  17.740  14.936   0.707 -0.3055  0.1632  0.0285
32678ION     NA49525   0.717  16.815  11.015  0.3137 -0.1428  0.1010
32679ION     NA49526   9.213  15.221  15.962 -0.4448  0.0617 -0.1561
32680ION     NA49527  10.016   4.219  10.248 -0.2029 -0.3963 -0.1897
32681ION     NA49528  13.268   1.876   5.762 -0.0935 -0.2111 -0.1260
32682ION     NA49529  17.358  12.837  15.362  0.3191 -0.2165  0.0670
32683ION     NA49530   3.398   9.738  11.072  0.2054  0.3074  0.0202
32684ION     NA49531   2.036   4.415   4.530  0.0670 -0.2550  0.1432
32685ION     NA49532   6.333   0.167  13.939  0.2307  0.5467  0.1735
32686ION     NA49533   7.325   6.420   1.838 -0.4232 -0.1609  0.0712
32687ION     NA49534   3.877   8.233   3.716 -0.1013  0.1003 -0.2811
32688ION     NA49535  14.821  10.944  10.572  0.0606 -0.0591 -0.0062
32689ION     NA49536   0.267   7.136   5.994  0.0940 -0.1751  0.3000
32690ION     NA49537  14.113   7.443  14.731 -0.1121  0.0849 -0.1150
32691ION     NA49538   3.061  12.669  14.740 -0.1296  0.0725  0.0990
32692ION     NA49539  17.413  14.018  11.147 -0.0470  0.3015 -0.1896
32693ION     NA49540  12.129  18.135  11.769  0.2454 -0.0799 -0.4171
32694ION     NA49541   0.307  11.657   3.614  0.1206  0.1460 -0.1746
32695ION     NA49542   5.218   0.277  14.869 -0.1796 -0.0990  0.0115
32696ION     NA49543   4.436   1.530   6.216  0.0835 -0.0601  0.1125
32697ION     NA49544   9.219   0.711  10.987  0.0947 -0.0050  0.0732
32698ION     NA49545  14.410  10.677   5.765 -0.2923  0.2340 -0.0074
32699ION     NA49546  17.392  11.237  10.766  0.3460 -0.1671 -0.1235
32700ION     NA49547  17.400   6.105  11.116  0.0056 -0.3413 -0.0986
32701ION     NA49548   8.913   4.119  13.080 -0.0020  0.4272  0.1675
32702ION     NA49549   1.543   4.888  15.285  0.0548 -0.2141  0.0097
32703ION     NA49550  15.314   9.445  10.592  0.4770 -0.3764  0.3727
32704ION     NA49551   9.463  15.812  10.649  0.2343  0.2014 -0.1203
32705ION     NA49552   4.642  12.363   1.037  0.0773 -0.0573 -0.2066
32706ION     NA49553   3.830  15.070   6.184  0.6742 -0.0716  0.1695
32707ION     NA49554  17.979  17.569   3.196 -0.2049 -0.1675 -0.1143
32708ION     NA49555  17.984   2.327   5.816 -0.0877 -0.2344 -0.0536
32709ION     NA49556  16.568   3.216  10.724 -0.1244 -0.0185  0.1581
32710ION     NA49557   8.970   0.268  11.089  0.0123 -0.2241  0.2035
32711ION     NA49558   5.687   6.375  10.947 -0.2927  0.1032  0.1562
32712ION     NA49559  11.515  17.355  10.554  0.0275 -0.0317 -0.0912
32713ION     NA49560   0.953  14.747   0.600  0.1570  0.1757  0.0717
32714ION     NA49561   0.059  17.549  11.186 -0.3099  0.1779  0.3269
32715ION     NA49562  11.505  12.612  10.489 -0.1627 -0.4105 -0.3826
32716ION     NA49563  11.588  16.396  12.171  0.0693  0.0481 -0.2984
32717ION     NA49564   9.056  11.969  10.431  0.1049  0.0758  0.1178
32718ION     NA49565  15.552  10.296   4.316  0.0825  0.0556  0.0989
32719ION     NA49566   1.192   4.580   2.437  0.1177  0.1740 -0.1196
32720ION     NA49567  16.232   5.845  10.439  0.3660  0.2880  0.2492
32721ION     NA49568  17.906   7.134  10.733  0.0572  0.2705  0.2830
32722ION     NA49569  14.668   3.383   6.196  0.3153 -0.2744 -0.0509
32723ION     NA49570  16.343  15.164  11.068 -0.2462  0.1436 -0.1935
32724ION     NA49571  15.336   3.309   2.801  0.0938  0.1884 -0.1080
32725ION     NA49572  14.529  15.441  10.490  0.3027  0.2588  0.2891
32726ION     NA49573  11.112  16.020  10.597 -0.1705  0.1041 -0.1676
32727ION     NA49574  16.691   4.568  13.517 -0.2818 -0.0737  0.2455
32728ION     NA49575   5.491   4.486  10.738  0.2900  0.4220 -0.1582
32729ION     NA49576   7.158  15.227   6.161 -0.0509 -0.0998 -0.1388
32730ION     NA49577   5.338   8.417  10.837 -0.1623  0.0516  0.0743
32731ION     NA49578   1.278   3.063   5.627  0.3829  0.2458  0.2942
32732ION     NA49579   5.718   2.817  10.704 -0.1155 -0.4501 -0.2784
32733ION     NA49580   6.590   8.020   5.898  0.1450  0.1809 -0.0496
32734ION     NA49581   5.146   1.888  10.935  0.1263 -0.1104 -0.2379
32735ION     NA49582   7.634   8.661  10.457 -0.1689 -0.0186  0.1406
32736ION     NA49583  15.548   6.426  10.577 -0.1645 -0.0818  0.2539
32737ION     NA49584  18.026   8.505   4.268  0.1563 -0.0455 -0.2229
32738ION     NA49585  10.092  10.927  10.336  0.0388  0.4306  0.3898
32739ION     NA49586  15.888  13.449  10.878  0.0387 -0.0424 -0.6452
32740ION     NA49587  10.162   2.137  10.677 -0.0616 -0.3467  0.0638
32741ION     NA49588   7.310   2.839  16.020 -0.1509  0.0121 -0.2501
32742ION     NA49589   1.081  11.776   5.280 -0.0136 -0.3299 -0.0496
32743ION     NA49590   1.599  14.790  10.950  0.0267  0.2013  0.0775
32744ION     NA49591  16.964  11.134  14.517  0.0252 -0.0146  0.1933
32745ION     NA49592   7.446   2.037  10.565 -0.0610 -0.0288  0.1308
32746ION     NA49593  14.958  11.783  10.777  0.1669  0.2977 -0.1528
32747ION     NA49594   1.798  11.081   3.706 -0.1490  0.2600  0.2144
32748ION     NA49595  13.519  17.309   5.615  0.0292  0.2689 -0.0614
32749ION     NA49596  10.569  14.479   2.648 -0.0842 -0.0304 -0.0300
32750ION     NA49597   6.144   5.440   4.027 -0.2418  0.2182 -0.0013
32751ION     NA49598   0.359  14.966  11.124  0.1448 -0.0374 -0.2599
32752ION     NA49599   5.816  13.576  10.942  0.0238 -0.0529 -0.1301
32753ION     NA49600   4.148   2.504  10.930  0.0716 -0.1944 -0.2015
32754ION     NA49601  10.274   5.112  10.233 -0.0123  0.1747  0.0663
32755ION     NA49602  10.998   5.399  15.826  0.2014 -0.0327  0.3292
32756ION     NA49603   8.107  16.895  13.167 -0.3056  0.0900 -0.1514
32757ION     NA49604  10.067   8.546  10.424 -0.0682 -0.3987  0.2450
32758ION     NA49605  11.427   1.915   5.884  0.0579  0.0141 -0.0684
32759ION     NA49606   9.535  13.033   5.860  0.2079  0.0565 -0.1732
32760ION     NA49607   0.013  11.613   2.124 -0.1459 -0.2108  0.0635
32761ION     NA49608   5.535  17.704  14.168 -0.4044  0.0764 -0.2452
32762ION     NA49609   3.647   1.124  10.931 -0.0872 -0.2079 -0.2776
32763ION     NA49610  11.443   2.794   5.334 -0.0673 -0.0992  0.0878
32764ION     NA49611  15.627  12.656  10.863  0.0042 -0.0787  0.3521
32765ION     NA49612  12.683  15.277  10.415  0.0089  0.4146  0.0376
32766ION     NA49613  12.475   8.855   5.474 -0.2350  0.1029 -0.2557
32767ION     NA49614   4.321   8.336  11.715 -0.1577 -0.0658  0.1808
32768ION     NA49615  15.245   5.616  10.316  0.1992  0.1979 -0.1170
32769ION     NA49616  16.507  17.682   5.982  0.0429 -0.2624  0.0201
32770ION     NA49617   2.097  11.710   6.488 -0.1042  0.1044  0.2235
32771ION     NA49618   6.641  10.240  12.242  0.0135  0.1218  0.2238
32772ION     NA49619   7.055  14.514   5.604 -0.1152 -0.3936  0.1458
32773ION     NA49620  10.911   5.541  11.686 -0.0368 -0.2916 -0.2792
32774ION     NA49621  17.699  17.175  10.678 -0.0530  0.0628  0.0194
32775ION     NA49622   0.522   9.228  10.830  0.0925 -0.0930 -0.2814
32776ION     NA49623   1.386   7.555  10.739 -0.0504  0.2579  0.1199
32777ION     NA49624  18.161   5.636  13.458  0.3478  0.2410 -0.1159
32778ION     NA49625   2.118   7.204  10.788 -0.2113  0.0575  0.1576
32779ION     NA49626   2.081  16.250   3.913  0.2908  0.1910 -0.0390
32780ION     NA49627   9.650  12.812  10.627 -0.0415  0.1071 -0.1137
32781ION     NA49628   8.476  17.065   6.187 -0.0016  0.1457  0.0109
32782ION     NA49629  15.363   4.903  10.644 -0.1889  0.0455  0.1353
32783ION     NA49630   8.314  15.385  13.896  0.0965 -0.1854 -0.1749
32784ION     NA49631   5.857  17.438  11.155  0.0103 -0.1954 -0.0435
32785ION     NA49632  10.083   6.580  10.113  0.1249 -0.0764 -0.1983
32786ION     NA49633  17.825   3.709  10.184 -0.3542 -0.0202  0.0939
32787ION     NA49634  10.307  17.629  13.416  0.0645 -0.0220 -0.1271
32788ION     NA49635   4.125   5.514  11.008 -0.0585 -0.3573 -0.2512
32789ION     NA49636  17.635  13.876  13.315 -0.0085  0.3414 -0.0155
32790ION     NA49637  12.784   7.471  13.206  0.3751 -0.0664  0.1460
32791ION     NA49638   8.607  12.620  10.651  0.1513 -0.1259  0.2072
32792ION     NA49639   6.087   0.014  10.927 -0.1029  0.3179 -0.1220
32793ION     NA49640  12.933  17.225  10.432 -0.2113 -0.0060  0.1507
32794ION     NA49641   0.659   1.674  10.173  0.1818 -0.0393  0.2241
32795ION     NA49642  14.658   8.703  12.913 -0.0581 -0.1140  0.4105
32796ION     NA49643   7.818   3.019   2.346 -0.3339  0.1028 -0.3329
32797ION     NA49644  10.101   0.245  10.846 -0.0998 -0.1045 -0.0635
32798ION     NA49645   7.642   9.479  10.443 -0.2261  0.0699  0.1479
32799ION     NA49646   1.249   2.970   0.838 -0.2030  0.2310 -0.0688
32800ION     NA49647   0.065  13.017   3.672 -0.0709  0.0845  0.0181
32801ION     NA49648  14.415   2.116  10.617  0.0916  0.0632  0.0391
32802ION     NA49649  15.762   6.193   1.688 -0.1335 -0.1582 -0.1353
32803ION     NA49650  15.405  18.086  10.575  0.0395 -0.3080  0.0145
32804ION     NA49651   2.891   8.257  10.989 -0.0416 -0.0024 -0.3306
32805ION     NA49652  13.817  17.340  10.604 -0.1796  0.0464  0.0829
32806ION     NA49653   4.542   9.833  14.272  0.0094  0.1400 -0.0242
32807ION     NA49654   3.054  16.296  10.892  0.1591 -0.3633  0.1634
32808ION     NA49655   4.231   4.498  11.043  0.0158 -0.4820  0.3180
32809ION     NA49656   8.578   4.860   5.866 -0.0149  0.1378  0.2815
32810ION     NA49657   8.404   2.413  10.766  0.0921  0.0312  0.0145
32811ION     NA49658   3.479  11.249  14.071 -0.1007 -0.1343  0.1564
32812ION     NA49659   7.763  15.335  10.632 -0.1270 -0.0651 -0.0685
32813ION     NA49660  10.633   0.885   3.652  0.0749  0.0576  0.0308
32814ION     NA49661  14.909  17.337   2.464 -0.0344  0.0226  0.0481
32815ION     NA49662  16.961  10.132  10.698 -0.0919  0.0102 -0.1037
32816ION     NA49663   9.133   6.784   3.197  0.1984  0.0572 -0.3516
32817ION     NA49664  10.144   5.704  10.312 -0.0720 -0.5230  0.0403
32818ION     NA49665   7.800  10.519  10.809  0.0101 -0.2380  0.2615
32819ION     NA49666   9.169   2.382   5.709  0.3417 -0.1505  0.0946
32820ION     NA49667  11.258   8.341  15.356 -0.1499  0.0919  0.0848
32821ION     NA49668   1.685   9.559   6.183 -0.2046  0.2134 -0.0388
32822ION     NA49669   9.379   9.799   5.551 -0.2172  0.2040  0.2194
32823ION     NA49670  15.644   7.276  10.575 -0.0328 -0.0044 -0.2555
32824ION     NA49671   6.504  12.536  11.344 -0.1522  0.1194 -0.1134
32825ION     NA49672  17.404   2.921  10.337 -0.2014 -0.1403  0.0259
32826ION     NA49673  10.119  15.431  10.623  0.1074 -0.1916  0.0068
32827ION     NA49674  10.767  15.745   5.754  0.1436  0.1891 -0.0332
32828ION     NA49675   3.010   3.142  10.574  0.0068  0.0645 -0.0482
32829ION     NA49676  14.369   5.393  10.367 -0.2847  0.3776  0.2160
32830ION     NA49677   9.155   3.954  10.185  0.2407 -0.1006 -0.1739
32831ION     NA49678   5.775   5.321   5.560 -0.0813 -0.0055  0.2446
32832ION     NA49679   9.773  17.506  10.746  0.2733  0.3392  0.2651
32833ION     NA49680  15.058  13.626   5.691  0.1604  0.0002 -0.0268
32834ION     NA49681   2.171  14.687   6.127 -0.2884 -0.2924  0.0650
32835ION     NA49682   4.016   1.995  13.566 -0.0548 -0.0855 -0.0369
32836ION     NA49683   3.235   5.357  10.695 -0.1360 -0.0320  0.1730
32837ION     NA49684   9.945  11.825  10.612 -0.0615  0.0643  0.0905
32838ION     NA49685   3.146   3.082   5.061  0.3294  0.1007  0.1987
32839ION     NA49686   7.863   8.491  13.634  0.4869 -0.2094 -0.1753
32840ION     NA49687  14.520  10.300  10.674  0.0844  0.1111 -0.1599
32841ION     NA49688   3.384   5.645  16.386  0.0330 -0.0467 -0.0142
32842ION     NA49689   0.986  17.010  12.075 -0.3478  0.3121 -0.0672
32843ION     NA49690  16.596  14.288  11.037  0.0762 -0.0331 -0.1458
32844ION     NA49691   3.681   1.932  11.036 -0.3279  0.0168 -0.0740
32845ION     NA49692   4.258  12.172  14.618 -0.0529  0.4136 -0.0543
32846ION     NA49693   6.229   5.455   2.754  0.3058 -0.2435 -0.0318
32847ION     NA49694  10.296  16.732  10.470 -0.0313  0.2713  0.2486
32848ION     NA49695  11.072  11.112  10.603 -0.2683  0.1923  0.0909
32849ION     NA49696   1.890   3.048   5.512 -0.0604  0.2909 -0.2190
32850ION     NA49697   3.387  13.175  11.178 -0.1132  0.1283  0.1061
32851ION     NA49698   8.234  14.734   5.531  0.0783 -0.2105 -0.1089
32852ION     NA49699  17.032  11.704  10.777 -0.2750  0.2247  0.0835
32853ION     NA49700   4.564  10.682   0.660 -0.2095 -0.3837  0.3506
32854ION     NA49701  10.593   1.453   6.166  0.2544 -0.0561  0.0280
32855ION     NA49702  10.830   4.429  10.007  0.0677  0.3751 -0.0680
32856ION     NA49703   0.915   6.561   5.896 -0.1515  0.2428  0.2017
32857ION     NA49704   2.636   4.770  12.192  0.2600  0.1755  0.3635
32858ION     NA49705   1.365   5.192   5.816 -0.1346  0.1443  0.2598
32859ION     NA49706  16.603  12.882  10.917  0.0828  0.0322 -0.3029
32860ION     NA49707   5.068  12.422   5.614 -0.1119 -0.0072  0.0557
32861ION     NA49708   2.710   2.026   5.940 -0.2012 -0.2219  0.1039
32862ION     NA49709   7.123  16.848  10.636  0.1985 -0.2314  0.1371
32863ION     NA49710   2.402  14.605  11.017 -0.1007  0.2591 -0.0202
32864ION     NA49711  15.211   1.502  10.576  0.2923  0.3866 -0.0900
32865ION     NA49712  13.815   5.693   5.745  0.3024 -0.1082  0.1081
32866ION     NA49713  16.801  16.958  10.776  0.0983  0.1144  0.1575
32867ION     NA49714   2.560   0.140  10.905 -0.0457  0.2982  0.2886
32868ION     NA49715   1.568  10.155  10.889  0.1547  0.0137 -0.1511
32869ION     NA49716   2.327  14.027   0.478  0.0362  0.1563  0.0785
32870ION     NA49717   7.545   8.235   5.552  0.0185  0.0513  0.2858
32871ION     NA49718   9.327  14.725   5.221 -0.4816  0.2477  0.1388
32872ION     NA49719   3.842  15.314  10.916 -0.1608  0.2268  0.2919
32873ION     NA49720   7.367  13.170  10.603  0.1530 -0.0080  0.2551
32874ION     NA49721  12.570  13.345  10.613 -0.0679 -0.2151  0.0228
32875ION     NA49722   4.458   5.898  10.679 -0.0155  0.0750 -0.0169
32876ION     NA49723  16.083  11.752  10.666  0.2219 -0.3237 -0.0092
32877ION     NA49724  11.058  15.500  10.683  0.0854 -0.2288  0.0183
32878ION     NA49725   1.994   9.773  10.953 -0.0886 -0.0188 -0.0208
32879ION     NA49726   2.057   2.137  10.464 -0.0467  0.2950  0.2788
32880ION     NA49727   8.746  11.554   5.267 -0.1079 -0.1318  0.1170
32881ION     NA49728  14.012   6.558   5.828 -0.2495  0.2767 -0.3299
32882ION     NA49729   6.078   8.591  10.514 -0.1807  0.1749  0.1240
32883ION     NA49730   7.770   8.063   3.141  0.1673 -0.5834  0.1995
32884ION     NA49731  13.418   1.234  10.774  0.1596  0.4201 -0.2088
32885ION     NA49732  14.657   6.206  10.535 -0.1904  0.1028 -0.1402
32886ION     NA49733   0.532  13.230  11.071  0.0750  0.1687  0.1515
32887ION     NA49734   0.450  10.207   2.144 -0.0674  0.0817 -0.2147
32888ION     NA49735  12.224   7.446   5.388  0.2822  0.1446  0.0811
32889ION     NA49736  14.082  11.301  10.844 -0.1864 -0.0613  0.1271
32890ION     NA49737   5.614  14.251   6.039 -0.0768 -0.1130  0.3176
32891ION     NA49738  14.327   2.611  10.561 -0.1506 -0.0409  0.3405
32892ION     NA49739  13.404   1.028  16.158 -0.1528 -0.0305  0.1120
32893ION     NA49740   7.692   3.942  10.629 -0.2531  0.3096 -0.4443
32894ION     NA49741   8.345  13.495  10.503  0.0754 -0.1346 -0.2224
32895ION     NA49742  16.248   6.686  10.459  0.0455  0.2760 -0.0957
32896ION     NA49743  11.672   5.307  10.175 -0.2393  0.1834  0.2728
32897ION     NA49744   7.310  17.373   3.794 -0.0672 -0.2218 -0.0678
32898ION     NA49745  12.436   9.288  10.505 -0.1023  0.1838 -0.0522
32899ION     NA49746  12.602   1.511  10.755  0.3700  0.0582 -0.0025
32900ION     NA49747   2.431   0.168  13.817  0.0532  0.1618 -0.1396
32901ION     NA49748   1.991   5.182  10.511 -0.2637 -0.1386 -0.3714
32902ION     NA49749  11.506  13.232  15.403  0.1304 -0.0012  0.0811
32903ION     NA49750  11.085   5.304  10.323 -0.3725 -0.2262  0.0788
32904ION     NA49751   4.734  11.835  11.141  0.4185  0.1572 -0.0130
32905ION     NA49752   5.430   1.451   6.178  0.0983 -0.1034 -0.3038
32906ION     NA49753  13.771   3.830  10.364  0.1971 -0.0433  0.0168
32907ION     NA49754  10.414   4.540  11.513  0.4154 -0.0354  0.4093
32908ION     NA49755   7.058   1.296   2.263  0.0609 -0.0110  0.2779
32909ION     NA49756  17.182   2.414   1.710 -0.0504 -0.0010  0.1874
32910ION     NA49757   7.886  16.945   4.794  0.1050 -0.3117  0.2984
32911ION     NA49758   7.117   3.117   5.670  0.2224 -0.1268 -0.0795
32912ION     NA49759  14.229  12.444   5.568 -0.1260 -0.0655 -0.2680
32913ION     NA49760   5.973   3.700  10.813  0.1286  0.3695 -0.0129
32914ION     NA49761   5.354   5.911  14.319  0.0336  0.0354  0.0930
32915ION     NA49762  14.545   7.975  10.681  0.0697 -0.1064  0.1996
32916ION     NA49763   5.269   8.807   5.273  0.0710  0.0611  0.1812
32917ION     NA49764  11.243   9.578  12.013  0.0976 -0.0491  0.1239
32918ION     NA49765  17.727   8.167  10.691 -0.0327  0.1377 -0.1710
32919ION     NA49766   4.281   5.033   5.656 -0.1183  0.0001 -0.3724
32920ION     NA49767   2.289  12.900  10.897  0.2722  0.1014  0.2173
32921ION     NA49768  11.898  10.497  14.881  0.1780 -0.0306  0.1689
32922ION     NA49769  12.853   5.717  10.484 -0.1090 -0.2353 -0.1748
32923ION     NA49770  15.734  14.561  10.888 -0.1235  0.0284  0.5129
32924ION     NA49771   0.802  11.279  10.693  0.1295  0.0503 -0.2926
32925ION     NA49772  13.740   6.953  12.075 -0.2412 -0.1424  0.4836
32926ION     NA49773  10.586   3.672  10.417 -0.0048  0.5198 -0.0719
32927ION     NA49774  11.099   7.227  10.216  0.0316 -0.1564 -0.0039
32928ION     NA49775   7.119  13.248  14.267  0.0597 -0.0208  0.2677
32929ION     NA49776   3.803   4.354  12.164 -0.4066 -0.1725  0.1578
32930ION     NA49777   9.188  16.735   6.086 -0.3020  0.1048 -0.4977
32931ION     NA49778  16.285   8.172  10.593  0.3334  0.2878 -0.2624
32932ION     NA49779   9.753   9.294  15.605 -0.0468  0.1612 -0.1147
32933ION     NA49780  16.411  18.003  10.496  0.5532  0.0501  0.0976
32934ION     NA49781  13.233   1.949  12.311  0.0242 -0.0653 -0.1223
32935ION     NA49782  14.252  11.832  11.074  0.1815  0.0516 -0.1287
32936ION     NA49783   1.633  11.302   5.732  0.2270 -0.0978 -0.2818
32937ION     NA49784   4.966  11.306  10.905  0.0244 -0.1275 -0.2799
32938ION     NA49785  12.772  15.938  11.694  0.1094 -0.3599  0.0532
32939ION     NA49786   3.959  13.131   6.356 -0.0305 -0.0025 -0.3097
32940ION     NA49787  12.565  12.362  10.503  0.3551 -0.1507  0.0821
32941ION     NA49788   3.761   8.354   5.975 -0.2317 -0.1689 -0.0987
32942ION     NA49789  11.596  10.278  10.762 -0.0502 -0.0816  0.1437
32943ION     NA49790  16.995   9.648  10.610  0.0239  0.0332 -0.1674
32944ION     NA49791  12.612  17.609  12.843 -0.0806 -0.1034  0.0210
32945ION     NA49792  12.578   6.508   5.354  0.2104 -0.0508 -0.1751
32946ION     NA49793   8.618  10.704  10.585 -0.1517 -0.0452 -0.2063
32947ION     NA49794   7.196   5.613  10.872  0.0310 -0.1095  0.1908
32948ION     NA49795   2.948   1.670  10.648 -0.1811 -0.0803  0.0898
32949ION     NA49796   7.912  12.182   5.904 -0.0029 -0.0773  0.3063
32950ION     NA49797   0.849   5.915   5.649  0.1192  0.2854 -0.3279
32951ION     NA49798   2.947  13.703  10.879 -0.1450  0.0664  0.3171
32952ION     NA49799  17.748  14.914  13.894 -0.0768 -0.0283  0.1188
32953ION     NA49800  16.973   8.852  10.590  0.2992  0.0376  0.0972
32954ION     NA49801   9.982   9.082   2.012 -0.5336 -0.1915 -0.0384
32955ION     NA49802  17.185  17.773  10.858 -0.1917 -0.2281 -0.0797
32956ION     NA49803  15.989   2.714  15.608  0.0825 -0.1990 -0.3013
32957ION     NA49804  14.271  17.640  13.645 -0.0208 -0.4575 -0.0438
32958ION     NA49805   1.925  11.922  11.168 -0.1262 -0.2253 -0.0510
32959ION     NA49806  15.917   1.759   1.597  0.0331  0.0053  0.0019
32960ION     NA49807  15.899  17.007  10.616  0.1398  0.0849  0.0929
32961ION     NA49808   2.808   3.572  10.422  0.2907 -0.0703 -0.2490
32962ION     NA49809   0.353  10.520  13.908  0.0231 -0.2477  0.0552
32963ION     NA49810   2.532   4.514  10.486  0.1154 -0.1562  0.2627
32964ION     NA49811   1.461  16.810   6.374  0.1884  0.4298  0.1436
32965ION     NA49812  14.673   0.744  12.031 -0.1124  0.0156  0.1738
32966ION     NA49813  12.775  16.230  10.440  0.1263  0.0007 -0.3609
32967ION     NA49814   9.842  14.374  10.438 -0.1789 -0.1201  0.0235
32968ION     NA49815   2.768   5.498  10.872 -0.1119  0.2490  0.1789
32969ION     NA49816   5.585  16.426   6.272 -0.2155  0.4496 -0.0042
32970ION     NA49817  11.898   1.658   0.688  0.1272  0.1131  0.1819
32971ION     NA49818  12.758  16.993   5.660  0.1526 -0.0830 -0.0416
32972ION     NA49819   4.644  14.181  11.508  0.1477 -0.0556 -0.0497
32973ION     NA49820  15.986   0.113  12.086  0.2377  0.2304 -0.3759
32974ION     NA49821   5.219  17.323   6.201 -0.3008 -0.2946 -0.1211
32975ION     NA49822   9.517  11.589   5.969 -0.0116  0.4378  0.0312
32976ION     NA49823   2.854   0.873  10.560  0.0706  0.3348 -0.0808
32977ION     NA49824   4.661   1.069  10.910 -0.1076 -0.1299  0.3046
32978ION     NA49825  13.248   7.655  10.514  0.1541  0.1113 -0.1360
32979ION     NA49826  14.085   4.630   5.682  0.0933  0.2623  0.0576
32980ION     NA49827   7.647   5.725   5.965  0.1090  0.0512 -0.1041
32981ION     NA49828   4.604   1.050  13.587  0.0180 -0.0199  0.1763
32982ION     NA49829  11.064  15.942   4.933  0.2226 -0.2595  0.5253
32983ION     NA49830  17.548   7.383   0.207 -0.1051  0.1002 -0.1890
32984ION     NA49831   8.373   9.888  10.570 -0.2869 -0.0547  0.1959
32985ION     NA49832   4.835   3.056  10.882 -0.0190 -0.2271  0.2088
32986ION     NA49833  11.915  15.252  14.886 -0.0479 -0.0859  0.0089
32987ION     NA49834  16.093   9.919   0.324 -0.1832  0.0037  0.0272
32988ION     NA49835  12.928   6.950  10.453  0.2159 -0.1308  0.0388
32989ION     NA49836   6.831   8.176  10.443  0.1053  0.2714 -0.1500
32990ION     NA49837   7.917   1.203   1.866  0.1073  0.1927 -0.1394
32991ION     NA49838   6.703  17.564  10.981  0.0037 -0.0572  0.0098
32992ION     NA49839   8.581  13.982   1.486 -0.0835  0.4685  0.0990
32993ION     NA49840  17.746   4.680  10.467 -0.0994  0.0297  0.0239
32994ION     NA49841   8.308   0.863  10.700  0.1390  0.0457 -0.0048
32995ION     NA49842   1.073   2.885  10.319  0.1710  0.2308  0.0494
32996ION     NA49843   4.975  14.363   5.101  0.0540  0.0142 -0.1413
32997ION     NA49844  14.246  14.553  10.481  0.0450 -0.2154  0.0581
32998ION     NA49845   4.522  16.435  10.720 -0.1606  0.4991 -0.0999
32999ION     NA49846   1.080  11.645  10.947 -0.1209 -0.1250  0.1245
33000ION     NA49847   3.375   4.495  10.704 -0.1546 -0.4050 -0.1654
33001ION     NA49848   2.057   0.044   2.229  0.1247  0.2489 -0.0281
33002ION     NA49849  15.486   1.061   5.927  0.0566  0.2650  0.1673
33003ION     NA49850  17.248  15.864  14.430 -0.1651  0.1220 -0.0542
33004ION     NA49851  14.890  12.821   5.919 -0.1083 -0.0144 -0.1001
33005ION     NA49852  16.800  15.904  11.028  0.2740 -0.1742  0.0422
33006ION     NA49853   5.585  10.365  10.868 -0.2796 -0.0123  0.1057
33007ION     NA49854   2.342  11.045  11.291  0.1789  0.0332 -0.1439
33008ION     NA49855   4.952   3.697  10.805  0.1878  0.0547  0.0598
33009ION     NA49856   4.641   6.542  10.572 -0.0802  0.0331 -0.0461
33010ION     NA49857   7.066   8.584   1.987 -0.0053 -0.2113  0.1763
33011ION     NA49858   7.722   9.511   4.279 -0.0100 -0.1090 -0.0006
33012ION     NA49859   8.527   0.399   3.979 -0.0786 -0.0459  0.1197
33013ION     NA49860  12.206  10.651   5.374 -0.0980  0.0928  0.0130
33014ION     NA49861   0.532  10.663  10.714  0.0329 -0.4487 -0.0773
33015ION     NA49862  13.779   5.802  10.554  0.2529 -0.3800  0.0352
33016ION     NA49863  11.046   8.878  10.503 -0.2057  0.1144 -0.0302
33017ION     NA49864   8.572   6.998   1.723 -0.1475 -0.2393  0.0206
33018ION     NA49865  16.292  15.962  10.846 -0.0291  0.0394  0.1496
33019ION     NA49866  15.482   2.420   6.067 -0.0835  0.0694  0.4676
33020ION     NA49867   2.947  15.303  11.090  0.2606 -0.2690 -0.0401
33021ION     NA49868   5.372   7.802  10.679 -0.0688 -0.1384  0.0713
33022ION     NA49869  12.910   3.693   5.916  0.1762  0.0691  0.0528
33023ION     NA49870  17.039   7.097  10.872  0.2302 -0.2197 -0.0256
33024ION     NA49871   3.702   8.229  10.510  0.1763 -0.0386 -0.0206
33025ION     NA49872   0.878   5.468  11.832 -0.4364  0.1679  0.0288
33026ION     NA49873  13.760   8.072   0.262  0.1993  0.1206  0.0299
33027ION     NA49874   9.296  14.974  10.991  0.0808  0.0131  0.0989
33028ION     NA49875   0.312   5.023  10.383 -0.1768 -0.2305 -0.0419
33029ION     NA49876  12.350  12.124  15.086  0.0121  0.0238  0.1549
33030ION     NA49877  13.336   9.404  10.730  0.1153 -0.1828  0.3167
  18.17987  18.17987  16.62579
