INSANE! Membrane UpperLeaflet>loPI=1.0 LowerLeaflet>PSPI:POPI:POPS:YOPS:POPE:YOPE:POPC:YOPC:ERGO=6.0:14.0:21.0:9.0:9.0:21.0:12.0:48.0:60.0
49877
    1loPI    C1    1  17.636  13.526  10.842 -0.0144 -0.1077 -0.1784
    1loPI    C2    2  17.335  13.668  10.620 -0.1027 -0.0542 -0.0263
    1loPI    C3    3  17.293  13.635  11.016  0.1616  0.1395  0.0204
    1loPI   PO4    4  17.832  13.819  10.717 -0.2096  0.0472 -0.4262
    1loPI   GL1    5  17.875  13.944  10.347 -0.3886  0.1148  0.0759
    1loPI   GL2    6  18.166  13.778  10.275  0.1891 -0.0069  0.1536
    1loPI   C1A    7  17.708  14.072   9.889 -0.3129  0.3836  0.1624
    1loPI   C2A    8  17.802  14.086   9.474  0.1925 -0.1032  0.5652
    1loPI   C3A    9  17.719  13.965   9.040  0.0479  0.0095  0.1895
    1loPI   C4A   10  17.556  13.920   8.614  0.0475 -0.0065 -0.0710
    1loPI   C5A   11  17.345  13.786   8.206 -0.0640  0.0461 -0.1038
    1loPI   C6A   12  17.403  13.778   7.861  0.0967 -0.2382 -0.2005
    1loPI   C1B   13  18.143  13.791   9.806 -0.0000 -0.1565 -0.3758
    1loPI   C2B   14  18.180  13.847   9.305 -0.2636 -0.1491  0.1029
    1loPI   C3B   15  18.233  13.787   8.852  0.0276 -0.2228 -0.1449
    1loPI   C4B   16  18.196  13.700   8.390  0.1355 -0.2030  0.1044
    2loPI    C1   17  13.193  11.283  10.602  0.2778 -0.1590 -0.0210
    2loPI    C2   18  13.431  11.008  10.769  0.0103 -0.3187  0.1044
    2loPI    C3   19  13.139  11.176  10.983  0.0483 -0.0769 -0.0293
    2loPI   PO4   20  13.275  11.375  10.367 -0.4314 -0.0285 -0.3234
    2loPI   GL1   21  13.400  11.171  10.052 -0.0335  0.2246  0.1377
    2loPI   GL2   22  13.153  10.965  10.125 -0.0146 -0.0951  0.0761
    2loPI   C1A   23  13.459  11.245   9.615 -0.1254  0.1060  0.6153
    2loPI   C2A   24  13.471  11.290   9.189  0.1747 -0.0585  0.0131
    2loPI   C3A   25  13.487  11.245   8.748  0.0947  0.2883  0.0814
    2loPI   C4A   26  13.488  11.327   8.278 -0.0094  0.2112 -0.0443
    2loPI   C5A   27  13.370  11.258   7.867  0.0611 -0.2496 -0.3684
    2loPI   C6A   28  13.125  10.849   7.746 -0.0189  0.2102 -0.0864
    2loPI   C1B   29  12.987  10.945   9.659 -0.1057  0.1116  0.0140
    2loPI   C2B   30  13.063  10.916   9.164  0.0474  0.1189  0.1297
    2loPI   C3B   31  13.112  10.942   8.725  0.0009  0.1187  0.0002
    2loPI   C4B   32  13.084  10.958   8.270 -0.1731 -0.0504  0.0779
    3loPI    C1   33   9.780  12.268  11.168  0.0140 -0.1077 -0.1254
    3loPI    C2   34   9.830  12.021  11.479  0.1745 -0.0032 -0.0668
    3loPI    C3   35   9.659  12.378  11.534  0.1747  0.0027 -0.1044
    3loPI   PO4   36   9.755  12.240  10.884  0.2392  0.2614  0.1711
    3loPI   GL1   37   9.606  12.350  10.544  0.0223 -0.1086 -0.1713
    3loPI   GL2   38   9.900  12.452  10.394 -0.2550 -0.1011  0.1012
    3loPI   C1A   39   9.554  12.370  10.096  0.0477  0.4281  0.2400
    3loPI   C2A   40   9.699  12.399   9.723 -0.0295 -0.1846  0.2101
    3loPI   C3A   41   9.682  12.283   9.300 -0.0930  0.1251  0.1087
    3loPI   C4A   42   9.704  12.250   8.878 -0.0112  0.1589  0.0722
    3loPI   C5A   43   9.634  12.444   8.447 -0.1505 -0.0151  0.2486
    3loPI   C6A   44   9.620  12.829   8.162 -0.3737  0.0998 -0.1284
    3loPI   C1B   45  10.014  12.606   9.984  0.2519 -0.3169  0.2380
    3loPI   C2B   46  10.043  12.646   9.506  0.0396 -0.0573  0.0879
    3loPI   C3B   47  10.005  12.696   9.079 -0.3180  0.0031 -0.3035
    3loPI   C4B   48  10.100  12.549   8.736  0.1475  0.0023 -0.1792
    4loPI    C1   49   2.693   8.258  10.914 -0.0947 -0.1102 -0.0198
    4loPI    C2   50   2.839   8.053  11.225 -0.0764  0.2380  0.2061
    4loPI    C3   51   2.447   8.043  11.146 -0.0687  0.0775  0.1843
    4loPI   PO4   52   2.881   8.260  10.703  0.0009 -0.2275  0.0205
    4loPI   GL1   53   3.067   8.199  10.356  0.1597 -0.2573 -0.1952
    4loPI   GL2   54   2.837   7.855  10.280  0.1373  0.0089  0.1303
    4loPI   C1A   55   2.902   8.262   9.970 -0.2828 -0.1634 -0.4258
    4loPI   C2A   56   2.854   8.249   9.569  0.0314  0.1747 -0.1822
    4loPI   C3A   57   2.938   8.298   9.152 -0.1611 -0.2009 -0.1737
    4loPI   C4A   58   2.997   8.284   8.655 -0.0973 -0.3305 -0.2997
    4loPI   C5A   59   3.236   8.135   8.308  0.0959  0.0307  0.0011
    4loPI   C6A   60   3.291   7.836   8.061  0.3426 -0.0645  0.0570
    4loPI   C1B   61   2.694   7.799   9.724 -0.0236  0.2144 -0.0330
    4loPI   C2B   62   2.674   7.752   9.245  0.2458 -0.0759  0.0770
    4loPI   C3B   63   2.833   7.801   8.855  0.1084  0.3081 -0.1702
    4loPI   C4B   64   2.938   7.707   8.515  0.0733 -0.1405  0.2932
    5loPI    C1   65   6.393   7.724  10.913 -0.1394 -0.0598  0.0549
    5loPI    C2   66   6.267   7.378  10.758  0.0361 -0.1509  0.1116
    5loPI    C3   67   6.438   7.384  11.119 -0.0589  0.0108  0.1552
    5loPI   PO4   68   6.193   7.910  10.789 -0.4075 -0.0721  0.0562
    5loPI   GL1   69   6.187   8.088  10.351 -0.0231 -0.2197  0.0192
    5loPI   GL2   70   5.828   8.140  10.234  0.0547  0.1316 -0.0069
    5loPI   C1A   71   6.506   8.284  10.198  0.0017 -0.1431 -0.1194
    5loPI   C2A   72   6.556   8.341   9.712 -0.0722  0.5290  0.1100
    5loPI   C3A   73   6.697   8.368   9.328 -0.1873 -0.0050  0.0792
    5loPI   C4A   74   6.713   8.380   8.905  0.0184 -0.1938  0.1344
    5loPI   C5A   75   6.768   8.540   8.476  0.2884 -0.1136  0.0208
    5loPI   C6A   76   6.602   8.802   8.357  0.2321  0.2499  0.1497
    5loPI   C1B   77   5.753   8.137   9.736 -0.0864  0.1464 -0.3130
    5loPI   C2B   78   5.785   8.246   9.247  0.0815  0.3977 -0.0315
    5loPI   C3B   79   5.690   8.300   8.787 -0.2911  0.1219  0.0643
    5loPI   C4B   80   5.810   8.338   8.413  0.1699 -0.3831 -0.0350
    6loPI    C1   81   2.353   3.064  10.633  0.1219  0.1242  0.0177
    6loPI    C2   82   2.367   3.461  10.682  0.0149  0.1056  0.2053
    6loPI    C3   83   2.409   3.218  10.998 -0.0662 -0.0291  0.1136
    6loPI   PO4   84   2.493   2.966  10.422 -0.0252  0.1800 -0.2392
    6loPI   GL1   85   2.645   3.066  10.025  0.3212  0.0867  0.0831
    6loPI   GL2   86   2.785   2.883  10.044  0.1388 -0.0686 -0.1324
    6loPI   C1A   87   2.951   3.301   9.823 -0.2360 -0.0533  0.2906
    6loPI   C2A   88   3.165   3.334   9.472 -0.0052  0.0061  0.2078
    6loPI   C3A   89   3.241   3.379   9.027 -0.2522  0.2220  0.2469
    6loPI   C4A   90   3.280   3.365   8.632 -0.2052 -0.1404 -0.2811
    6loPI   C5A   91   3.434   3.280   8.224 -0.1870  0.2115 -0.0922
    6loPI   C6A   92   3.513   2.890   7.941  0.0742 -0.5933 -0.1545
    6loPI   C1B   93   2.926   2.827   9.685 -0.0220 -0.3746 -0.2457
    6loPI   C2B   94   3.051   2.934   9.245 -0.1343  0.0991 -0.0706
    6loPI   C3B   95   3.124   2.868   8.834 -0.3665 -0.4021 -0.1296
    6loPI   C4B   96   3.195   2.887   8.367  0.1778 -0.1268 -0.4494
    7loPI    C1   97   3.808  15.049  10.436 -0.1808  0.3574  0.2113
    7loPI    C2   98   3.553  15.132  10.732 -0.2783  0.1438  0.1892
    7loPI    C3   99   3.860  14.884  10.797 -0.2629  0.1468  0.1285
    7loPI   PO4  100   3.756  15.136  10.295 -0.1687 -0.3496 -0.0516
    7loPI   GL1  101   3.632  15.100   9.869  0.1184 -0.0455  0.0285
    7loPI   GL2  102   3.349  15.316   9.890 -0.3287  0.3850 -0.1032
    7loPI   C1A  103   3.788  14.684   9.654  0.0738 -0.4276  0.0774
    7loPI   C2A  104   3.850  14.540   9.206 -0.0174  0.0933 -0.0061
    7loPI   C3A  105   3.975  14.216   8.952  0.1379 -0.0987  0.1199
    7loPI   C4A  106   4.233  14.145   8.647 -0.2775  0.4563 -0.3317
    7loPI   C5A  107   4.568  14.032   8.367 -0.0096  0.0729  0.2860
    7loPI   C6A  108   4.980  14.211   8.322 -0.2424 -0.1931 -0.1580
    7loPI   C1B  109   3.298  15.374   9.471 -0.2938  0.0985  0.3382
    7loPI   C2B  110   3.229  15.493   9.058 -0.0599 -0.0991 -0.1099
    7loPI   C3B  111   3.246  15.479   8.636  0.2725  0.2256 -0.1027
    7loPI   C4B  112   3.195  15.400   8.223  0.0282  0.2607 -0.2308
    8loPI    C1  113  11.879  10.565  10.827 -0.1441  0.0640  0.0389
    8loPI    C2  114  11.507  10.586  10.973 -0.0360  0.1230  0.3126
    8loPI    C3  115  11.817  10.703  11.197  0.1406  0.1643  0.0520
    8loPI   PO4  116  11.829  10.664  10.489 -0.0180  0.2283  0.0284
    8loPI   GL1  117  11.709  10.461  10.075 -0.2606 -0.0826 -0.3319
    8loPI   GL2  118  11.875  10.263  10.232 -0.0606 -0.1801  0.1659
    8loPI   C1A  119  11.640  10.490   9.670 -0.1562 -0.0862  0.1573
    8loPI   C2A  120  11.690  10.497   9.251  0.1995  0.3318  0.1511
    8loPI   C3A  121  11.781  10.547   8.806 -0.1066 -0.1187 -0.0936
    8loPI   C4A  122  11.904  10.559   8.321 -0.2595  0.1814 -0.2394
    8loPI   C5A  123  11.881  10.542   7.876  0.1357  0.3636 -0.1455
    8loPI   C6A  124  11.670  10.537   7.488 -0.0600  0.0265 -0.0922
    8loPI   C1B  125  12.163  10.343   9.766 -0.1326  0.1302  0.1985
    8loPI   C2B  126  12.177  10.352   9.328 -0.1789 -0.1714 -0.0129
    8loPI   C3B  127  12.255  10.365   8.842 -0.0821 -0.0303 -0.1383
    8loPI   C4B  128  12.319  10.355   8.429 -0.0981 -0.1319 -0.1230
    9loPI    C1  129  10.343  11.498  11.110  0.0543  0.1359  0.1517
    9loPI    C2  130  10.207  11.873  11.141 -0.1100  0.0581  0.4082
    9loPI    C3  131  10.305  11.668  11.471 -0.2878 -0.2203  0.2913
    9loPI   PO4  132  10.142  11.457  10.777 -0.1357 -0.1689 -0.0098
    9loPI   GL1  133  10.183  11.283  10.432 -0.1878 -0.0798 -0.0932
    9loPI   GL2  134   9.945  11.140  10.205  0.1251 -0.3476  0.2752
    9loPI   C1A  135  10.034  11.673  10.208 -0.1805  0.1895 -0.1072
    9loPI   C2A  136   9.999  12.042  10.048  0.2844  0.0108 -0.0581
    9loPI   C3A  137  10.129  12.150   9.533 -0.0943 -0.0687 -0.0813
    9loPI   C4A  138  10.113  12.037   9.176 -0.0740  0.2658  0.0826
    9loPI   C5A  139  10.112  12.048   8.771 -0.3254  0.0485 -0.0168
    9loPI   C6A  140  10.064  12.168   8.305 -0.0274  0.1217  0.0844
    9loPI   C1B  141  10.280  11.211   9.846  0.1165  0.1478 -0.2651
    9loPI   C2B  142  10.577  11.484   9.723  0.0702 -0.3116 -0.2133
    9loPI   C3B  143  10.764  11.470   9.336  0.0598 -0.0732  0.2080
    9loPI   C4B  144  10.739  11.434   8.863 -0.1998 -0.0781 -0.0400
   10loPI    C1  145  15.376  14.623  10.632  0.1161  0.2201 -0.0970
   10loPI    C2  146  14.999  14.704  10.738  0.0507 -0.0122 -0.1457
   10loPI    C3  147  15.303  14.835  10.963 -0.0612  0.1091 -0.0639
   10loPI   PO4  148  15.374  14.623  10.373 -0.0776  0.1063  0.0023
   10loPI   GL1  149  15.375  14.343  10.086  0.0793 -0.1325 -0.2011
   10loPI   GL2  150  15.443  14.070   9.997 -0.2682  0.2604 -0.3338
   10loPI   C1A  151  15.350  14.499   9.754  0.0020  0.2823 -0.1054
   10loPI   C2A  152  15.289  14.393   9.406 -0.1737  0.4276  0.1973
   10loPI   C3A  153  15.192  14.417   9.018 -0.3294 -0.0979  0.4286
   10loPI   C4A  154  15.221  14.493   8.553  0.2244 -0.1114  0.1080
   10loPI   C5A  155  15.246  14.568   8.135 -0.0101 -0.1677  0.0725
   10loPI   C6A  156  15.149  14.243   7.885 -0.1577  0.0273  0.0583
   10loPI   C1B  157  15.375  13.837   9.555  0.1029  0.0786 -0.1183
   10loPI   C2B  158  15.290  13.966   9.154 -0.1398 -0.0469  0.0492
   10loPI   C3B  159  15.326  13.973   8.677 -0.1116  0.0791  0.1279
   10loPI   C4B  160  15.624  14.099   8.360 -0.2075 -0.0415  0.0647
   11loPI    C1  161  17.013   0.732  10.584  0.0142  0.3006  0.1304
   11loPI    C2  162  17.352   0.547  10.484 -0.1775  0.0070  0.0102
   11loPI    C3  163  17.294   0.667  10.861  0.0915  0.1335  0.0141
   11loPI   PO4  164  16.904   0.680  10.282  0.1888 -0.0732  0.0882
   11loPI   GL1  165  17.023   0.454   9.943 -0.1892  0.0337  0.0263
   11loPI   GL2  166  16.881   0.704   9.783  0.1899  0.0454  0.0085
   11loPI   C1A  167  17.171   0.451   9.501 -0.2006  0.0856  0.3827
   11loPI   C2A  168  17.179   0.443   9.042  0.2245  0.0409  0.1954
   11loPI   C3A  169  17.162   0.572   8.601  0.2801  0.1171 -0.0800
   11loPI   C4A  170  16.973   0.518   8.170 -0.0795 -0.1312  0.1706
   11loPI   C5A  171  16.846   0.153   7.959  0.1496 -0.1127 -0.0214
   11loPI   C6A  172  16.903  -0.242   7.868 -0.4085  0.3129 -0.0107
   11loPI   C1B  173  16.910   0.857   9.403  0.0205 -0.2217 -0.1355
   11loPI   C2B  174  16.784   0.790   8.952  0.0175 -0.2122  0.0927
   11loPI   C3B  175  16.873   0.959   8.493  0.0725  0.1813  0.0750
   11loPI   C4B  176  16.929   0.998   8.128  0.0535  0.0014  0.0378
   12loPI    C1  177   3.176   8.702  10.808 -0.0777 -0.1350 -0.2157
   12loPI    C2  178   3.157   8.451  11.119  0.0420 -0.0490 -0.1384
   12loPI    C3  179   2.874   8.729  11.069  0.0814  0.0087 -0.0437
   12loPI   PO4  180   3.286   8.563  10.624 -0.0059 -0.0410 -0.0704
   12loPI   GL1  181   3.549   8.240  10.314  0.0316 -0.0035 -0.0116
   12loPI   GL2  182   3.629   8.620  10.269  0.0020  0.4642  0.0965
   12loPI   C1A  183   3.415   8.286   9.886 -0.0453  0.1274  0.1155
   12loPI   C2A  184   3.325   8.376   9.478  0.1232 -0.0599 -0.1238
   12loPI   C3A  185   3.472   8.301   9.078  0.0517 -0.2228 -0.0801
   12loPI   C4A  186   3.590   8.293   8.665  0.0340 -0.0729 -0.1685
   12loPI   C5A  187   3.697   8.379   8.267 -0.0948  0.1115  0.4052
   12loPI   C6A  188   4.073   8.265   7.954 -0.0180 -0.3891 -0.1832
   12loPI   C1B  189   3.536   8.784   9.813  0.0169  0.1333  0.1538
   12loPI   C2B  190   3.604   8.772   9.357  0.1206 -0.4527 -0.0214
   12loPI   C3B  191   3.705   8.771   8.891  0.1982  0.0598  0.1640
   12loPI   C4B  192   3.839   8.803   8.505  0.0040  0.2405  0.3648
   13loPI    C1  193  13.019  11.799  10.611  0.0169 -0.0729 -0.0229
   13loPI    C2  194  13.417  11.828  10.581  0.0105  0.0290 -0.0148
   13loPI    C3  195  13.252  11.662  10.906  0.0401  0.1887  0.0828
   13loPI   PO4  196  12.959  11.762  10.418 -0.0483 -0.2802  0.3557
   13loPI   GL1  197  12.921  11.892  10.063 -0.1334 -0.0876  0.1668
   13loPI   GL2  198  13.241  11.758  10.045 -0.4115  0.0672  0.0647
   13loPI   C1A  199  12.865  12.051   9.673 -0.0542  0.0418 -0.0944
   13loPI   C2A  200  12.987  11.950   9.265 -0.1626  0.0908  0.0947
   13loPI   C3A  201  12.960  11.959   8.843 -0.5385  0.2362  0.0469
   13loPI   C4A  202  12.932  12.026   8.396  0.3244 -0.0136  0.3930
   13loPI   C5A  203  12.720  12.061   7.987  0.2796  0.2469 -0.4766
   13loPI   C6A  204  12.554  12.093   7.573 -0.1779 -0.0640 -0.0001
   13loPI   C1B  205  13.310  11.734   9.517  0.2025 -0.3845  0.2919
   13loPI   C2B  206  13.442  11.786   9.114 -0.0111  0.1997 -0.1042
   13loPI   C3B  207  13.394  11.709   8.674 -0.2495 -0.1985 -0.1094
   13loPI   C4B  208  13.366  11.789   8.311 -0.1633  0.0883  0.0691
   14loPI    C1  209  14.606  12.958  10.567  0.1141  0.1117  0.0638
   14loPI    C2  210  14.331  13.112  10.813  0.1402 -0.0390  0.1890
   14loPI    C3  211  14.554  12.801  10.932 -0.0262 -0.2818 -0.1192
   14loPI   PO4  212  14.498  12.918  10.339 -0.0734 -0.0672 -0.1213
   14loPI   GL1  213  14.606  12.841   9.924  0.3303  0.1476  0.0906
   14loPI   GL2  214  14.588  12.471   9.992  0.2028  0.1633 -0.0013
   14loPI   C1A  215  14.671  12.778   9.578 -0.2022  0.0425  0.0864
   14loPI   C2A  216  14.734  12.814   9.152  0.1084  0.0706  0.1710
   14loPI   C3A  217  14.638  12.822   8.723 -0.1968  0.0454  0.0603
   14loPI   C4A  218  14.662  12.731   8.337  0.0965 -0.0230 -0.2096
   14loPI   C5A  219  14.443  12.818   7.991 -0.0667  0.0250  0.0081
   14loPI   C6A  220  14.060  12.964   7.828 -0.0536 -0.1311  0.0080
   14loPI   C1B  221  14.659  12.230   9.653 -0.1789 -0.0361  0.3238
   14loPI   C2B  222  14.792  12.300   9.359  0.0874 -0.2119  0.2241
   14loPI   C3B  223  14.723  12.325   8.961 -0.0218 -0.1648 -0.0739
   14loPI   C4B  224  14.669  12.259   8.549  0.5753  0.1757 -0.0900
   15loPI    C1  225   8.431   0.020  10.758 -0.0112  0.0728 -0.1275
   15loPI    C2  226   8.341   0.280  11.049 -0.2078 -0.0815 -0.0484
   15loPI    C3  227   8.323  -0.113  11.120  0.0467 -0.1185 -0.1796
   15loPI   PO4  228   8.441   0.162  10.586  0.0345 -0.5543 -0.1121
   15loPI   GL1  229   8.240   0.385  10.239 -0.0740  0.1018  0.0540
   15loPI   GL2  230   8.043   0.647  10.291 -0.2269 -0.0437  0.1349
   15loPI   C1A  231   8.270   0.346   9.805 -0.2897  0.1679  0.1151
   15loPI   C2A  232   8.235   0.360   9.332  0.0406 -0.1843 -0.0421
   15loPI   C3A  233   8.221   0.323   8.882  0.1170  0.2409 -0.1057
   15loPI   C4A  234   8.149   0.231   8.454  0.1125  0.1940  0.0188
   15loPI   C5A  235   8.372   0.249   8.139 -0.1076  0.0413 -0.0780
   15loPI   C6A  236   8.764   0.072   7.989  0.2771  0.1992  0.0229
   15loPI   C1B  237   7.951   0.773   9.908 -0.1384 -0.2683  0.0433
   15loPI   C2B  238   7.935   0.749   9.464 -0.2975  0.1111 -0.0206
   15loPI   C3B  239   7.901   0.720   9.094 -0.0858  0.0413 -0.0150
   15loPI   C4B  240   7.911   0.674   8.733 -0.1914  0.0352  0.0265
   16loPI    C1  241  10.694  13.112  10.667  0.1556 -0.0075  0.0601
   16loPI    C2  242  10.496  12.815  10.848 -0.0103  0.1404  0.1238
   16loPI    C3  243  10.595  13.144  11.053  0.1073  0.1616  0.0344
   16loPI   PO4  244  10.994  13.080  10.591 -0.0383  0.0951  0.1121
   16loPI   GL1  245  11.145  13.201  10.221 -0.0657  0.0589 -0.0130
   16loPI   GL2  246  11.482  13.345  10.359  0.2026 -0.1442 -0.0083
   16loPI   C1A  247  11.388  13.154   9.896  0.0506 -0.2369  0.2539
   16loPI   C2A  248  11.415  13.108   9.432  0.0919 -0.0825 -0.3039
   16loPI   C3A  249  11.418  13.046   9.038  0.2931 -0.0401 -0.0151
   16loPI   C4A  250  11.525  13.083   8.549  0.0554 -0.1902 -0.1377
   16loPI   C5A  251  11.387  13.368   8.275  0.0878 -0.2460 -0.0679
   16loPI   C6A  252  11.365  13.474   7.834  0.0794  0.1229 -0.0010
   16loPI   C1B  253  11.460  13.653  10.025 -0.0018 -0.1402  0.0566
   16loPI   C2B  254  11.308  13.578   9.594 -0.2288 -0.3233 -0.0508
   16loPI   C3B  255  11.227  13.535   9.186  0.1116  0.1545 -0.1578
   16loPI   C4B  256  11.341  13.557   8.765  0.0729 -0.1298  0.0550
   17loPI    C1  257  10.201   8.900  10.560 -0.2295  0.2532 -0.2276
   17loPI    C2  258  10.279   9.005  10.938 -0.0254  0.2860 -0.2774
   17loPI    C3  259  10.127   8.644  10.858  0.0512  0.2305 -0.1748
   17loPI   PO4  260  10.277   9.079  10.390 -0.1099  0.2198  0.0968
   17loPI   GL1  261  10.327   9.021  10.012  0.0643  0.1765  0.0573
   17loPI   GL2  262  10.298   8.658  10.073 -0.2886 -0.1018  0.1433
   17loPI   C1A  263  10.283   9.113   9.606  0.0796  0.0534  0.2206
   17loPI   C2A  264  10.212   9.159   9.261 -0.4236  0.1167  0.4323
   17loPI   C3A  265  10.222   9.253   8.758  0.0976  0.3244 -0.2898
   17loPI   C4A  266  10.172   9.345   8.306 -0.1219  0.3499  0.1910
   17loPI   C5A  267  10.232   9.356   7.918 -0.2196 -0.0913  0.1399
   17loPI   C6A  268  10.390   9.386   7.537  0.0349 -0.0066 -0.0393
   17loPI   C1B  269  10.389   8.633   9.585 -0.1595  0.4213 -0.4143
   17loPI   C2B  270  10.370   8.612   9.231  0.0487  0.0094  0.0509
   17loPI   C3B  271  10.344   8.695   8.763  0.0618  0.5374  0.2161
   17loPI   C4B  272  10.341   8.806   8.243 -0.0947 -0.2021  0.0089
   18loPI    C1  273   0.014   9.047  10.798  0.0054  0.1963  0.0730
   18loPI    C2  274  -0.269   9.269  10.974 -0.1583 -0.1094  0.2035
   18loPI    C3  275   0.004   9.080  11.197 -0.1421 -0.2012  0.1066
   18loPI   PO4  276  -0.007   9.193  10.541  0.0255  0.1456  0.2668
   18loPI   GL1  277   0.045   9.049  10.139  0.1510  0.0862 -0.0672
   18loPI   GL2  278  -0.042   9.377  10.050 -0.2520  0.0721  0.1699
   18loPI   C1A  279  -0.077   9.012   9.726 -0.3962 -0.2502  0.2806
   18loPI   C2A  280  -0.026   9.364   9.472  0.0007  0.1674 -0.0770
   18loPI   C3A  281   0.233   9.656   9.400 -0.0486  0.0055  0.3131
   18loPI   C4A  282   0.331   9.800   8.954  0.0166  0.0241 -0.1602
   18loPI   C5A  283   0.388   9.586   8.653  0.0969  0.0809 -0.1558
   18loPI   C6A  284   0.362   9.182   8.500 -0.2374 -0.0345 -0.1521
   18loPI   C1B  285   0.419   9.232   9.789  0.2385 -0.0459  0.0595
   18loPI   C2B  286   0.482   9.180   9.379  0.0782 -0.2176 -0.0659
   18loPI   C3B  287   0.403   9.234   8.999 -0.1546 -0.0876 -0.2763
   18loPI   C4B  288  -0.001   9.378   8.968  0.3144  0.1418  0.1133
   19loPI    C1  289  13.468  14.326  11.044 -0.0070  0.0115  0.0274
   19loPI    C2  290  13.500  14.122  11.386  0.3212  0.1803  0.1010
   19loPI    C3  291  13.218  14.403  11.347  0.0937 -0.0416  0.1244
   19loPI   PO4  292  13.603  14.220  10.834 -0.1423 -0.1962 -0.0605
   19loPI   GL1  293  13.468  14.270  10.389 -0.0636 -0.0162  0.0422
   19loPI   GL2  294  13.154  14.291  10.405  0.1642  0.1632 -0.0046
   19loPI   C1A  295  13.497  14.105  10.014  0.1297 -0.0923 -0.0359
   19loPI   C2A  296  13.494  14.081   9.518  0.2739  0.1100 -0.1426
   19loPI   C3A  297  13.440  14.219   9.073 -0.0217  0.2624 -0.3164
   19loPI   C4A  298  13.428  14.276   8.626  0.0574  0.0963  0.1362
   19loPI   C5A  299  13.431  14.466   8.259  0.0083  0.1235  0.0507
   19loPI   C6A  300  13.356  14.826   7.970  0.1131  0.0644  0.0144
   19loPI   C1B  301  13.116  14.416  10.052  0.1068 -0.0295  0.1640
   19loPI   C2B  302  13.126  14.385   9.698  0.2478  0.2375  0.1635
   19loPI   C3B  303  13.026  14.321   9.296 -0.2190 -0.2291  0.2048
   19loPI   C4B  304  12.676  14.085   9.068  0.3538  0.0804 -0.0029
   20loPI    C1  305  14.495  17.628  10.921 -0.1647  0.3737  0.1272
   20loPI    C2  306  14.847  17.515  11.073 -0.0657  0.1574 -0.2488
   20loPI    C3  307  14.732  17.897  11.099 -0.0732  0.1230  0.3925
   20loPI   PO4  308  14.502  17.551  10.691 -0.1120 -0.3345  0.1412
   20loPI   GL1  309  14.502  17.195  10.512  0.2934 -0.0916  0.1652
   20loPI   GL2  310  14.610  16.926  10.355 -0.0958 -0.0275 -0.0271
   20loPI   C1A  311  14.338  17.157   9.977 -0.0437  0.1478  0.1442
   20loPI   C2A  312  14.470  17.189   9.568 -0.1484 -0.0853 -0.0506
   20loPI   C3A  313  14.439  17.176   9.091  0.0773 -0.2284  0.0744
   20loPI   C4A  314  14.359  17.324   8.700  0.2326 -0.1030  0.0942
   20loPI   C5A  315  14.450  17.244   8.272 -0.0975 -0.1695 -0.2793
   20loPI   C6A  316  14.600  16.916   8.130 -0.1598 -0.0952 -0.1648
   20loPI   C1B  317  14.596  16.732   9.911  0.2942  0.1940 -0.2116
   20loPI   C2B  318  14.610  16.672   9.487  0.0945  0.3305 -0.0378
   20loPI   C3B  319  14.586  16.692   9.025  0.1404 -0.0302  0.2346
   20loPI   C4B  320  14.468  16.620   8.610 -0.0195 -0.3410  0.1929
   21loPI    C1  321  18.313   9.924  10.968  0.1806  0.0956 -0.1601
   21loPI    C2  322  18.601   9.686  10.827 -0.1266 -0.2708 -0.1841
   21loPI    C3  323  18.400   9.582  11.156 -0.0935  0.0859 -0.0466
   21loPI   PO4  324  18.328  10.076  10.689 -0.0415 -0.1534  0.0695
   21loPI   GL1  325  18.182  10.043  10.261 -0.0048  0.0599  0.0819
   21loPI   GL2  326  18.460   9.778  10.303 -0.3086  0.2442  0.1049
   21loPI   C1A  327  18.251   9.893   9.905 -0.0815 -0.0836  0.2334
   21loPI   C2A  328  18.151   9.937   9.458  0.0551  0.0919 -0.0781
   21loPI   C3A  329  18.225   9.904   9.080  0.0317 -0.0894 -0.1845
   21loPI   C4A  330  18.173   9.905   8.656 -0.0932 -0.0658  0.1774
   21loPI   C5A  331  18.077   9.945   8.222  0.0910  0.2542 -0.0380
   21loPI   C6A  332  17.809  10.340   8.046  0.1354 -0.2082 -0.1624
   21loPI   C1B  333  18.749   9.699   9.919 -0.1037 -0.0424  0.0235
   21loPI   C2B  334  18.990   9.698   9.645 -0.1401  0.2095  0.1622
   21loPI   C3B  335  19.045   9.946   9.218 -0.1848  0.0408  0.0029
   21loPI   C4B  336  19.085  10.118   8.796 -0.2233  0.3412  0.0606
   22loPI    C1  337   9.628   9.014  10.838  0.2472  0.2096  0.1819
   22loPI    C2  338   9.287   9.185  10.958  0.0131  0.0394 -0.2190
   22loPI    C3  339   9.507   9.357  10.672  0.1389  0.0226 -0.1333
   22loPI   PO4  340   9.648   8.821  10.663 -0.1326  0.4114 -0.0466
   22loPI   GL1  341   9.805   8.975  10.241 -0.0291 -0.0956 -0.1465
   22loPI   GL2  342   9.800   9.247  10.296  0.1557 -0.0998 -0.0320
   22loPI   C1A  343   9.934   8.730   9.830  0.1383 -0.1715 -0.1898
   22loPI   C2A  344   9.855   8.802   9.330  0.1260  0.0200 -0.2289
   22loPI   C3A  345   9.959   8.849   8.938 -0.1480  0.0315 -0.1083
   22loPI   C4A  346   9.883   8.895   8.491 -0.0091 -0.1778 -0.3131
   22loPI   C5A  347   9.638   8.994   8.180 -0.1074 -0.3639 -0.3061
   22loPI   C6A  348   9.536   8.963   7.745  0.0326  0.0492 -0.0081
   22loPI   C1B  349   9.747   9.222   9.830  0.1944  0.2745 -0.1748
   22loPI   C2B  350   9.752   9.300   9.440  0.3295 -0.0408  0.1887
   22loPI   C3B  351   9.753   9.317   8.974  0.2524  0.0199 -0.0275
   22loPI   C4B  352   9.720   9.380   8.509 -0.1341 -0.0187 -0.0608
   23loPI    C1  353   9.126   1.651  11.018  0.0785 -0.1232 -0.0319
   23loPI    C2  354   8.941   1.690  11.371  0.4780 -0.2005  0.1917
   23loPI    C3  355   9.040   2.015  11.160  0.0840 -0.1585  0.0626
   23loPI   PO4  356   8.947   1.511  10.821  0.1370 -0.3839  0.0362
   23loPI   GL1  357   8.954   1.352  10.468  0.0903 -0.1120 -0.2617
   23loPI   GL2  358   8.989   1.583  10.227  0.4472  0.0559  0.0745
   23loPI   C1A  359   9.070   1.045  10.170 -0.0213 -0.0579  0.0750
   23loPI   C2A  360   8.982   0.884   9.817 -0.1261  0.2949  0.1297
   23loPI   C3A  361   8.904   0.891   9.315  0.2952  0.0807 -0.1910
   23loPI   C4A  362   8.890   0.885   8.940  0.2785 -0.1912 -0.1653
   23loPI   C5A  363   8.889   0.858   8.508 -0.0243  0.2095  0.0841
   23loPI   C6A  364   8.745   0.657   8.089 -0.3897  0.0712  0.0695
   23loPI   C1B  365   9.051   1.372   9.779 -0.0446 -0.0772 -0.0103
   23loPI   C2B  366   9.100   1.361   9.309  0.1454  0.1320 -0.0614
   23loPI   C3B  367   9.115   1.372   8.882  0.2153  0.0198 -0.2141
   23loPI   C4B  368   9.065   1.319   8.460  0.2193  0.2775  0.1068
   24loPI    C1  369   4.303  17.247  10.862  0.0093  0.0610 -0.1711
   24loPI    C2  370   4.067  17.548  10.745 -0.1570  0.0507  0.1271
   24loPI    C3  371   4.213  17.541  11.117  0.0611 -0.1046  0.0409
   24loPI   PO4  372   4.406  17.174  10.553 -0.1175  0.0084  0.0081
   24loPI   GL1  373   4.394  17.311  10.144 -0.0786 -0.0792 -0.0251
   24loPI   GL2  374   4.584  17.391   9.883 -0.0349 -0.3603  0.1128
   24loPI   C1A  375   4.121  17.427   9.767  0.2670  0.2224 -0.1230
   24loPI   C2A  376   4.043  17.419   9.266 -0.1610  0.1202  0.1491
   24loPI   C3A  377   4.093  17.273   8.826  0.1609  0.1408 -0.0061
   24loPI   C4A  378   4.152  17.107   8.400  0.0442  0.0603  0.4180
   24loPI   C5A  379   3.941  16.914   8.062 -0.3573 -0.1147  0.0559
   24loPI   C6A  380   3.940  16.556   7.833 -0.0316 -0.0282  0.3857
   24loPI   C1B  381   4.559  17.481   9.484  0.0883 -0.2773 -0.1325
   24loPI   C2B  382   4.543  17.410   9.042 -0.0112 -0.2318 -0.2295
   24loPI   C3B  383   4.647  17.384   8.635  0.0637 -0.0488  0.0992
   24loPI   C4B  384   4.600  17.453   8.246 -0.1452 -0.0783  0.0544
   25loPI    C1  385   4.487  14.039  10.783 -0.2176 -0.0190 -0.0042
   25loPI    C2  386   4.701  13.815  11.036 -0.0766 -0.1820 -0.2643
   25loPI    C3  387   4.624  14.197  11.125  0.2362 -0.1497 -0.1183
   25loPI   PO4  388   4.282  13.850  10.681 -0.4642  0.1439 -0.2118
   25loPI   GL1  389   4.156  13.838  10.184 -0.0873 -0.1367 -0.0797
   25loPI   GL2  390   4.399  13.598  10.134 -0.0911 -0.0767 -0.0314
   25loPI   C1A  391   3.966  13.835   9.758  0.0516 -0.3803  0.0205
   25loPI   C2A  392   4.086  13.850   9.334  0.0268  0.1973 -0.2355
   25loPI   C3A  393   4.117  13.681   8.912 -0.0043 -0.4521 -0.1046
   25loPI   C4A  394   4.240  13.669   8.453  0.0353 -0.3567 -0.1764
   25loPI   C5A  395   4.636  13.578   8.174  0.0433 -0.3902 -0.0389
   25loPI   C6A  396   4.728  13.414   7.766  0.1808 -0.0156 -0.1401
   25loPI   C1B  397   4.775  13.613   9.842  0.0429 -0.4124  0.1460
   25loPI   C2B  398   4.996  13.519   9.513 -0.1377  0.0361  0.0997
   25loPI   C3B  399   5.341  13.271   9.444 -0.1212 -0.0168  0.1907
   25loPI   C4B  400   5.572  13.062   9.124  0.0119 -0.0820 -0.1885
   26loPI    C1  401  11.980   2.066  10.532  0.2212  0.1016  0.0447
   26loPI    C2  402  12.146   1.717  10.428 -0.0321  0.0471 -0.1892
   26loPI    C3  403  12.028   1.778  10.805  0.1115 -0.0782 -0.1229
   26loPI   PO4  404  11.836   2.077  10.246 -0.1607 -0.1754 -0.0913
   26loPI   GL1  405  12.000   2.101   9.839  0.0230  0.1329  0.0511
   26loPI   GL2  406  11.753   1.929   9.731 -0.1167  0.0119 -0.1676
   26loPI   C1A  407  11.979   2.284   9.426 -0.1052  0.0486  0.1909
   26loPI   C2A  408  12.000   2.238   9.025  0.0298 -0.0861  0.2460
   26loPI   C3A  409  12.114   1.916   8.725  0.1396 -0.2920 -0.1265
   26loPI   C4A  410  12.027   1.718   8.273 -0.2530  0.0960 -0.1157
   26loPI   C5A  411  11.601   1.644   8.161  0.0042  0.0421 -0.0058
   26loPI   C6A  412  11.269   1.979   8.020  0.0075  0.0310  0.2205
   26loPI   C1B  413  12.049   1.795   9.435  0.2084 -0.3537 -0.1216
   26loPI   C2B  414  12.292   1.662   9.103  0.0459  0.4317 -0.1998
   26loPI   C3B  415  12.625   1.499   8.955  0.0750 -0.0593  0.0511
   26loPI   C4B  416  12.839   1.433   8.515  0.1734 -0.1148  0.0961
   27loPI    C1  417   3.943   5.493  10.880  0.0859 -0.1942 -0.0844
   27loPI    C2  418   3.659   5.264  10.716 -0.1122 -0.1349  0.1682
   27loPI    C3  419   3.677   5.307  11.113  0.0741  0.0931  0.1378
   27loPI   PO4  420   3.932   5.750  10.643  0.1389  0.2283  0.0894
   27loPI   GL1  421   3.645   5.861  10.366  0.3274  0.1278  0.3385
   27loPI   GL2  422   3.365   6.038  10.245  0.2471  0.0301  0.3330
   27loPI   C1A  423   3.830   6.071  10.046  0.2724 -0.0867 -0.1558
   27loPI   C2A  424   3.884   6.208   9.628  0.0131  0.2554 -0.1610
   27loPI   C3A  425   3.898   6.129   9.234  0.1169  0.0195 -0.1147
   27loPI   C4A  426   3.923   6.091   8.793  0.0556  0.1277  0.2839
   27loPI   C5A  427   3.702   5.913   8.450  0.1549 -0.0751  0.0418
   27loPI   C6A  428   3.436   5.697   8.182 -0.3160 -0.0769 -0.0142
   27loPI   C1B  429   3.389   6.070   9.774  0.0690 -0.1307  0.0223
   27loPI   C2B  430   3.374   6.052   9.327  0.2092  0.2287 -0.0802
   27loPI   C3B  431   3.425   6.100   8.820 -0.1193 -0.2123 -0.1615
   27loPI   C4B  432   3.159   6.124   8.300  0.1860  0.0043  0.0944
   28loPI    C1  433  17.310  15.145  10.381  0.1051  0.0787 -0.0529
   28loPI    C2  434  17.332  14.760  10.485  0.0978  0.0719 -0.0768
   28loPI    C3  435  17.648  14.940  10.318  0.0836  0.0622 -0.1143
   28loPI   PO4  436  17.080  15.176  10.321 -0.3675  0.0458 -0.0966
   28loPI   GL1  437  16.858  15.509   9.994  0.1825 -0.0920 -0.2049
   28loPI   GL2  438  17.122  15.361   9.843  0.1216  0.2793 -0.0880
   28loPI   C1A  439  16.578  15.391   9.644  0.3548 -0.3681  0.2820
   28loPI   C2A  440  16.514  15.344   9.266  0.0937  0.0293 -0.1774
   28loPI   C3A  441  16.446  15.363   8.788  0.1871 -0.1397 -0.0963
   28loPI   C4A  442  16.457  15.437   8.357 -0.0606  0.1041  0.2388
   28loPI   C5A  443  16.515  15.155   8.002  0.0666  0.1151 -0.1214
   28loPI   C6A  444  16.481  15.187   7.562  0.1612  0.5750 -0.1854
   28loPI   C1B  445  17.007  15.231   9.492  0.3678  0.1171  0.2433
   28loPI   C2B  446  16.972  15.227   8.939  0.0049 -0.0762 -0.0314
   28loPI   C3B  447  16.927  15.172   8.540  0.3351 -0.0451  0.1439
   28loPI   C4B  448  17.012  15.303   8.166 -0.1489 -0.0478 -0.3543
   29loPI    C1  449   2.733   4.886  10.757  0.1587  0.1221  0.0583
   29loPI    C2  450   2.513   5.132  10.531  0.2917  0.0363 -0.1678
   29loPI    C3  451   2.826   5.274  10.736  0.0294  0.1595  0.1573
   29loPI   PO4  452   2.749   4.724  10.659  0.0335 -0.1176  0.0668
   29loPI   GL1  453   2.766   4.637  10.191 -0.2022  0.2456 -0.5259
   29loPI   GL2  454   2.566   4.894  10.055  0.1002  0.0140 -0.2156
   29loPI   C1A  455   2.796   4.603   9.725  0.0502  0.0728 -0.1087
   29loPI   C2A  456   2.817   4.618   9.291  0.1064  0.4872 -0.3949
   29loPI   C3A  457   2.745   4.580   8.896 -0.1075 -0.0982  0.3060
   29loPI   C4A  458   2.765   4.657   8.532  0.2178 -0.1010  0.1114
   29loPI   C5A  459   2.623   4.535   8.087 -0.1859  0.1800 -0.0900
   29loPI   C6A  460   2.676   4.790   7.758 -0.0742  0.3032 -0.0957
   29loPI   C1B  461   2.506   5.032   9.675  0.0491 -0.0283 -0.3037
   29loPI   C2B  462   2.525   5.020   9.284 -0.3548 -0.1546 -0.0347
   29loPI   C3B  463   2.489   5.001   8.859 -0.1747  0.0045 -0.0343
   29loPI   C4B  464   2.529   5.110   8.403 -0.0232  0.0232  0.4169
   30loPI    C1  465   5.675  14.868  10.826  0.0061 -0.0181 -0.0863
   30loPI    C2  466   5.374  15.073  10.661  0.0025  0.0337 -0.0159
   30loPI    C3  467   5.469  15.132  11.045 -0.0622 -0.1685  0.0327
   30loPI   PO4  468   5.624  14.594  10.581  0.3694  0.0892  0.2350
   30loPI   GL1  469   5.273  14.473  10.331 -0.1141  0.2639 -0.2442
   30loPI   GL2  470   5.017  14.333  10.249  0.1350  0.2808  0.0618
   30loPI   C1A  471   5.204  14.621   9.875 -0.0273  0.4297 -0.0894
   30loPI   C2A  472   5.262  14.731   9.511 -0.1079 -0.4240 -0.1281
   30loPI   C3A  473   5.294  14.840   9.084 -0.0689 -0.0094  0.0279
   30loPI   C4A  474   5.427  14.916   8.647  0.1837 -0.0777 -0.1516
   30loPI   C5A  475   5.498  15.289   8.387  0.2613 -0.1542 -0.0724
   30loPI   C6A  476   5.532  15.654   8.128 -0.0132  0.4059  0.0573
   30loPI   C1B  477   5.137  14.083   9.846 -0.2365 -0.0762  0.1546
   30loPI   C2B  478   5.328  14.199   9.541 -0.1822  0.0742 -0.2612
   30loPI   C3B  479   5.487  14.163   9.111  0.0977 -0.1397 -0.0400
   30loPI   C4B  480   5.387  14.056   8.676 -0.1414  0.0584 -0.0211
   31loPI    C1  481   4.892   6.547  10.973  0.1440 -0.1013 -0.2208
   31loPI    C2  482   4.963   6.183  11.125 -0.2076 -0.1348 -0.1293
   31loPI    C3  483   4.758   6.453  11.338  0.1934  0.1778 -0.1287
   31loPI   PO4  484   4.828   6.515  10.755  0.0130 -0.1985  0.2480
   31loPI   GL1  485   4.975   6.606  10.311  0.1089 -0.3602 -0.1925
   31loPI   GL2  486   4.827   6.280  10.315 -0.1330  0.1172  0.0683
   31loPI   C1A  487   5.019   6.649   9.880  0.0454  0.0654  0.3652
   31loPI   C2A  488   5.129   6.686   9.432 -0.1588 -0.1453  0.0300
   31loPI   C3A  489   5.514   6.845   9.158  0.0482 -0.0842  0.1176
   31loPI   C4A  490   5.902   6.843   8.930  0.0745 -0.0828  0.0604
   31loPI   C5A  491   6.233   6.710   8.796  0.0035 -0.2615  0.2586
   31loPI   C6A  492   6.342   6.313   8.643 -0.3570  0.1779  0.1811
   31loPI   C1B  493   4.822   6.212   9.888 -0.1775 -0.1010  0.1130
   31loPI   C2B  494   4.995   6.202   9.562  0.0546 -0.0802 -0.0560
   31loPI   C3B  495   4.983   6.109   9.121 -0.0569 -0.1456 -0.0607
   31loPI   C4B  496   5.037   6.193   8.633  0.0572  0.0036  0.1254
   32loPI    C1  497   6.307   0.721  10.890  0.0640  0.0854 -0.1771
   32loPI    C2  498   6.329   0.335  10.991  0.2407  0.1404  0.0030
   32loPI    C3  499   6.103   0.585  11.205  0.1649  0.1473 -0.0842
   32loPI   PO4  500   6.269   0.695  10.566 -0.0887  0.3899 -0.0074
   32loPI   GL1  501   6.332   0.773  10.170  0.1413 -0.0392  0.1797
   32loPI   GL2  502   6.434   0.480  10.176  0.3283  0.2129 -0.1014
   32loPI   C1A  503   6.096   0.790   9.867 -0.0272  0.1869  0.0823
   32loPI   C2A  504   6.102   0.805   9.466  0.1713  0.0159 -0.1306
   32loPI   C3A  505   6.167   0.805   9.017  0.0170 -0.0730  0.1818
   32loPI   C4A  506   6.137   0.758   8.626 -0.2143 -0.1518  0.2894
   32loPI   C5A  507   6.201   0.830   8.173 -0.2491 -0.3229  0.0144
   32loPI   C6A  508   5.953   0.916   7.746  0.3922  0.0659 -0.2648
   32loPI   C1B  509   6.398   0.442   9.719  0.0040 -0.0075  0.2182
   32loPI   C2B  510   6.391   0.413   9.303 -0.0106 -0.1363 -0.1044
   32loPI   C3B  511   6.429   0.320   8.858 -0.1660  0.1545 -0.0286
   32loPI   C4B  512   6.417   0.349   8.406 -0.0443  0.1888 -0.2100
   33loPI    C1  513  15.908   3.374   9.766  0.1391 -0.0303  0.1146
   33loPI    C2  514  15.947   3.230  10.137  0.0614  0.0579  0.1573
   33loPI    C3  515  15.585   3.330   9.997  0.0837 -0.0240  0.0389
   33loPI   PO4  516  16.189   3.253   9.694 -0.0881 -0.1224  0.1165
   33loPI   GL1  517  16.486   3.108   9.387  0.1660  0.1706 -0.1224
   33loPI   GL2  518  16.313   2.822   9.304 -0.0447  0.1123  0.0369
   33loPI   C1A  519  16.716   3.205   8.986  0.2622  0.2244 -0.0054
   33loPI   C2A  520  16.607   3.012   8.635 -0.0686 -0.0256  0.3177
   33loPI   C3A  521  16.663   2.646   8.405 -0.0292 -0.2141  0.0920
   33loPI   C4A  522  16.549   2.272   8.263  0.0852  0.0099  0.0923
   33loPI   C5A  523  16.739   2.021   8.027  0.0335 -0.0566 -0.2018
   33loPI   C6A  524  16.970   1.822   7.737 -0.0611 -0.1957  0.0726
   33loPI   C1B  525  16.170   3.178   9.029 -0.3169 -0.2642  0.2291
   33loPI   C2B  526  16.161   3.212   8.658  0.0865 -0.0148 -0.1766
   33loPI   C3B  527  16.194   3.101   8.296  0.2942  0.2457  0.0265
   33loPI   C4B  528  16.224   3.125   7.837 -0.3195  0.2952  0.3137
   34loPI    C1  529  17.013  17.205  10.392 -0.1390  0.1863 -0.1158
   34loPI    C2  530  17.317  17.011  10.565 -0.0296  0.1571 -0.3374
   34loPI    C3  531  17.078  17.245  10.784  0.0782  0.0839 -0.1398
   34loPI   PO4  532  16.863  16.946  10.267 -0.1339  0.1777 -0.1805
   34loPI   GL1  533  16.744  16.786   9.802 -0.1608 -0.1508 -0.1963
   34loPI   GL2  534  16.427  16.916   9.914 -0.2684  0.0645  0.1140
   34loPI   C1A  535  16.726  16.661   9.313 -0.1708 -0.0532  0.2212
   34loPI   C2A  536  16.830  16.641   8.914  0.0410  0.0946 -0.1769
   34loPI   C3A  537  16.769  16.740   8.415  0.5261 -0.1150 -0.0461
   34loPI   C4A  538  17.043  16.882   8.094  0.0799  0.0151 -0.3156
   34loPI   C5A  539  16.913  17.262   7.834  0.3007  0.0719  0.1199
   34loPI   C6A  540  16.728  17.668   8.079 -0.1538 -0.1466  0.2330
   34loPI   C1B  541  16.257  16.881   9.534 -0.5784 -0.0421 -0.2713
   34loPI   C2B  542  16.351  16.810   9.068 -0.1688  0.0762 -0.2220
   34loPI   C3B  543  16.331  16.932   8.635  0.3380  0.1092 -0.0458
   34loPI   C4B  544  16.256  17.098   8.199  0.3468  0.1150 -0.0649
   35loPI    C1  545  11.053  11.104  10.979  0.0994  0.0755  0.0645
   35loPI    C2  546  11.396  10.998  11.155 -0.0071  0.1369  0.3131
   35loPI    C3  547  11.049  10.952  11.349 -0.1460  0.0293  0.0446
   35loPI   PO4  548  11.090  11.018  10.761 -0.1264 -0.0622  0.0279
   35loPI   GL1  549  11.369  10.992  10.444  0.1004 -0.0202 -0.2740
   35loPI   GL2  550  11.577  11.116  10.311 -0.2854 -0.1140  0.0842
   35loPI   C1A  551  11.302  10.719  10.144  0.0178 -0.0357  0.1193
   35loPI   C2A  552  11.213  10.761   9.771  0.0196  0.0133  0.2605
   35loPI   C3A  553  11.242  10.734   9.330 -0.0114 -0.2332  0.0885
   35loPI   C4A  554  11.279  10.696   8.794 -0.0182 -0.0123  0.0211
   35loPI   C5A  555  11.295  10.681   8.303 -0.2511  0.1676  0.3576
   35loPI   C6A  556  11.401  10.814   7.851 -0.0259  0.0437  0.1749
   35loPI   C1B  557  11.659  10.957   9.908 -0.1450  0.1995 -0.0059
   35loPI   C2B  558  11.733  11.034   9.470  0.0559 -0.0562  0.0981
   35loPI   C3B  559  11.640  10.989   9.076 -0.2734 -0.3125  0.1625
   35loPI   C4B  560  11.685  11.019   8.644 -0.1398 -0.1310 -0.0672
   36loPI    C1  561  18.013   6.399  10.731 -0.0822 -0.0517  0.0518
   36loPI    C2  562  17.710   6.139  10.746 -0.0567 -0.0814  0.0520
   36loPI    C3  563  18.086   6.010  10.790 -0.0289 -0.0743 -0.1554
   36loPI   PO4  564  18.028   6.497  10.466 -0.1127  0.2401 -0.2531
   36loPI   GL1  565  18.211   6.298  10.116  0.2037  0.3361  0.1253
   36loPI   GL2  566  17.828   6.315  10.036  0.0176 -0.1299  0.2588
   36loPI   C1A  567  18.284   6.401   9.685 -0.0106 -0.1947  0.0290
   36loPI   C2A  568  18.470   6.543   9.326  0.1542 -0.0642 -0.0677
   36loPI   C3A  569  18.634   6.555   8.902  0.2072  0.0131 -0.1788
   36loPI   C4A  570  18.651   6.771   8.534  0.2702  0.0225 -0.0259
   36loPI   C5A  571  18.587   6.782   8.143  0.1784  0.1038  0.0861
   36loPI   C6A  572  18.801   6.518   7.888  0.0363  0.0089  0.0533
   36loPI   C1B  573  17.811   6.407   9.573  0.0934 -0.1809 -0.0661
   36loPI   C2B  574  17.828   6.479   9.148  0.0767 -0.0978 -0.1196
   36loPI   C3B  575  18.162   6.527   8.834  0.0957 -0.2812  0.1477
   36loPI   C4B  576  18.291   6.496   8.450  0.0799  0.4139  0.1092
   37loPI    C1  577  13.804   4.040  10.034  0.0607  0.0491 -0.0332
   37loPI    C2  578  13.786   4.313  10.327 -0.1086 -0.2191  0.2116
   37loPI    C3  579  13.527   4.009  10.321  0.0166 -0.3238 -0.1124
   37loPI   PO4  580  13.777   3.999   9.794  0.2184 -0.2667 -0.0064
   37loPI   GL1  581  13.619   4.253   9.487 -0.1516  0.2252  0.0680
   37loPI   GL2  582  13.656   3.975   9.329 -0.0195  0.1088 -0.2036
   37loPI   C1A  583  13.554   4.498   9.113 -0.1833 -0.2083 -0.1856
   37loPI   C2A  584  13.717   4.530   8.715  0.2718 -0.0851 -0.1365
   37loPI   C3A  585  13.858   4.333   8.245 -0.0279 -0.0695 -0.0371
   37loPI   C4A  586  14.188   4.252   7.973 -0.0846  0.2574  0.2330
   37loPI   C5A  587  14.351   3.920   7.691  0.1804 -0.4626  0.0336
   37loPI   C6A  588  14.122   3.655   7.541  0.0697 -0.0114  0.0047
   37loPI   C1B  589  13.780   4.035   8.903  0.0602 -0.1803 -0.2168
   37loPI   C2B  590  13.827   3.921   8.492  0.2211 -0.0779 -0.1430
   37loPI   C3B  591  13.830   3.855   8.028 -0.0664  0.2043 -0.2367
   37loPI   C4B  592  13.841   4.106   7.606  0.0149  0.0117 -0.0970
   38loPI    C1  593   8.280   4.227  10.657  0.0030 -0.0903 -0.0266
   38loPI    C2  594   7.910   4.228  10.506 -0.0452 -0.1998  0.0891
   38loPI    C3  595   7.964   4.230  10.902  0.0806  0.1853  0.0744
   38loPI   PO4  596   8.365   4.382  10.436 -0.2367 -0.3382  0.0294
   38loPI   GL1  597   8.640   4.303  10.124  0.0178 -0.1741  0.1133
   38loPI   GL2  598   8.573   4.057   9.960 -0.1035  0.1167 -0.3641
   38loPI   C1A  599   8.455   4.508   9.710  0.1042  0.1926 -0.1094
   38loPI   C2A  600   8.440   4.574   9.275  0.0389 -0.3050  0.0461
   38loPI   C3A  601   8.347   4.532   8.912  0.3735  0.1331 -0.2466
   38loPI   C4A  602   8.306   4.435   8.492 -0.1693  0.1380  0.2864
   38loPI   C5A  603   8.350   4.186   8.050 -0.2365  0.3908  0.0106
   38loPI   C6A  604   8.145   3.871   7.988  0.2550 -0.1772  0.0030
   38loPI   C1B  605   8.616   3.878   9.712 -0.2651  0.0883 -0.0066
   38loPI   C2B  606   8.451   3.986   9.275  0.1534  0.0747 -0.2956
   38loPI   C3B  607   8.560   4.032   8.861 -0.0705  0.1668  0.1391
   38loPI   C4B  608   8.672   3.996   8.456 -0.0374 -0.1117 -0.1751
   39loPI    C1  609  12.308  16.869  10.862 -0.0604  0.1245 -0.2009
   39loPI    C2  610  12.101  16.892  11.203  0.0655  0.1598 -0.1263
   39loPI    C3  611  12.496  16.955  11.205  0.0852  0.0427 -0.2593
   39loPI   PO4  612  12.123  16.749  10.622  0.0151  0.1353 -0.1280
   39loPI   GL1  613  11.898  16.483  10.442  0.1130  0.0205  0.4541
   39loPI   GL2  614  12.093  16.227  10.648 -0.2547 -0.0546  0.1078
   39loPI   C1A  615  11.861  16.390  10.095 -0.1379  0.0328 -0.2612
   39loPI   C2A  616  11.881  16.367   9.722 -0.0594  0.1362  0.2573
   39loPI   C3A  617  11.933  16.285   9.313  0.0714  0.0230  0.2116
   39loPI   C4A  618  11.808  16.160   8.876 -0.2255 -0.1007 -0.1404
   39loPI   C5A  619  11.467  16.401   8.622  0.1450  0.1092 -0.0065
   39loPI   C6A  620  11.340  16.765   8.283  0.1087 -0.1426 -0.0565
   39loPI   C1B  621  12.420  16.146  10.292  0.1154  0.1813 -0.2018
   39loPI   C2B  622  12.450  16.142   9.871  0.0458 -0.2909  0.0714
   39loPI   C3B  623  12.463  16.151   9.477  0.4600 -0.1806 -0.1997
   39loPI   C4B  624  12.327  16.096   9.028 -0.2410  0.0393 -0.1032
   40loPI    C1  625  16.389  11.417  10.691 -0.0608  0.0520 -0.1116
   40loPI    C2  626  16.699  11.391  10.942 -0.1562 -0.3364 -0.0272
   40loPI    C3  627  16.337  11.488  11.081 -0.1139 -0.0716 -0.0958
   40loPI   PO4  628  16.396  11.605  10.471 -0.0894  0.2331  0.2230
   40loPI   GL1  629  16.617  11.400  10.105  0.1768  0.0407  0.2426
   40loPI   GL2  630  16.625  11.593  10.023 -0.0280 -0.1644  0.0614
   40loPI   C1A  631  16.995  11.318   9.882  0.0590 -0.1523 -0.2567
   40loPI   C2A  632  17.185  11.327   9.421  0.1853 -0.1279  0.1168
   40loPI   C3A  633  17.103  11.192   8.910 -0.1404  0.3455 -0.1166
   40loPI   C4A  634  17.013  11.114   8.587 -0.1520 -0.0474  0.1003
   40loPI   C5A  635  16.854  11.332   8.262 -0.1593 -0.0664  0.1401
   40loPI   C6A  636  16.918  11.452   7.859  0.4629 -0.1699 -0.2032
   40loPI   C1B  637  16.701  11.585   9.530 -0.3082  0.0282 -0.4193
   40loPI   C2B  638  16.735  11.350   9.217 -0.0397  0.2162  0.2789
   40loPI   C3B  639  16.602  11.050   9.018 -0.3500 -0.0312  0.1433
   40loPI   C4B  640  16.157  11.086   8.773 -0.4466  0.3102 -0.0105
   41loPI    C1  641   3.205  17.032  10.838  0.3358 -0.2002  0.1191
   41loPI    C2  642   3.208  17.360  11.068  0.2217 -0.0420 -0.1017
   41loPI    C3  643   2.995  17.040  11.179  0.1452  0.0433 -0.0005
   41loPI   PO4  644   3.131  17.177  10.591 -0.1478  0.0151 -0.0530
   41loPI   GL1  645   3.190  17.473  10.243 -0.1544 -0.0532  0.0677
   41loPI   GL2  646   3.455  17.214  10.146  0.0734 -0.0340  0.0151
   41loPI   C1A  647   3.219  17.457   9.806 -0.2214  0.2722 -0.0054
   41loPI   C2A  648   3.231  17.593   9.438  0.1193 -0.1125  0.0901
   41loPI   C3A  649   3.100  17.689   9.037 -0.1593  0.2313 -0.0846
   41loPI   C4A  650   3.093  17.523   8.654 -0.0525  0.0921 -0.2075
   41loPI   C5A  651   3.235  17.527   8.234  0.0745 -0.1575 -0.1445
   41loPI   C6A  652   3.257  17.755   7.901  0.1053 -0.0324  0.0185
   41loPI   C1B  653   3.721  17.084   9.786  0.2005 -0.0939  0.1051
   41loPI   C2B  654   3.591  17.202   9.371  0.0907  0.2913 -0.0087
   41loPI   C3B  655   3.535  17.269   8.946  0.1864 -0.1442 -0.0215
   41loPI   C4B  656   3.636  17.292   8.547 -0.2895  0.0102  0.1009
   42loPI    C1  657  11.051   2.508  10.063  0.1487 -0.1711 -0.2446
   42loPI    C2  658  11.143   2.897  10.053 -0.0521 -0.1164 -0.0462
   42loPI    C3  659  11.227   2.679  10.378 -0.0399 -0.2139 -0.1142
   42loPI   PO4  660  10.896   2.498   9.923  0.0367  0.2078  0.0491
   42loPI   GL1  661  10.848   2.685   9.472  0.1911 -0.0925  0.0446
   42loPI   GL2  662  10.531   2.699   9.652  0.0152  0.0950  0.1383
   42loPI   C1A  663  10.594   2.788   9.142 -0.0055 -0.2725  0.2989
   42loPI   C2A  664  10.728   2.745   8.764  0.3156 -0.1827  0.1461
   42loPI   C3A  665  11.020   2.980   8.533 -0.0593 -0.2171 -0.1342
   42loPI   C4A  666  11.135   2.948   8.074 -0.0986 -0.1543 -0.2504
   42loPI   C5A  667  10.810   2.682   7.827 -0.1903  0.2732 -0.0090
   42loPI   C6A  668  10.945   2.295   7.581  0.0989  0.0878 -0.0786
   42loPI   C1B  669  10.363   2.357   9.352  0.1628  0.0951  0.0687
   42loPI   C2B  670  10.344   2.411   8.881 -0.4331  0.2398 -0.1722
   42loPI   C3B  671  10.382   2.479   8.439 -0.0579 -0.0847  0.0629
   42loPI   C4B  672  10.393   2.556   8.034  0.1271  0.3532 -0.3299
   43loPI    C1  673  12.238   3.848   9.760  0.0497  0.0495 -0.1706
   43loPI    C2  674  11.965   4.074   9.945  0.0454 -0.1408  0.0597
   43loPI    C3  675  12.268   3.916  10.153  0.2383 -0.0690 -0.1631
   43loPI   PO4  676  12.244   3.932   9.563 -0.1954 -0.1471 -0.0051
   43loPI   GL1  677  12.286   4.023   9.149 -0.0587  0.0353  0.1871
   43loPI   GL2  678  12.052   3.733   9.169 -0.0079 -0.0143 -0.2272
   43loPI   C1A  679  12.021   3.935   8.697 -0.1512  0.1740  0.1315
   43loPI   C2A  680  11.938   4.212   8.448 -0.0394 -0.1361  0.0611
   43loPI   C3A  681  11.662   4.228   8.077 -0.2372  0.3360  0.0119
   43loPI   C4A  682  11.386   4.045   7.716 -0.1459  0.0481  0.1347
   43loPI   C5A  683  10.935   4.082   7.760 -0.0104 -0.0072  0.0298
   43loPI   C6A  684  10.692   3.731   7.835  0.4309  0.2363 -0.2795
   43loPI   C1B  685  11.999   3.367   8.756 -0.1199  0.3364 -0.0145
   43loPI   C2B  686  11.981   3.382   8.305  0.0215  0.1958  0.0544
   43loPI   C3B  687  12.093   3.253   7.894  0.0584 -0.3617  0.1100
   43loPI   C4B  688  12.136   3.128   7.451  0.3266 -0.0871 -0.0537
   44loPI    C1  689   6.445   2.307  10.760 -0.1162 -0.2204  0.0754
   44loPI    C2  690   6.066   2.332  10.887 -0.1412  0.0969 -0.0528
   44loPI    C3  691   6.340   2.591  11.023  0.0834 -0.2695  0.2108
   44loPI   PO4  692   6.403   2.293  10.555  0.0493  0.3286 -0.0339
   44loPI   GL1  693   6.203   2.304  10.152 -0.2583  0.3653 -0.1269
   44loPI   GL2  694   5.931   2.116  10.156 -0.1003  0.2674 -0.1962
   44loPI   C1A  695   6.140   2.644   9.923 -0.2534 -0.1590  0.0018
   44loPI   C2A  696   6.316   2.591   9.478  0.1566  0.1531 -0.1421
   44loPI   C3A  697   6.319   2.582   9.040  0.0344  0.2157  0.1361
   44loPI   C4A  698   6.343   2.627   8.542 -0.4846  0.0943  0.3199
   44loPI   C5A  699   6.043   2.795   8.204 -0.1150  0.1909  0.1463
   44loPI   C6A  700   5.747   2.606   7.830 -0.1455 -0.2351 -0.0793
   44loPI   C1B  701   6.006   2.130   9.694  0.0449 -0.0137 -0.2512
   44loPI   C2B  702   6.128   2.070   9.315  0.0172  0.0225  0.2243
   44loPI   C3B  703   6.096   2.106   8.919 -0.0976 -0.3207  0.1031
   44loPI   C4B  704   6.161   2.147   8.480 -0.1572 -0.2492 -0.1135
   45loPI    C1  705   1.973  11.777  10.811 -0.1528  0.0673 -0.0789
   45loPI    C2  706   1.948  12.042  11.110 -0.2260  0.0103 -0.0341
   45loPI    C3  707   1.767  11.687  11.142  0.1167 -0.1633  0.0302
   45loPI   PO4  708   2.239  11.786  10.739 -0.2518  0.1411  0.1423
   45loPI   GL1  709   2.365  11.763  10.333  0.1118  0.2295 -0.0747
   45loPI   GL2  710   2.711  11.888  10.277  0.0803  0.2600  0.1173
   45loPI   C1A  711   2.377  11.772   9.857  0.2083  0.0868  0.1212
   45loPI   C2A  712   2.289  11.766   9.444  0.1108  0.1016 -0.1358
   45loPI   C3A  713   2.316  11.757   9.106  0.0304  0.0006  0.2024
   45loPI   C4A  714   2.599  11.766   8.716 -0.1693 -0.2611  0.0581
   45loPI   C5A  715   2.771  11.810   8.310  0.0127 -0.0308  0.0432
   45loPI   C6A  716   3.153  11.593   8.010 -0.1942 -0.0156  0.0053
   45loPI   C1B  717   2.937  11.863   9.944 -0.3637 -0.1704 -0.0038
   45loPI   C2B  718   3.101  11.480   9.760 -0.1724  0.2472  0.2175
   45loPI   C3B  719   3.428  11.251   9.481  0.0036 -0.0608 -0.1446
   45loPI   C4B  720   3.462  11.412   9.127  0.1020 -0.0541 -0.3423
   46loPI    C1  721   8.996  13.947  10.913 -0.1401 -0.0004 -0.0585
   46loPI    C2  722   9.337  13.892  10.712 -0.1787 -0.0665 -0.1062
   46loPI    C3  723   9.332  13.861  11.111 -0.1793 -0.3174 -0.1237
   46loPI   PO4  724   8.863  14.079  10.803  0.1340  0.0426  0.0422
   46loPI   GL1  725   8.914  14.073  10.399  0.0002 -0.0368 -0.2053
   46loPI   GL2  726   9.198  14.188  10.299 -0.2565 -0.2366  0.2491
   46loPI   C1A  727   8.679  13.896  10.092 -0.0028  0.0126  0.0301
   46loPI   C2A  728   8.703  13.773   9.627  0.2567 -0.1644  0.3877
   46loPI   C3A  729   8.642  13.817   9.149  0.0205  0.2366 -0.1360
   46loPI   C4A  730   8.572  13.901   8.805  0.0191 -0.0720  0.1022
   46loPI   C5A  731   8.541  14.008   8.401 -0.0582  0.1990 -0.0545
   46loPI   C6A  732   8.404  14.184   8.059 -0.0112 -0.1754 -0.0996
   46loPI   C1B  733   9.046  14.153   9.865 -0.1912 -0.3504 -0.1191
   46loPI   C2B  734   9.069  14.183   9.366 -0.3791  0.2167  0.0530
   46loPI   C3B  735   8.957  14.183   8.953 -0.1417 -0.0526  0.0494
   46loPI   C4B  736   8.984  14.173   8.550  0.0675 -0.1384 -0.3218
   47loPI    C1  737  12.895  10.889  10.565 -0.0222 -0.2214 -0.1183
   47loPI    C2  738  12.655  10.793  10.870 -0.2066  0.0741 -0.1665
   47loPI    C3  739  13.031  10.657  10.861 -0.1609  0.1576  0.2521
   47loPI   PO4  740  12.707  10.893  10.380  0.3563 -0.1283 -0.2694
   47loPI   GL1  741  12.578  11.143  10.243 -0.1208 -0.1328  0.2425
   47loPI   GL2  742  12.806  11.392  10.136  0.0673  0.1040 -0.0427
   47loPI   C1A  743  12.537  11.111   9.803  0.0317  0.1057 -0.0052
   47loPI   C2A  744  12.592  11.174   9.333  0.2433 -0.0028 -0.0392
   47loPI   C3A  745  12.598  11.145   8.879 -0.0371  0.1370  0.2790
   47loPI   C4A  746  12.570  11.186   8.363 -0.0748 -0.2034  0.1008
   47loPI   C5A  747  12.726  11.181   7.918  0.3149  0.0595  0.0671
   47loPI   C6A  748  12.745  11.128   7.531  0.2913  0.0396 -0.1068
   47loPI   C1B  749  12.941  11.478   9.750 -0.1480  0.1324  0.0114
   47loPI   C2B  750  12.984  11.426   9.318  0.0515 -0.2706  0.0080
   47loPI   C3B  751  13.032  11.444   8.927  0.1305  0.3301 -0.1884
   47loPI   C4B  752  12.992  11.381   8.548 -0.0334 -0.0738 -0.0749
   48loPI    C1  753   1.204   5.178  10.879  0.0800 -0.0590  0.1192
   48loPI    C2  754   1.341   4.847  11.057 -0.1102 -0.1265  0.1421
   48loPI    C3  755   1.236   5.164  11.278 -0.2043 -0.1564  0.1408
   48loPI   PO4  756   0.991   5.082  10.685  0.0492 -0.2413  0.2369
   48loPI   GL1  757   0.960   5.340  10.242 -0.2280 -0.1196  0.0884
   48loPI   GL2  758   0.788   5.558  10.137 -0.0431 -0.4026  0.3829
   48loPI   C1A  759   1.006   5.244   9.788  0.1305 -0.0345  0.1437
   48loPI   C2A  760   1.174   5.265   9.313  0.3914 -0.0889  0.5058
   48loPI   C3A  761   1.232   5.320   8.933  0.1058 -0.0784  0.3102
   48loPI   C4A  762   1.235   5.403   8.519  0.3323  0.1124 -0.0662
   48loPI   C5A  763   1.408   5.617   8.198  0.2046  0.0963 -0.1074
   48loPI   C6A  764   1.699   5.779   7.877  0.0510  0.2389  0.3533
   48loPI   C1B  765   0.775   5.688   9.794  0.0901 -0.0012 -0.1113
   48loPI   C2B  766   0.810   5.739   9.388 -0.0361 -0.1468  0.1712
   48loPI   C3B  767   0.918   5.832   8.948  0.1245  0.0309  0.0667
   48loPI   C4B  768   0.902   5.778   8.565 -0.0398 -0.1117  0.2524
   49loPI    C1  769  13.788  11.110  10.467 -0.1108 -0.1159  0.0614
   49loPI    C2  770  13.680  11.434  10.676 -0.1424 -0.1060  0.0302
   49loPI    C3  771  13.895  11.145  10.851  0.1322  0.0639 -0.0196
   49loPI   PO4  772  13.909  11.141  10.268  0.1856  0.0650  0.0308
   49loPI   GL1  773  13.942  11.254   9.877  0.1530  0.3138 -0.1285
   49loPI   GL2  774  13.836  11.585   9.705 -0.0078  0.0049  0.0212
   49loPI   C1A  775  13.939  11.173   9.426 -0.0928  0.0257  0.0467
   49loPI   C2A  776  13.920  11.137   9.024 -0.0278  0.2398  0.1106
   49loPI   C3A  777  13.985  11.133   8.493 -0.1479 -0.1920 -0.2510
   49loPI   C4A  778  13.995  11.163   8.096  0.1776 -0.5229 -0.1112
   49loPI   C5A  779  13.838  11.290   7.768 -0.0535 -0.1042 -0.1107
   49loPI   C6A  780  13.974  11.251   7.371  0.2777  0.1197  0.1959
   49loPI   C1B  781  13.928  11.674   9.253 -0.0441  0.2070 -0.0206
   49loPI   C2B  782  13.890  11.601   8.828  0.1490  0.2401 -0.2151
   49loPI   C3B  783  13.927  11.605   8.465  0.0492  0.2391  0.0246
   49loPI   C4B  784  13.787  11.689   8.078  0.2460 -0.1425 -0.1479
   50loPI    C1  785   1.372  17.258  10.720  0.2152  0.1882  0.2945
   50loPI    C2  786   1.616  16.960  10.829  0.0107 -0.0633  0.0786
   50loPI    C3  787   1.235  16.961  10.950 -0.0137  0.0631  0.0033
   50loPI   PO4  788   1.391  17.271  10.474 -0.1502  0.3934 -0.2343
   50loPI   GL1  789   1.491  17.432  10.130  0.1489  0.1316 -0.0402
   50loPI   GL2  790   1.805  17.339   9.975  0.2190 -0.1663 -0.0701
   50loPI   C1A  791   1.394  17.603   9.860  0.2587  0.2474 -0.1537
   50loPI   C2A  792   1.385  17.655   9.431 -0.1514 -0.1062  0.0996
   50loPI   C3A  793   1.228  17.693   9.006  0.3466 -0.2737 -0.4152
   50loPI   C4A  794   0.911  17.727   8.838  0.0672 -0.1518 -0.1714
   50loPI   C5A  795   0.831  17.882   8.538 -0.0274  0.4160  0.2239
   50loPI   C6A  796   0.602  17.942   8.279  0.1705 -0.1618  0.1139
   50loPI   C1B  797   1.789  17.367   9.502 -0.3143  0.2111  0.0906
   50loPI   C2B  798   1.718  17.401   9.057 -0.1771 -0.0641 -0.1024
   50loPI   C3B  799   1.559  17.390   8.636 -0.0673  0.2446 -0.0397
   50loPI   C4B  800   1.699  17.370   8.177  0.0017  0.4157 -0.2511
   51loPI    C1  801   3.001  14.124  11.305 -0.0433  0.1508  0.0022
   51loPI    C2  802   3.194  13.775  11.326 -0.0006  0.1473 -0.3745
   51loPI    C3  803   3.243  14.048  11.614  0.0601 -0.1066 -0.1393
   51loPI   PO4  804   2.811  14.054  11.017 -0.1589  0.1580 -0.0769
   51loPI   GL1  805   2.764  13.881  10.581 -0.0951 -0.2492  0.3128
   51loPI   GL2  806   2.678  13.542  10.455  0.0382  0.0975 -0.0635
   51loPI   C1A  807   2.716  13.898  10.088 -0.1515  0.2622 -0.0047
   51loPI   C2A  808   2.727  13.803   9.618  0.1300  0.2021  0.0068
   51loPI   C3A  809   2.690  13.644   9.215 -0.0473 -0.0957 -0.0217
   51loPI   C4A  810   2.693  13.573   8.771  0.2283  0.3514 -0.1824
   51loPI   C5A  811   2.924  13.383   8.407 -0.3741 -0.0163  0.1110
   51loPI   C6A  812   3.152  13.217   8.001 -0.0553 -0.0643  0.3491
   51loPI   C1B  813   2.795  13.367  10.151  0.2331 -0.1674 -0.0850
   51loPI   C2B  814   2.818  13.225   9.735  0.4118 -0.2832 -0.1120
   51loPI   C3B  815   3.083  13.504   9.462  0.0127 -0.2808 -0.0558
   51loPI   C4B  816   3.218  13.508   9.041 -0.2255  0.1878 -0.1008
   52loPI    C1  817  11.830   0.283  10.551 -0.2518  0.1735  0.0745
   52loPI    C2  818  12.112   0.244  10.832 -0.0662 -0.0430 -0.1370
   52loPI    C3  819  11.761   0.412  10.923  0.0911  0.1365  0.1546
   52loPI   PO4  820  12.000   0.145  10.370 -0.0449  0.0391 -0.1874
   52loPI   GL1  821  12.039   0.273  10.059 -0.5146  0.0714 -0.3065
   52loPI   GL2  822  12.373   0.157  10.076 -0.0981 -0.1608  0.0342
   52loPI   C1A  823  11.936   0.289   9.623 -0.2215  0.1341 -0.1673
   52loPI   C2A  824  11.956   0.333   9.153  0.0473  0.0895 -0.0492
   52loPI   C3A  825  12.018   0.283   8.707  0.0687  0.0385  0.0455
   52loPI   C4A  826  12.070   0.306   8.252 -0.2903  0.0845  0.4585
   52loPI   C5A  827  12.007   0.469   7.895  0.1245  0.0049  0.0361
   52loPI   C6A  828  11.809   0.435   7.544 -0.0526  0.1288 -0.1448
   52loPI   C1B  829  12.416   0.143   9.675  0.3759 -0.0076 -0.1916
   52loPI   C2B  830  12.415   0.215   9.199 -0.0765  0.0732  0.0429
   52loPI   C3B  831  12.519   0.143   8.703 -0.1341 -0.1129 -0.0607
   52loPI   C4B  832  12.365  -0.149   8.459  0.1012 -0.3275  0.1994
   53loPI    C1  833  11.918   6.542  10.091  0.2500 -0.0732  0.1308
   53loPI    C2  834  11.732   6.889  10.161  0.2532 -0.0419 -0.0143
   53loPI    C3  835  11.987   6.741  10.431  0.1307 -0.0113  0.1191
   53loPI   PO4  836  12.007   6.519   9.802  0.1485  0.0997 -0.1899
   53loPI   GL1  837  12.100   6.249   9.401 -0.0447  0.0401 -0.0497
   53loPI   GL2  838  11.721   6.253   9.434  0.0625  0.0763  0.0211
   53loPI   C1A  839  12.135   6.648   9.076  0.0302 -0.0072 -0.1629
   53loPI   C2A  840  12.263   6.862   8.758  0.0885 -0.2365  0.0612
   53loPI   C3A  841  12.346   6.859   8.369 -0.0999 -0.5863  0.2242
   53loPI   C4A  842  12.342   6.948   7.994 -0.0811 -0.0022 -0.0534
   53loPI   C5A  843  12.132   6.638   7.658 -0.2223  0.0347 -0.0477
   53loPI   C6A  844  12.198   6.286   7.401 -0.1653  0.2383  0.4638
   53loPI   C1B  845  11.602   5.796   9.315  0.0792 -0.2036  0.0283
   53loPI   C2B  846  11.261   5.687   9.124 -0.3163 -0.0087  0.0141
   53loPI   C3B  847  11.118   5.607   8.744  0.2321  0.1536  0.0359
   53loPI   C4B  848  11.318   5.321   8.402 -0.3071 -0.1027  0.1854
   54loPI    C1  849   7.555   4.548  10.821  0.0567  0.1367 -0.0193
   54loPI    C2  850   7.209   4.629  11.003  0.0740  0.0123  0.0702
   54loPI    C3  851   7.555   4.731  11.176  0.0920 -0.1451  0.1287
   54loPI   PO4  852   7.494   4.550  10.563  0.3655 -0.2172 -0.0495
   54loPI   GL1  853   7.537   4.334  10.251  0.2585 -0.1351  0.1277
   54loPI   GL2  854   7.237   4.387  10.117  0.2950 -0.2436 -0.2312
   54loPI   C1A  855   7.675   4.287   9.764  0.1213 -0.0203  0.0890
   54loPI   C2A  856   7.711   4.294   9.278 -0.0493 -0.1075 -0.1252
   54loPI   C3A  857   7.790   4.350   8.898  0.0029  0.1083 -0.1181
   54loPI   C4A  858   7.806   4.359   8.452 -0.3361  0.1729  0.3751
   54loPI   C5A  859   7.730   4.244   7.962  0.0419  0.0270  0.2579
   54loPI   C6A  860   7.621   3.965   7.701 -0.1206 -0.1462  0.2541
   54loPI   C1B  861   7.124   4.332   9.714 -0.0885 -0.0440  0.1847
   54loPI   C2B  862   7.211   4.283   9.322  0.3543  0.0043 -0.0567
   54loPI   C3B  863   7.325   4.257   8.909  0.0570  0.1543  0.2617
   54loPI   C4B  864   7.329   4.205   8.497 -0.0097  0.0568 -0.0453
   55loPI    C1  865  17.790  14.436  10.687  0.0895  0.0636 -0.1368
   55loPI    C2  866  17.479  14.191  10.634  0.2131 -0.1100 -0.0700
   55loPI    C3  867  17.460  14.482  10.908 -0.0043  0.0764 -0.2785
   55loPI   PO4  868  17.816  14.465  10.412  0.2211  0.0709  0.1299
   55loPI   GL1  869  17.472  14.548  10.094  0.3713 -0.1915  0.2145
   55loPI   GL2  870  17.103  14.734  10.029 -0.2441  0.2359 -0.4687
   55loPI   C1A  871  17.683  14.581   9.619  0.1642 -0.0211  0.1358
   55loPI   C2A  872  17.606  14.460   9.093 -0.0549 -0.2599 -0.1236
   55loPI   C3A  873  17.478  14.461   8.726  0.2673 -0.1692 -0.2970
   55loPI   C4A  874  17.494  14.332   8.303  0.0492  0.2526 -0.2375
   55loPI   C5A  875  17.567  14.675   8.018  0.0110  0.1132 -0.1167
   55loPI   C6A  876  17.502  14.998   7.815  0.0682 -0.3115  0.1025
   55loPI   C1B  877  17.197  14.813   9.692 -0.0952  0.0353  0.3037
   55loPI   C2B  878  17.181  14.691   9.314  0.1451 -0.4795 -0.2110
   55loPI   C3B  879  17.029  14.716   8.957  0.0271  0.1520 -0.0217
   55loPI   C4B  880  16.983  14.508   8.634 -0.0226  0.4171  0.3351
   56loPI    C1  881   1.706   3.781  10.769  0.1383  0.1461  0.0875
   56loPI    C2  882   1.607   3.506  11.042 -0.1276  0.0977 -0.0538
   56loPI    C3  883   1.611   3.893  11.141 -0.0127  0.0647  0.0744
   56loPI   PO4  884   1.866   3.671  10.634 -0.0182  0.0085 -0.1573
   56loPI   GL1  885   2.063   3.671  10.194  0.1287  0.1514 -0.1318
   56loPI   GL2  886   2.342   3.428  10.189 -0.1595  0.1273  0.1461
   56loPI   C1A  887   1.865   3.461   9.854  0.0354 -0.0781  0.0604
   56loPI   C2A  888   1.903   3.530   9.476 -0.0118  0.0893  0.1231
   56loPI   C3A  889   1.902   3.608   9.045  0.0026 -0.2622 -0.0776
   56loPI   C4A  890   1.977   3.587   8.527  0.0129  0.0552  0.2296
   56loPI   C5A  891   1.745   3.520   8.135 -0.0528 -0.1169  0.1654
   56loPI   C6A  892   1.422   3.380   7.855  0.1733  0.0568 -0.0784
   56loPI   C1B  893   2.524   3.578   9.813  0.0317  0.1620 -0.0549
   56loPI   C2B  894   2.483   3.685   9.371  0.0792  0.2201 -0.1377
   56loPI   C3B  895   2.427   3.742   8.991  0.0207 -0.2138  0.2108
   56loPI   C4B  896   2.473   3.650   8.571 -0.3026  0.0312  0.1591
   57loPI    C1  897   1.214   9.996  11.172 -0.2033 -0.0785  0.0091
   57loPI    C2  898   0.947  10.126  10.904 -0.1925 -0.4012 -0.1639
   57loPI    C3  899   0.838  10.071  11.285 -0.1215  0.3904 -0.0125
   57loPI   PO4  900   1.342   9.837  10.969 -0.2521  0.2521 -0.0791
   57loPI   GL1  901   1.397   9.767  10.548 -0.0849 -0.3244 -0.1715
   57loPI   GL2  902   1.227  10.039  10.495  0.0905 -0.0618  0.0022
   57loPI   C1A  903   1.567   9.873  10.135 -0.1855  0.1449 -0.0004
   57loPI   C2A  904   1.688   9.826   9.693  0.0263  0.0852 -0.3733
   57loPI   C3A  905   1.697   9.849   9.361  0.0213  0.0271 -0.0342
   57loPI   C4A  906   1.660   9.767   9.012 -0.0725 -0.0224 -0.2013
   57loPI   C5A  907   1.837   9.869   8.574  0.0984  0.0032  0.2122
   57loPI   C6A  908   1.971   9.860   8.142 -0.1196 -0.0582  0.2248
   57loPI   C1B  909   1.255  10.299  10.187  0.0247 -0.1656  0.0010
   57loPI   C2B  910   1.300  10.268   9.808  0.1824  0.0300 -0.0553
   57loPI   C3B  911   1.303  10.243   9.356 -0.3218  0.2162 -0.1672
   57loPI   C4B  912   1.132  10.326   9.000 -0.1129 -0.1335  0.2380
   58loPI    C1  913   9.275  11.440  10.962  0.1572 -0.1251 -0.1191
   58loPI    C2  914   8.928  11.634  10.924  0.1313 -0.1931 -0.2319
   58loPI    C3  915   9.017  11.450  11.268  0.1397 -0.0147 -0.1374
   58loPI   PO4  916   9.315  11.269  10.800 -0.0782 -0.3975  0.0066
   58loPI   GL1  917   9.278  11.296  10.415 -0.2447  0.1357 -0.1777
   58loPI   GL2  918   8.966  11.430  10.467 -0.2208 -0.0105 -0.2993
   58loPI   C1A  919   9.416  11.194   9.940  0.1372 -0.0405 -0.0534
   58loPI   C2A  920   9.803  11.118   9.668 -0.4067 -0.0956  0.2522
   58loPI   C3A  921  10.180  11.012   9.385 -0.0958  0.0796  0.3542
   58loPI   C4A  922  10.308  11.070   8.948  0.0151 -0.0158 -0.3725
   58loPI   C5A  923  10.382  11.219   8.541 -0.2800 -0.3507 -0.0280
   58loPI   C6A  924  10.752  11.185   8.309 -0.2625 -0.1415 -0.2345
   58loPI   C1B  925   8.835  11.327   9.968 -0.3601  0.1644 -0.1999
   58loPI   C2B  926   8.750  11.391   9.587  0.3071 -0.0015  0.1130
   58loPI   C3B  927   8.888  11.430   9.181 -0.0333 -0.1324 -0.0294
   58loPI   C4B  928   9.310  11.613   9.055  0.2149  0.1081 -0.1003
   59loPI    C1  929  15.017  12.804  10.847 -0.0282 -0.0850 -0.0952
   59loPI    C2  930  14.974  12.465  11.055 -0.0182 -0.0548 -0.0440
   59loPI    C3  931  14.920  12.818  11.234 -0.0571 -0.0300 -0.1043
   59loPI   PO4  932  15.114  12.664  10.615  0.0841  0.0607  0.2264
   59loPI   GL1  933  14.998  12.793  10.276 -0.0092  0.1966  0.0824
   59loPI   GL2  934  15.399  12.725  10.147  0.1211 -0.0954 -0.3524
   59loPI   C1A  935  15.056  12.613   9.808  0.0796  0.0547  0.0711
   59loPI   C2A  936  15.154  12.595   9.411  0.1545 -0.0129  0.1513
   59loPI   C3A  937  15.130  12.617   8.997 -0.2106 -0.0447 -0.0121
   59loPI   C4A  938  15.129  12.684   8.534 -0.2821 -0.0113  0.0114
   59loPI   C5A  939  15.054  12.850   8.130 -0.0074 -0.2189 -0.1778
   59loPI   C6A  940  14.914  13.234   8.016 -0.0626  0.2073  0.1648
   59loPI   C1B  941  15.472  12.843   9.679 -0.0103  0.0904  0.3784
   59loPI   C2B  942  15.567  12.913   9.214 -0.0568 -0.0386 -0.0095
   59loPI   C3B  943  15.537  12.855   8.730  0.0574  0.0969  0.1254
   59loPI   C4B  944  15.571  13.006   8.386 -0.0525  0.1593  0.0709
   60loPI    C1  945  18.303  16.130  10.506 -0.0464 -0.1461  0.1035
   60loPI    C2  946  18.329  16.472  10.711 -0.0282 -0.1347  0.0825
   60loPI    C3  947  18.636  16.350  10.486  0.0635 -0.2915  0.2892
   60loPI   PO4  948  18.073  16.184  10.384 -0.2066  0.2075 -0.2846
   60loPI   GL1  949  18.039  16.073  10.085 -0.2289  0.2587  0.1917
   60loPI   GL2  950  18.266  16.229   9.880  0.0403 -0.0814  0.0287
   60loPI   C1A  951  17.872  15.953   9.719  0.0302  0.0625  0.3283
   60loPI   C2A  952  17.939  15.838   9.254 -0.0173  0.0779 -0.1453
   60loPI   C3A  953  17.873  15.769   8.806 -0.0080 -0.2181  0.2296
   60loPI   C4A  954  17.823  15.922   8.420 -0.2889 -0.0032  0.0493
   60loPI   C5A  955  17.876  16.183   8.020  0.1043  0.2664  0.0241
   60loPI   C6A  956  18.135  16.402   7.799 -0.1220  0.1130  0.1949
   60loPI   C1B  957  18.281  16.168   9.426  0.0278 -0.1201  0.0593
   60loPI   C2B  958  18.284  16.111   9.041 -0.1325 -0.0755  0.1261
   60loPI   C3B  959  18.258  16.013   8.633  0.1756 -0.0263  0.0445
   60loPI   C4B  960  18.267  16.220   8.270 -0.0743  0.1466  0.0288
   61loPI    C1  961   2.475   9.104  11.113  0.0754  0.1833 -0.0123
   61loPI    C2  962   2.091   9.096  11.227  0.0433 -0.3567 -0.1308
   61loPI    C3  963   2.381   9.046  11.497  0.0322 -0.0171 -0.0516
   61loPI   PO4  964   2.467   8.986  10.925  0.2389 -0.0402 -0.0186
   61loPI   GL1  965   2.754   8.857  10.534 -0.2709  0.1932  0.4225
   61loPI   GL2  966   2.897   8.677  10.345 -0.1687  0.0494 -0.2790
   61loPI   C1A  967   2.729   9.042  10.111  0.0038 -0.0139  0.2462
   61loPI   C2A  968   2.811   9.096   9.758 -0.2534 -0.1539 -0.1395
   61loPI   C3A  969   2.878   9.111   9.323  0.0354 -0.0520 -0.2190
   61loPI   C4A  970   2.996   9.234   8.895 -0.1228 -0.1772  0.1268
   61loPI   C5A  971   3.051   9.192   8.520 -0.2487  0.0443 -0.0671
   61loPI   C6A  972   3.350   9.332   8.137  0.2497 -0.1079  0.1606
   61loPI   C1B  973   3.096   8.762   9.965  0.0354  0.1989  0.1412
   61loPI   C2B  974   3.039   8.718   9.503 -0.2839  0.0037  0.2876
   61loPI   C3B  975   3.161   8.781   9.025  0.1582 -0.1059 -0.2679
   61loPI   C4B  976   3.333   8.668   8.540  0.0466  0.0113  0.0286
   62loPI    C1  977   8.934  12.586  10.900 -0.0355  0.4061  0.2178
   62loPI    C2  978   9.282  12.391  10.935 -0.0820  0.2704 -0.0504
   62loPI    C3  979   8.937  12.202  11.010 -0.1011  0.3991  0.1959
   62loPI   PO4  980   8.820  12.689  10.627  0.0167  0.1807  0.3769
   62loPI   GL1  981   8.594  12.869  10.353 -0.0448 -0.1123  0.1444
   62loPI   GL2  982   8.536  13.213  10.370  0.2258  0.1160 -0.1687
   62loPI   C1A  983   8.622  12.852   9.938 -0.0320 -0.1075  0.1572
   62loPI   C2A  984   8.681  12.786   9.533 -0.1651 -0.1289  0.2095
   62loPI   C3A  985   8.739  12.821   9.114 -0.2379  0.1891 -0.2258
   62loPI   C4A  986   8.849  12.866   8.720 -0.0992  0.1187  0.0390
   62loPI   C5A  987   8.840  12.602   8.397  0.0831  0.1202 -0.3689
   62loPI   C6A  988   8.923  12.135   8.349  0.0594 -0.1718  0.0858
   62loPI   C1B  989   8.580  13.343  10.013 -0.2825  0.0473  0.2216
   62loPI   C2B  990   8.672  13.271   9.619 -0.1006  0.3010  0.0879
   62loPI   C3B  991   8.674  13.333   9.185 -0.0358  0.2845 -0.1757
   62loPI   C4B  992   8.755  13.337   8.722  0.0232  0.0870 -0.3667
   63loPI    C1  993  13.230   5.042  10.127 -0.0275 -0.0640 -0.0775
   63loPI    C2  994  13.594   4.876  10.125  0.0700  0.1387  0.1927
   63loPI    C3  995  13.294   4.697  10.321  0.0218 -0.0272 -0.0282
   63loPI   PO4  996  13.110   5.087   9.858 -0.0111 -0.1837 -0.0374
   63loPI   GL1  997  13.172   5.118   9.405 -0.2373  0.3328 -0.1419
   63loPI   GL2  998  13.488   5.037   9.262  0.1599  0.1079  0.0281
   63loPI   C1A  999  12.970   4.963   9.055 -0.0047  0.1014 -0.3102
   63loPI   C2A 1000  12.808   4.889   8.559  0.0593  0.0016 -0.0165
   63loPI   C3A 1001  12.535   4.847   8.355 -0.1537  0.0868  0.3291
   63loPI   C4A 1002  12.397   4.536   8.108 -0.1476 -0.0492  0.2148
   63loPI   C5A 1003  12.171   4.218   7.940 -0.0971  0.0633 -0.5523
   63loPI   C6A 1004  11.946   4.062   7.670 -0.2772  0.2923  0.0595
   63loPI   C1B 1005  13.580   5.000   8.861 -0.0234 -0.1954  0.5276
   63loPI   C2B 1006  13.950   4.905   8.575 -0.1631 -0.2330  0.1551
   63loPI   C3B 1007  14.041   4.777   8.171 -0.0634  0.1253  0.0996
   63loPI   C4B 1008  14.020   4.665   7.681 -0.0006  0.2655 -0.0369
   64loPI    C1 1009   0.598  10.523  11.209 -0.0191  0.2367 -0.0953
   64loPI    C2 1010   0.850  10.756  11.415  0.2051 -0.0987  0.0193
   64loPI    C3 1011   0.710  10.419  11.579 -0.3194  0.0774 -0.0460
   64loPI   PO4 1012   0.676  10.548  10.992 -0.0221  0.0874 -0.0229
   64loPI   GL1 1013   0.855  10.486  10.481  0.0845 -0.0114  0.1809
   64loPI   GL2 1014   0.602  10.631  10.283 -0.1814 -0.2795 -0.1635
   64loPI   C1A 1015   0.968  10.669   9.942  0.1740  0.0053  0.0437
   64loPI   C2A 1016   1.100  10.700   9.510 -0.0453  0.0872  0.1849
   64loPI   C3A 1017   1.091  10.840   9.093  0.0085 -0.0751 -0.3096
   64loPI   C4A 1018   1.198  10.808   8.694  0.0548  0.0589 -0.0890
   64loPI   C5A 1019   1.231  10.466   8.466  0.1188  0.2018 -0.1140
   64loPI   C6A 1020   0.986  10.211   8.153  0.1279  0.1870 -0.1845
   64loPI   C1B 1021   0.508  10.583   9.814 -0.1354  0.0113  0.0497
   64loPI   C2B 1022   0.213  10.706   9.503  0.3201 -0.0843 -0.1158
   64loPI   C3B 1023   0.247  10.739   9.078 -0.3023 -0.1913  0.2759
   64loPI   C4B 1024   0.238  10.691   8.663 -0.0598  0.3463 -0.0374
   65loPI    C1 1025  17.948   4.074  10.481  0.0785 -0.1825  0.0511
   65loPI    C2 1026  18.211   4.371  10.535 -0.1534  0.0270  0.0509
   65loPI    C3 1027  18.292   4.004  10.672  0.0173  0.1532  0.2956
   65loPI   PO4 1028  17.822   4.011  10.224 -0.1431  0.2948 -0.1621
   65loPI   GL1 1029  17.880   4.176   9.768  0.2041 -0.4343 -0.1486
   65loPI   GL2 1030  18.049   3.965   9.766 -0.0739  0.2618 -0.0420
   65loPI   C1A 1031  18.228   4.357   9.524  0.2803 -0.0746 -0.2261
   65loPI   C2A 1032  18.553   4.310   9.212 -0.2068  0.0393  0.0074
   65loPI   C3A 1033  18.648   4.390   8.812 -0.0181  0.1937 -0.0025
   65loPI   C4A 1034  18.469   4.445   8.421  0.0276 -0.0815  0.0406
   65loPI   C5A 1035  18.582   4.461   8.080 -0.2355 -0.0015  0.1832
   65loPI   C6A 1036  18.652   4.680   7.661  0.1412 -0.0499 -0.3041
   65loPI   C1B 1037  18.293   3.811   9.377 -0.3100  0.1941 -0.0653
   65loPI   C2B 1038  18.439   3.823   9.007  0.1394 -0.1720  0.0512
   65loPI   C3B 1039  18.291   3.878   8.611  0.2801 -0.0965 -0.0872
   65loPI   C4B 1040  18.048   4.098   8.345 -0.2375 -0.0467 -0.2652
   66loPI    C1 1041  15.938  13.933  10.787  0.2156  0.0625 -0.1375
   66loPI    C2 1042  16.025  14.117  11.131 -0.0420  0.0258 -0.0504
   66loPI    C3 1043  16.040  13.718  11.109 -0.2451  0.0154 -0.0164
   66loPI   PO4 1044  16.029  14.020  10.600 -0.1181 -0.0598 -0.1802
   66loPI   GL1 1045  15.910  14.090  10.229 -0.0724 -0.0932 -0.1600
   66loPI   GL2 1046  16.037  13.791  10.186  0.1286  0.2045  0.0888
   66loPI   C1A 1047  15.961  14.324   9.842 -0.1826  0.0073 -0.0556
   66loPI   C2A 1048  15.788  14.240   9.500  0.1936 -0.0590  0.0063
   66loPI   C3A 1049  15.936  14.396   9.270 -0.1456  0.0722  0.1100
   66loPI   C4A 1050  16.141  14.541   8.940  0.1752  0.1842  0.0542
   66loPI   C5A 1051  16.082  14.557   8.424  0.1876  0.2543 -0.0002
   66loPI   C6A 1052  15.799  14.393   8.028 -0.0675 -0.3273  0.1120
   66loPI   C1B 1053  15.890  13.720   9.675  0.0646  0.1831 -0.0063
   66loPI   C2B 1054  15.800  13.736   9.253 -0.0011 -0.2497  0.0674
   66loPI   C3B 1055  15.725  13.994   8.958  0.0024  0.0054 -0.0120
   66loPI   C4B 1056  15.671  14.317   8.797 -0.4230 -0.2463  0.0691
   67loPI    C1 1057   7.545  13.797  11.119  0.0211 -0.0357 -0.2605
   67loPI    C2 1058   7.216  13.738  11.340  0.0003 -0.0105 -0.2846
   67loPI    C3 1059   7.543  13.517  11.405  0.0317  0.0735 -0.1521
   67loPI   PO4 1060   7.474  13.824  10.865  0.0492 -0.2304 -0.0454
   67loPI   GL1 1061   7.357  13.941  10.526 -0.4243 -0.1335  0.0476
   67loPI   GL2 1062   7.190  13.978  10.285  0.0283 -0.0528 -0.1906
   67loPI   C1A 1063   7.697  13.811  10.155  0.0833  0.0006  0.0833
   67loPI   C2A 1064   7.752  13.749   9.677  0.0289  0.0028  0.0353
   67loPI   C3A 1065   7.825  13.799   9.199 -0.0365 -0.0129 -0.2609
   67loPI   C4A 1066   7.717  13.713   8.819 -0.1392 -0.0322  0.1187
   67loPI   C5A 1067   7.550  13.576   8.394  0.2720  0.0746 -0.0306
   67loPI   C6A 1068   7.039  13.441   8.252 -0.1320  0.0581 -0.0283
   67loPI   C1B 1069   7.305  13.925   9.873  0.0562  0.0489  0.1767
   67loPI   C2B 1070   7.272  13.582   9.532 -0.0824  0.2032 -0.2035
   67loPI   C3B 1071   7.284  13.369   9.202  0.1916 -0.1803 -0.1101
   67loPI   C4B 1072   7.341  13.380   8.813 -0.0348 -0.1257 -0.0552
   68loPI    C1 1073   3.498  10.381  10.377  0.2412  0.0382  0.0649
   68loPI    C2 1074   3.206  10.430  10.646  0.1102 -0.1746 -0.0358
   68loPI    C3 1075   3.577  10.345  10.767  0.1131  0.0111  0.0890
   68loPI   PO4 1076   3.516  10.602  10.283  0.0605  0.2287  0.2801
   68loPI   GL1 1077   3.429  10.576   9.798  0.2137 -0.2024 -0.1124
   68loPI   GL2 1078   3.609  10.877   9.861 -0.0932 -0.0812  0.1389
   68loPI   C1A 1079   3.436  10.694   9.376  0.1592 -0.1363  0.0461
   68loPI   C2A 1080   3.579  10.885   9.021  0.2981 -0.1146  0.0471
   68loPI   C3A 1081   3.557  11.133   8.677 -0.1709  0.0792  0.0090
   68loPI   C4A 1082   3.520  11.188   8.229 -0.0190  0.1514 -0.2415
   68loPI   C5A 1083   3.255  11.127   7.942  0.0774 -0.2184  0.0292
   68loPI   C6A 1084   2.896  10.968   7.637 -0.0930 -0.2354 -0.0191
   68loPI   C1B 1085   3.863  11.050   9.529  0.0929  0.3291  0.1239
   68loPI   C2B 1086   3.923  11.279   9.131  0.2228  0.2654 -0.3982
   68loPI   C3B 1087   3.878  11.571   8.828  0.2060  0.1151  0.1057
   68loPI   C4B 1088   4.119  11.883   8.641 -0.1452 -0.4483  0.2165
   69loPI    C1 1089   8.675  16.204  10.707  0.2843 -0.0866  0.1908
   69loPI    C2 1090   8.838  16.567  10.665  0.1704 -0.0508  0.0541
   69loPI    C3 1091   8.643  16.473  11.002  0.1027  0.0538  0.0446
   69loPI   PO4 1092   8.541  16.202  10.466  0.1407  0.0590  0.0472
   69loPI   GL1 1093   8.673  16.354  10.247  0.0760 -0.3455 -0.0302
   69loPI   GL2 1094   8.730  16.664  10.154  0.0307  0.0751 -0.0624
   69loPI   C1A 1095   8.826  16.105   9.943 -0.1113  0.0539 -0.0112
   69loPI   C2A 1096   8.790  16.123   9.522  0.0949 -0.1449 -0.2219
   69loPI   C3A 1097   8.855  16.073   9.092 -0.0804  0.1754  0.0738
   69loPI   C4A 1098   8.778  16.098   8.706  0.1494  0.1149 -0.2661
   69loPI   C5A 1099   8.934  15.990   8.347  0.0093  0.0399 -0.1873
   69loPI   C6A 1100   9.279  15.956   8.065 -0.1064  0.2307  0.2528
   69loPI   C1B 1101   8.698  16.563   9.787 -0.0057  0.0100 -0.0460
   69loPI   C2B 1102   8.798  16.575   9.333  0.0135  0.0457  0.0179
   69loPI   C3B 1103   8.807  16.545   8.930  0.0736 -0.1024 -0.0620
   69loPI   C4B 1104   8.751  16.505   8.436 -0.2827 -0.2780  0.2782
   70loPI    C1 1105  14.907  15.270  10.950 -0.1555  0.3959 -0.2726
   70loPI    C2 1106  15.302  15.336  10.948 -0.0740 -0.0337  0.0594
   70loPI    C3 1107  15.060  15.573  11.161  0.0299  0.0983  0.0316
   70loPI   PO4 1108  14.875  15.150  10.650  0.1658 -0.2487 -0.0431
   70loPI   GL1 1109  14.946  15.075  10.150 -0.1757  0.0390  0.0965
   70loPI   GL2 1110  15.236  14.936  10.068  0.0560 -0.0433  0.1744
   70loPI   C1A 1111  14.783  15.107   9.732 -0.1219 -0.0061  0.1117
   70loPI   C2A 1112  14.758  15.143   9.231  0.0646 -0.2374 -0.1302
   70loPI   C3A 1113  14.770  15.185   8.888  0.1899  0.0693 -0.1233
   70loPI   C4A 1114  14.753  15.206   8.525  0.1358 -0.0618  0.0908
   70loPI   C5A 1115  14.581  15.097   8.096 -0.0512  0.2908 -0.2549
   70loPI   C6A 1116  14.304  14.752   7.838  0.0149 -0.0347 -0.1080
   70loPI   C1B 1117  15.184  14.908   9.602 -0.2610 -0.1452 -0.4504
   70loPI   C2B 1118  15.174  14.883   9.150  0.1504  0.2255 -0.1798
   70loPI   C3B 1119  15.166  15.004   8.673  0.3087  0.1869  0.0315
   70loPI   C4B 1120  15.164  15.033   8.224 -0.1704  0.0191 -0.2495
   71loPI    C1 1121  16.476   5.510   9.904 -0.2056 -0.2178  0.0097
   71loPI    C2 1122  16.733   5.515  10.210 -0.0675  0.0421 -0.1077
   71loPI    C3 1123  16.376   5.341  10.253 -0.0532  0.0824  0.2032
   71loPI   PO4 1124  16.678   5.425   9.716 -0.3189 -0.2506 -0.0229
   71loPI   GL1 1125  16.573   5.153   9.446  0.1518  0.0540 -0.0534
   71loPI   GL2 1126  16.284   5.089   9.571  0.3632 -0.0969 -0.1253
   71loPI   C1A 1127  16.769   4.999   9.175 -0.1123 -0.0927  0.1834
   71loPI   C2A 1128  16.842   4.675   8.933  0.1106  0.0010  0.1576
   71loPI   C3A 1129  16.953   4.337   8.863 -0.1193  0.1143  0.0873
   71loPI   C4A 1130  16.996   4.215   8.557 -0.1710 -0.1795 -0.1532
   71loPI   C5A 1131  16.805   4.016   8.230 -0.0371 -0.0619 -0.1122
   71loPI   C6A 1132  16.782   4.167   7.824  0.1094 -0.2146  0.0947
   71loPI   C1B 1133  16.168   5.202   9.156 -0.0148 -0.2157  0.1130
   71loPI   C2B 1134  16.139   5.442   8.833 -0.3417  0.3611 -0.1168
   71loPI   C3B 1135  16.219   5.387   8.419  0.0102  0.2243 -0.2057
   71loPI   C4B 1136  16.481   5.347   8.110  0.0452 -0.0146  0.1780
   72loPI    C1 1137   0.127   6.671  10.804 -0.0294  0.1840  0.0753
   72loPI    C2 1138   0.242   6.671  11.187  0.0595  0.0258  0.0494
   72loPI    C3 1139   0.038   6.360  11.039  0.1048  0.0453 -0.0553
   72loPI   PO4 1140   0.264   6.936  10.646  0.1013  0.2756 -0.0634
   72loPI   GL1 1141   0.361   7.022  10.230 -0.0838  0.0835  0.1327
   72loPI   GL2 1142   0.078   6.780  10.240 -0.0028 -0.1270  0.1787
   72loPI   C1A 1143   0.654   6.693  10.032  0.3487 -0.2193  0.1621
   72loPI   C2A 1144   0.658   6.629   9.574 -0.0516 -0.1707  0.1868
   72loPI   C3A 1145   0.756   6.634   9.141  0.2098  0.0458 -0.4444
   72loPI   C4A 1146   0.856   6.690   8.726 -0.1553 -0.1760  0.3143
   72loPI   C5A 1147   0.812   6.644   8.297 -0.0140 -0.2361  0.1136
   72loPI   C6A 1148   0.707   6.983   8.056  0.3169  0.1142  0.0445
   72loPI   C1B 1149   0.209   6.899   9.765 -0.2296 -0.0527 -0.1621
   72loPI   C2B 1150   0.401   7.082   9.430 -0.0865  0.2624  0.0801
   72loPI   C3B 1151   0.501   7.043   8.976  0.1437 -0.0505  0.2156
   72loPI   C4B 1152   0.491   7.199   8.572 -0.0521 -0.0170  0.4022
   73loPI    C1 1153   8.365  13.272  10.840 -0.2036 -0.0679 -0.1719
   73loPI    C2 1154   8.506  13.503  11.134 -0.0574  0.0810 -0.3563
   73loPI    C3 1155   8.336  13.151  11.220  0.3340 -0.0567 -0.1199
   73loPI   PO4 1156   8.203  13.475  10.694 -0.4401  0.2904 -0.3211
   73loPI   GL1 1157   8.020  13.460  10.366 -0.0476  0.0202  0.0230
   73loPI   GL2 1158   8.230  13.740  10.308 -0.0642  0.3842  0.0219
   73loPI   C1A 1159   8.117  13.551   9.932 -0.0155  0.1687  0.1180
   73loPI   C2A 1160   8.231  13.535   9.499  0.0770 -0.0876  0.0554
   73loPI   C3A 1161   8.205  13.558   8.981 -0.0790  0.1149  0.0567
   73loPI   C4A 1162   8.154  13.720   8.527  0.0646  0.0046  0.3601
   73loPI   C5A 1163   8.003  13.797   8.176 -0.4573  0.1073 -0.0433
   73loPI   C6A 1164   7.709  14.016   8.136 -0.1652  0.0088  0.2698
   73loPI   C1B 1165   8.203  14.037   9.878 -0.0746 -0.0272  0.0318
   73loPI   C2B 1166   8.201  14.041   9.418 -0.1175  0.0469  0.0662
   73loPI   C3B 1167   8.064  14.084   8.884  0.0162 -0.1841  0.1035
   73loPI   C4B 1168   8.105  14.215   8.454 -0.2110 -0.1107  0.3833
   74loPI    C1 1169  10.763   4.850  10.133 -0.0107  0.0799  0.1801
   74loPI    C2 1170  11.047   5.127  10.085  0.1633 -0.1343 -0.0541
   74loPI    C3 1171  11.059   4.881  10.400  0.1352 -0.0253  0.0327
   74loPI   PO4 1172  10.543   4.979   9.994 -0.0518 -0.1330  0.2037
   74loPI   GL1 1173  10.276   4.796   9.684 -0.1787  0.1338  0.0549
   74loPI   GL2 1174  10.453   5.114   9.523  0.1065  0.0357  0.1533
   74loPI   C1A 1175  10.169   4.646   9.258  0.2519  0.0174 -0.1581
   74loPI   C2A 1176  10.169   4.916   8.978 -0.0282 -0.0265  0.1593
   74loPI   C3A 1177  10.448   5.014   8.585  0.0329 -0.2607 -0.1723
   74loPI   C4A 1178  10.806   5.303   8.403  0.2052  0.1410  0.2015
   74loPI   C5A 1179  10.837   5.437   7.971 -0.2541  0.0518  0.0966
   74loPI   C6A 1180  10.784   5.443   7.533 -0.0343  0.0260 -0.1070
   74loPI   C1B 1181  10.630   4.868   9.111  0.1257 -0.0191 -0.2831
   74loPI   C2B 1182  10.548   4.562   8.836  0.1031 -0.2177 -0.2799
   74loPI   C3B 1183  10.588   4.466   8.373 -0.2032 -0.1252  0.1759
   74loPI   C4B 1184  10.475   4.426   7.894 -0.2291 -0.2173  0.3654
   75loPI    C1 1185   8.934  17.551  10.472  0.1602 -0.0702  0.1087
   75loPI    C2 1186   9.033  17.553  10.860 -0.3075 -0.0863  0.2347
   75loPI    C3 1187   8.651  17.509  10.751 -0.2154  0.1729 -0.2241
   75loPI   PO4 1188   9.115  17.426  10.363  0.0618  0.2213  0.1183
   75loPI   GL1 1189   9.239  17.241  10.073  0.1733 -0.0945  0.1219
   75loPI   GL2 1190   9.445  17.473   9.894  0.0438 -0.1515  0.1921
   75loPI   C1A 1191   9.206  16.998   9.767  0.2024 -0.0399  0.0045
   75loPI   C2A 1192   9.087  16.995   9.434 -0.0550  0.3106 -0.2034
   75loPI   C3A 1193   9.066  16.972   9.072  0.0119 -0.4770 -0.2003
   75loPI   C4A 1194   8.998  17.010   8.671 -0.1125 -0.1085 -0.1820
   75loPI   C5A 1195   9.025  16.943   8.268 -0.1843  0.3371 -0.0254
   75loPI   C6A 1196   8.770  16.826   7.870 -0.2250  0.0028 -0.1027
   75loPI   C1B 1197   9.324  17.452   9.524 -0.1659  0.0878  0.1663
   75loPI   C2B 1198   9.233  17.450   9.234 -0.0571 -0.5372  0.0111
   75loPI   C3B 1199   9.268  17.382   8.827 -0.2631  0.3286 -0.1340
   75loPI   C4B 1200   9.190  17.399   8.384  0.0757  0.0111 -0.2122
   76loPI    C1 1201  12.902   4.573  10.049 -0.0241  0.2403 -0.0028
   76loPI    C2 1202  12.584   4.375  10.188  0.0562  0.1284  0.0239
   76loPI    C3 1203  12.547   4.755  10.069 -0.0877  0.1146  0.0223
   76loPI   PO4 1204  12.996   4.454   9.794 -0.0803  0.0119 -0.1001
   76loPI   GL1 1205  13.084   4.473   9.360 -0.1732  0.0690  0.1050
   76loPI   GL2 1206  12.856   4.528   9.186  0.2165  0.1328 -0.2799
   76loPI   C1A 1207  13.243   4.090   9.044 -0.1704 -0.3652 -0.0318
   76loPI   C2A 1208  13.360   4.086   8.673 -0.2528  0.0685 -0.1013
   76loPI   C3A 1209  13.379   4.331   8.275  0.1885  0.2490 -0.2429
   76loPI   C4A 1210  13.528   4.595   7.874 -0.0443  0.2132 -0.1355
   76loPI   C5A 1211  13.392   5.020   7.622 -0.0507 -0.0496 -0.0283
   76loPI   C6A 1212  13.070   5.236   7.726 -0.0410 -0.1845  0.1472
   76loPI   C1B 1213  13.166   4.609   8.816 -0.1953  0.0296 -0.0799
   76loPI   C2B 1214  13.277   4.733   8.505 -0.1959 -0.3823 -0.2005
   76loPI   C3B 1215  13.062   4.810   8.060  0.2041 -0.3586  0.2234
   76loPI   C4B 1216  12.697   4.922   7.910 -0.0346  0.3501 -0.3442
   77loPI    C1 1217   0.653  11.051  10.700  0.2022 -0.0779  0.0642
   77loPI    C2 1218   0.765  11.148  11.072  0.2474  0.0804  0.0101
   77loPI    C3 1219   0.986  10.894  10.856  0.2668  0.0542  0.0605
   77loPI   PO4 1220   0.585  11.283  10.616  0.2757 -0.4736 -0.2621
   77loPI   GL1 1221   0.525  11.288  10.246  0.2607  0.0462  0.3435
   77loPI   GL2 1222   0.735  11.568  10.132 -0.4667  0.0292  0.1127
   77loPI   C1A 1223   0.672  11.085   9.839  0.6033 -0.2184 -0.1696
   77loPI   C2A 1224   0.648  10.950   9.393  0.1072 -0.1720  0.1836
   77loPI   C3A 1225   0.657  11.051   8.978  0.1248  0.2003  0.2589
   77loPI   C4A 1226   0.775  10.930   8.479 -0.0386  0.2584 -0.0853
   77loPI   C5A 1227   0.660  11.138   8.160 -0.1520  0.4311 -0.2216
   77loPI   C6A 1228   0.395  11.468   8.107 -0.2433  0.0404 -0.1180
   77loPI   C1B 1229   0.837  11.574   9.726  0.1226  0.1623  0.0791
   77loPI   C2B 1230   0.549  11.516   9.440 -0.1506  0.1484 -0.0918
   77loPI   C3B 1231   0.618  11.564   9.017  0.0633  0.0649 -0.1556
   77loPI   C4B 1232   0.536  11.564   8.588  0.1796 -0.1069  0.2776
   78loPI    C1 1233   1.038   1.185  10.404  0.1818  0.1414 -0.1688
   78loPI    C2 1234   1.267   0.881  10.281  0.1751  0.1313 -0.1565
   78loPI    C3 1235   1.204   0.937  10.672  0.0437  0.0513 -0.1656
   78loPI   PO4 1236   0.872   1.194  10.260 -0.4014  0.1813  0.1182
   78loPI   GL1 1237   0.728   0.890   9.931  0.0373  0.1875  0.0008
   78loPI   GL2 1238   0.884   0.475   9.953  0.1371 -0.0200 -0.1403
   78loPI   C1A 1239   1.050   1.062   9.611  0.0043 -0.1128  0.1794
   78loPI   C2A 1240   1.022   1.253   9.110  0.1518 -0.0577  0.0226
   78loPI   C3A 1241   0.992   1.114   8.630  0.0885 -0.0728  0.0499
   78loPI   C4A 1242   1.148   1.245   8.270  0.0968  0.0649  0.2306
   78loPI   C5A 1243   0.915   1.461   7.955  0.1050 -0.1499 -0.1022
   78loPI   C6A 1244   0.497   1.487   7.838 -0.0513  0.0349  0.0590
   78loPI   C1B 1245   0.806   0.587   9.482 -0.3480 -0.0705 -0.1655
   78loPI   C2B 1246   0.902   0.748   9.012 -0.2464  0.1037  0.1145
   78loPI   C3B 1247   0.759   0.700   8.588 -0.1276 -0.0496  0.1505
   78loPI   C4B 1248   0.955   0.674   8.271  0.2160  0.0676 -0.0884
   79loPI    C1 1249  13.964   2.648   9.884 -0.0359  0.0311 -0.1338
   79loPI    C2 1250  13.909   2.303  10.079 -0.3931  0.3878  0.4237
   79loPI    C3 1251  14.159   2.578  10.226  0.2076  0.2208 -0.2311
   79loPI   PO4 1252  13.938   2.581   9.633  0.1236 -0.0479  0.1592
   79loPI   GL1 1253  13.652   2.606   9.443  0.0765  0.0445 -0.2018
   79loPI   GL2 1254  13.669   2.987   9.321 -0.0896 -0.0962  0.0014
   79loPI   C1A 1255  13.457   2.475   9.032  0.1126 -0.1592  0.4442
   79loPI   C2A 1256  13.182   2.348   8.704 -0.0201  0.3365  0.0516
   79loPI   C3A 1257  12.820   2.346   8.433 -0.0407 -0.0511  0.1727
   79loPI   C4A 1258  12.763   2.168   8.009  0.2039  0.1489  0.1116
   79loPI   C5A 1259  12.636   2.427   7.747  0.0177 -0.0741 -0.0662
   79loPI   C6A 1260  12.416   2.695   7.465  0.0581  0.0613  0.1412
   79loPI   C1B 1261  13.753   2.919   8.929  0.0232 -0.1685 -0.2530
   79loPI   C2B 1262  13.763   2.955   8.483  0.0931  0.0576 -0.2929
   79loPI   C3B 1263  13.463   3.092   8.133 -0.0602  0.0750  0.1008
   79loPI   C4B 1264  13.364   2.943   7.741  0.0364 -0.1149 -0.2020
   80loPI    C1 1265  15.746   6.263   9.984  0.0840  0.1066 -0.1199
   80loPI    C2 1266  15.707   5.920   9.783  0.1120  0.0526 -0.0338
   80loPI    C3 1267  15.716   5.918  10.183  0.0715  0.1580 -0.0318
   80loPI   PO4 1268  15.908   6.441   9.738  0.0686  0.2013 -0.3046
   80loPI   GL1 1269  16.063   6.383   9.439 -0.0249  0.0625  0.0194
   80loPI   GL2 1270  15.940   6.086   9.398  0.1780  0.1516  0.1815
   80loPI   C1A 1271  16.044   6.457   9.055 -0.0331 -0.3701  0.1275
   80loPI   C2A 1272  16.102   6.466   8.666 -0.1375 -0.2720  0.0527
   80loPI   C3A 1273  16.052   6.403   8.309  0.0635  0.0289 -0.0219
   80loPI   C4A 1274  16.141   6.407   7.848  0.3266  0.0415 -0.3405
   80loPI   C5A 1275  16.141   6.082   7.546 -0.0395  0.4331  0.5454
   80loPI   C6A 1276  15.911   5.775   7.155 -0.0366 -0.3147 -0.0882
   80loPI   C1B 1277  16.046   5.911   9.002  0.1630 -0.1173  0.0229
   80loPI   C2B 1278  16.049   5.903   8.561  0.1213  0.1654  0.1662
   80loPI   C3B 1279  16.227   5.949   8.176 -0.0821 -0.3262 -0.1141
   80loPI   C4B 1280  16.578   5.835   7.769 -0.0534  0.0636  0.0840
   81loPI    C1 1281   0.829  13.024  11.034 -0.0670  0.0098  0.3312
   81loPI    C2 1282   0.949  13.404  11.005 -0.0295 -0.0346 -0.1824
   81loPI    C3 1283   1.215  13.116  11.081  0.0402 -0.0231 -0.3758
   81loPI   PO4 1284   0.656  13.002  10.834 -0.1693 -0.0566 -0.0700
   81loPI   GL1 1285   0.775  12.800  10.361 -0.1268  0.0486  0.1213
   81loPI   GL2 1286   0.666  12.585  10.337  0.0131  0.3211 -0.3007
   81loPI   C1A 1287   0.954  12.969  10.016 -0.3002  0.1232  0.0824
   81loPI   C2A 1288   0.996  12.976   9.605 -0.1704  0.0972  0.0487
   81loPI   C3A 1289   0.863  12.936   9.243 -0.1225  0.2516  0.1274
   81loPI   C4A 1290   0.920  12.858   8.846 -0.0742 -0.1809 -0.4835
   81loPI   C5A 1291   0.982  12.780   8.450  0.0533 -0.1179 -0.0526
   81loPI   C6A 1292   1.147  12.760   8.081 -0.4248 -0.1335 -0.0294
   81loPI   C1B 1293   0.766  12.489   9.924 -0.3217 -0.2731  0.3661
   81loPI   C2B 1294   0.901  12.400   9.437  0.2079  0.0536 -0.3123
   81loPI   C3B 1295   0.901  12.426   9.092  0.2564 -0.1017  0.1770
   81loPI   C4B 1296   0.868  12.374   8.779  0.1009 -0.0783  0.1133
   82loPI    C1 1297   8.823   3.846  10.653  0.1458  0.0210 -0.1674
   82loPI    C2 1298   8.605   3.920  10.980 -0.1419 -0.3748 -0.2626
   82loPI    C3 1299   8.977   4.062  10.952 -0.2136 -0.0987  0.1120
   82loPI   PO4 1300   8.615   3.951  10.454  0.0968  0.0621 -0.0622
   82loPI   GL1 1301   8.354   3.734  10.279  0.0624 -0.2855  0.4369
   82loPI   GL2 1302   8.102   4.007  10.135  0.1501 -0.0661 -0.0994
   82loPI   C1A 1303   8.281   3.492   9.882  0.0174  0.3237 -0.0510
   82loPI   C2A 1304   8.390   3.470   9.471  0.1780  0.0276  0.0358
   82loPI   C3A 1305   8.445   3.520   9.031 -0.1656 -0.0959 -0.0801
   82loPI   C4A 1306   8.436   3.591   8.581 -0.3229  0.1322  0.3409
   82loPI   C5A 1307   8.556   3.523   8.226  0.1281  0.0881  0.0674
   82loPI   C6A 1308   8.422   3.402   7.909  0.1508  0.0412 -0.0762
   82loPI   C1B 1309   8.108   4.057   9.664 -0.2219 -0.2186 -0.1148
   82loPI   C2B 1310   7.999   3.867   9.288  0.0485  0.1717 -0.2152
   82loPI   C3B 1311   8.084   3.878   8.885  0.2276  0.0634 -0.1928
   82loPI   C4B 1312   8.129   3.915   8.462  0.0428  0.0396 -0.0008
   83loPI    C1 1313  13.077  12.265  10.417  0.1091 -0.0386 -0.2054
   83loPI    C2 1314  13.301  12.565  10.558 -0.2581  0.2274 -0.1717
   83loPI    C3 1315  13.234  12.242  10.784 -0.2984  0.3574  0.0044
   83loPI   PO4 1316  12.865  12.350  10.282  0.0613  0.2561 -0.1653
   83loPI   GL1 1317  12.700  12.527   9.889 -0.0251 -0.1412  0.0515
   83loPI   GL2 1318  12.470  12.644  10.089  0.1023  0.2022  0.2227
   83loPI   C1A 1319  12.839  12.523   9.495  0.1026 -0.1999  0.1443
   83loPI   C2A 1320  12.802  12.419   9.069  0.0397 -0.2029  0.4351
   83loPI   C3A 1321  12.792  12.428   8.669 -0.0204  0.1695  0.1714
   83loPI   C4A 1322  12.874  12.555   8.265 -0.0669  0.0084 -0.1579
   83loPI   C5A 1323  13.002  12.735   7.945 -0.1472  0.3258 -0.0712
   83loPI   C6A 1324  13.047  13.041   7.537 -0.0372 -0.1312 -0.0485
   83loPI   C1B 1325  12.252  12.723   9.705  0.2327  0.0346  0.1087
   83loPI   C2B 1326  12.351  12.705   9.339  0.1292  0.2282 -0.0255
   83loPI   C3B 1327  12.368  12.655   8.908  0.0311 -0.1072 -0.2179
   83loPI   C4B 1328  12.377  12.610   8.510  0.0537  0.0748 -0.1351
   84loPI    C1 1329   7.357  10.923  11.133  0.0045 -0.1764  0.0133
   84loPI    C2 1330   7.325  10.581  11.337 -0.0408 -0.2713 -0.1508
   84loPI    C3 1331   7.010  10.826  11.309 -0.0208 -0.2357 -0.0686
   84loPI   PO4 1332   7.403  10.836  10.911 -0.0603  0.1249  0.1136
   84loPI   GL1 1333   7.648  10.967  10.486 -0.0585 -0.0681 -0.0966
   84loPI   GL2 1334   7.687  10.744  10.241  0.0459 -0.1592 -0.1401
   84loPI   C1A 1335   7.466  11.147  10.132  0.0217  0.1586  0.0827
   84loPI   C2A 1336   7.462  11.351   9.777 -0.1380 -0.1007 -0.0388
   84loPI   C3A 1337   7.502  11.415   9.366 -0.0646 -0.1293 -0.3347
   84loPI   C4A 1338   7.587  11.456   8.955  0.1312  0.1151 -0.0400
   84loPI   C5A 1339   7.532  11.391   8.465 -0.0842 -0.0323  0.1527
   84loPI   C6A 1340   7.530  11.179   8.101 -0.0355  0.0127  0.4069
   84loPI   C1B 1341   7.561  10.792   9.800  0.2072 -0.3686 -0.3443
   84loPI   C2B 1342   7.591  10.877   9.385 -0.1925 -0.0880  0.0480
   84loPI   C3B 1343   7.698  10.899   8.944  0.1153 -0.1049  0.1002
   84loPI   C4B 1344   7.662  10.889   8.489  0.0437 -0.1240  0.3684
   85loPI    C1 1345   2.286  14.167  10.860  0.1151 -0.0694  0.1391
   85loPI    C2 1346   2.135  13.937  11.151 -0.0948 -0.0921  0.0146
   85loPI    C3 1347   2.135  14.335  11.190 -0.0963 -0.0964  0.0578
   85loPI   PO4 1348   2.265  14.033  10.625 -0.1021  0.1111 -0.1328
   85loPI   GL1 1349   2.266  13.748  10.296 -0.1428  0.0599 -0.1350
   85loPI   GL2 1350   1.992  13.897  10.211 -0.0864 -0.1566 -0.2141
   85loPI   C1A 1351   2.327  13.475   9.893 -0.1067 -0.0926  0.2524
   85loPI   C2A 1352   2.387  13.422   9.530 -0.0397  0.0492  0.1290
   85loPI   C3A 1353   2.482  13.159   9.163  0.1047 -0.1491 -0.1075
   85loPI   C4A 1354   2.829  13.090   8.791 -0.1096  0.3333  0.1704
   85loPI   C5A 1355   3.205  12.959   8.737 -0.1316  0.2987 -0.0362
   85loPI   C6A 1356   3.449  12.948   8.352  0.2073  0.0782 -0.2922
   85loPI   C1B 1357   1.750  13.946   9.822 -0.2024  0.1612 -0.2577
   85loPI   C2B 1358   1.720  14.132   9.460 -0.2305 -0.0556 -0.2319
   85loPI   C3B 1359   1.583  14.095   9.109  0.0156  0.2116 -0.2251
   85loPI   C4B 1360   1.572  14.078   8.666  0.1611  0.1349  0.0974
   86loPI    C1 1361  17.829  15.410  10.693 -0.0084 -0.1236  0.2357
   86loPI    C2 1362  18.080  15.717  10.646  0.0694 -0.2218 -0.0102
   86loPI    C3 1363  17.871  15.680  10.985  0.2711 -0.0553  0.1359
   86loPI   PO4 1364  17.734  15.409  10.468 -0.0360 -0.0703  0.1628
   86loPI   GL1 1365  17.647  15.340  10.061 -0.0860 -0.0083 -0.1414
   86loPI   GL2 1366  17.607  15.631   9.916 -0.1634  0.0617 -0.4356
   86loPI   C1A 1367  17.621  15.095   9.743 -0.0605 -0.0310  0.1607
   86loPI   C2A 1368  17.603  14.976   9.319  0.1165  0.0663  0.1224
   86loPI   C3A 1369  17.578  14.968   8.935 -0.0272 -0.2158  0.2867
   86loPI   C4A 1370  17.367  14.952   8.595 -0.1522 -0.4503  0.0185
   86loPI   C5A 1371  17.142  14.793   8.178  0.3147 -0.0612 -0.2111
   86loPI   C6A 1372  16.822  14.766   7.818  0.0814  0.0388  0.2060
   86loPI   C1B 1373  17.475  15.492   9.546 -0.2485 -0.0209  0.0873
   86loPI   C2B 1374  17.434  15.442   9.130 -0.0484 -0.1471  0.2260
   86loPI   C3B 1375  17.321  15.488   8.686 -0.0811  0.4136  0.2167
   86loPI   C4B 1376  17.464  15.290   8.213 -0.2805 -0.1541  0.0507
   87loPI    C1 1377  10.146   1.668  10.449 -0.0352  0.1063 -0.0889
   87loPI    C2 1378   9.939   1.585  10.781  0.1139 -0.1386 -0.0546
   87loPI    C3 1379  10.333   1.653  10.803  0.0613  0.2120 -0.1343
   87loPI   PO4 1380   9.978   1.690  10.272  0.0637  0.0679 -0.0991
   87loPI   GL1 1381   9.903   1.874   9.899 -0.4417 -0.2409  0.0108
   87loPI   GL2 1382   9.639   1.928   9.812 -0.0037 -0.1771  0.0840
   87loPI   C1A 1383   9.880   1.804   9.449 -0.2543  0.1414  0.1180
   87loPI   C2A 1384   9.766   1.891   9.002  0.1201 -0.1361  0.1860
   87loPI   C3A 1385   9.625   1.911   8.527 -0.0627  0.3635  0.0827
   87loPI   C4A 1386   9.616   1.806   8.082 -0.0078 -0.2543 -0.1473
   87loPI   C5A 1387   9.820   1.838   7.724  0.1845 -0.2029  0.0412
   87loPI   C6A 1388   9.840   2.292   7.541 -0.0721 -0.0733 -0.1321
   87loPI   C1B 1389   9.263   1.833   9.629 -0.0009  0.4594 -0.1902
   87loPI   C2B 1390   9.238   1.852   9.207 -0.1892 -0.1261 -0.2458
   87loPI   C3B 1391   9.220   1.864   8.787  0.1702  0.0952  0.0757
   87loPI   C4B 1392   9.183   1.815   8.297  0.3126 -0.1013  0.1110
   88loPI    C1 1393   4.968   5.373  10.839  0.0145 -0.1776  0.3444
   88loPI    C2 1394   4.792   5.713  10.956  0.0337  0.0390 -0.2236
   88loPI    C3 1395   5.176   5.644  11.047 -0.1287 -0.1080  0.3980
   88loPI   PO4 1396   4.844   5.356  10.487 -0.1884 -0.1611  0.1254
   88loPI   GL1 1397   4.542   5.410  10.071  0.3261  0.3657  0.0221
   88loPI   GL2 1398   4.755   5.189  10.001 -0.0197  0.0354 -0.0974
   88loPI   C1A 1399   4.451   5.271   9.666  0.1700  0.1043 -0.0934
   88loPI   C2A 1400   4.649   5.159   9.334 -0.1655  0.1033  0.1517
   88loPI   C3A 1401   4.673   5.177   8.977  0.1037  0.2375 -0.0606
   88loPI   C4A 1402   4.866   4.859   8.610 -0.2805  0.1218  0.2595
   88loPI   C5A 1403   4.826   4.832   8.152 -0.4383 -0.3373  0.0326
   88loPI   C6A 1404   5.068   4.763   7.885  0.1069 -0.2479 -0.3166
   88loPI   C1B 1405   5.051   5.372   9.618  0.0892  0.1458 -0.1610
   88loPI   C2B 1406   5.147   5.317   9.186  0.1782 -0.2282 -0.1533
   88loPI   C3B 1407   5.280   5.163   8.789  0.0443  0.0724  0.0252
   88loPI   C4B 1408   5.715   5.032   8.638  0.0884 -0.1717 -0.0906
   89loPI    C1 1409   7.077  14.360  10.676 -0.0227  0.0209 -0.0184
   89loPI    C2 1410   7.027  14.541  11.029  0.0053 -0.0686  0.0318
   89loPI    C3 1411   7.090  14.147  11.014  0.3180 -0.0178 -0.0525
   89loPI   PO4 1412   6.867  14.353  10.514  0.3643  0.1553 -0.0885
   89loPI   GL1 1413   6.828  14.533  10.089 -0.1090  0.3700  0.1598
   89loPI   GL2 1414   7.060  14.823  10.018 -0.0001  0.1050 -0.0926
   89loPI   C1A 1415   6.782  14.505   9.653 -0.1411  0.0561  0.1067
   89loPI   C2A 1416   6.673  14.485   9.173  0.0882  0.0576 -0.0799
   89loPI   C3A 1417   6.623  14.698   8.779 -0.2356  0.1531 -0.2159
   89loPI   C4A 1418   6.706  14.893   8.365 -0.1058 -0.2067  0.0933
   89loPI   C5A 1419   6.963  14.664   7.999  0.1699  0.1182 -0.1783
   89loPI   C6A 1420   7.239  14.823   7.757 -0.0635 -0.0541  0.1047
   89loPI   C1B 1421   7.137  14.971   9.701 -0.4928  0.4279 -0.1101
   89loPI   C2B 1422   7.097  14.968   9.267  0.1250  0.1563  0.3128
   89loPI   C3B 1423   7.063  14.937   8.826 -0.1495  0.0159 -0.0451
   89loPI   C4B 1424   7.224  14.966   8.366 -0.2330 -0.0007  0.1550
   90loPI    C1 1425   2.268   0.614  10.529  0.0531 -0.1788  0.0237
   90loPI    C2 1426   2.279   0.416  10.876 -0.0489 -0.0028  0.1287
   90loPI    C3 1427   2.400   0.797  10.859  0.1925 -0.0861 -0.0818
   90loPI   PO4 1428   2.505   0.500  10.337 -0.0040 -0.0166  0.0872
   90loPI   GL1 1429   2.501   0.437   9.885  0.0734  0.0535 -0.0205
   90loPI   GL2 1430   2.346   0.219   9.731 -0.3730 -0.1979 -0.0119
   90loPI   C1A 1431   2.730   0.496   9.546  0.3190  0.3124  0.0340
   90loPI   C2A 1432   2.684   0.627   9.080  0.2364 -0.2191 -0.1196
   90loPI   C3A 1433   2.705   0.653   8.607  0.2482  0.1928  0.0653
   90loPI   C4A 1434   2.868   0.731   8.284  0.1137  0.0173 -0.1745
   90loPI   C5A 1435   2.835   1.091   8.039  0.0294 -0.0191 -0.1306
   90loPI   C6A 1436   2.724   1.296   7.702  0.3979  0.2570  0.1459
   90loPI   C1B 1437   2.238   0.494   9.416  0.0222 -0.0837 -0.0192
   90loPI   C2B 1438   2.126   0.445   9.048 -0.1612  0.4005 -0.1207
   90loPI   C3B 1439   2.224   0.495   8.550  0.2674 -0.1440  0.0248
   90loPI   C4B 1440   2.296   0.644   8.108 -0.1984  0.0392  0.0458
   91loPI    C1 1441  12.444   6.848   9.943 -0.0779  0.0346  0.1918
   91loPI    C2 1442  12.420   6.628  10.277  0.2079  0.0657  0.2356
   91loPI    C3 1443  12.763   6.811  10.182  0.0669  0.2295  0.0320
   91loPI   PO4 1444  12.195   6.956   9.939 -0.1871 -0.1470 -0.1358
   91loPI   GL1 1445  12.123   6.983   9.523 -0.2246  0.1078  0.2904
   91loPI   GL2 1446  12.334   7.281   9.575 -0.0448 -0.0317 -0.0372
   91loPI   C1A 1447  12.067   7.192   9.128  0.0538 -0.1056 -0.1623
   91loPI   C2A 1448  12.126   7.441   8.732 -0.1366 -0.1053 -0.1403
   91loPI   C3A 1449  12.253   7.462   8.318 -0.0572 -0.4422 -0.1768
   91loPI   C4A 1450  12.290   7.417   7.868 -0.0967 -0.0067 -0.1899
   91loPI   C5A 1451  12.520   7.319   7.549  0.2404 -0.1253  0.0369
   91loPI   C6A 1452  12.923   7.126   7.438 -0.2446 -0.1424  0.1445
   91loPI   C1B 1453  12.556   7.405   9.171 -0.1449 -0.0087 -0.0527
   91loPI   C2B 1454  12.734   7.325   8.778 -0.0380  0.2180 -0.0821
   91loPI   C3B 1455  12.786   7.283   8.354 -0.2769  0.2876 -0.1799
   91loPI   C4B 1456  12.803   7.295   7.992 -0.2489  0.1987  0.0261
   92loPI    C1 1457   1.649   1.232  10.687 -0.0964 -0.0435  0.0563
   92loPI    C2 1458   1.669   1.510  10.974  0.3479 -0.0918  0.0787
   92loPI    C3 1459   1.576   1.133  11.067 -0.0756  0.0067  0.0735
   92loPI   PO4 1460   1.492   1.312  10.526 -0.0240  0.1526  0.0706
   92loPI   GL1 1461   1.458   1.322  10.108 -0.1352 -0.0610  0.1530
   92loPI   GL2 1462   1.231   1.386  10.024  0.1864 -0.1838  0.2397
   92loPI   C1A 1463   1.599   1.709   9.799  0.2186 -0.0732  0.0591
   92loPI   C2A 1464   1.592   1.742   9.445 -0.0950  0.0577 -0.0409
   92loPI   C3A 1465   1.668   1.785   8.986  0.1381  0.1483 -0.0727
   92loPI   C4A 1466   1.825   1.800   8.623  0.2750 -0.4733  0.0572
   92loPI   C5A 1467   1.734   1.850   8.103  0.1087 -0.0830  0.0822
   92loPI   C6A 1468   1.936   2.009   7.732 -0.0079 -0.1879 -0.1747
   92loPI   C1B 1469   1.143   1.574   9.567 -0.0272  0.2608 -0.1448
   92loPI   C2B 1470   1.106   1.735   9.192  0.1406  0.0404 -0.1054
   92loPI   C3B 1471   1.183   1.655   8.820 -0.2133  0.0751  0.0536
   92loPI   C4B 1472   1.280   1.706   8.335  0.1646 -0.0952  0.0619
   93loPI    C1 1473   9.845  13.650  10.816 -0.0959  0.0850  0.0163
   93loPI    C2 1474   9.673  13.310  10.938 -0.1879  0.0627 -0.1714
   93loPI    C3 1475   9.764  13.595  11.203 -0.0467 -0.1361 -0.0034
   93loPI   PO4 1476   9.862  13.643  10.628  0.0316  0.0476 -0.1155
   93loPI   GL1 1477   9.641  13.893  10.291 -0.1333 -0.1333 -0.1108
   93loPI   GL2 1478   9.789  14.168  10.447 -0.0305  0.0991  0.0056
   93loPI   C1A 1479   9.516  13.865   9.907 -0.2755 -0.0908  0.0462
   93loPI   C2A 1480   9.518  13.911   9.469  0.0345 -0.0063  0.2136
   93loPI   C3A 1481   9.451  13.982   9.080  0.2435 -0.1090  0.1818
   93loPI   C4A 1482   9.428  13.939   8.670  0.1411 -0.0086 -0.0550
   93loPI   C5A 1483   9.423  13.648   8.335  0.2501 -0.1948 -0.0126
   93loPI   C6A 1484   9.699  13.360   8.248 -0.2358 -0.2036 -0.0684
   93loPI   C1B 1485   9.931  14.265   9.993  0.1034  0.2077  0.0309
   93loPI   C2B 1486   9.925  14.170   9.662 -0.3427 -0.3230  0.1247
   93loPI   C3B 1487   9.839  14.297   9.182 -0.0053  0.0481 -0.0069
   93loPI   C4B 1488   9.875  14.264   8.753  0.0754  0.3332 -0.0245
   94loPI    C1 1489  10.263  16.694  10.871 -0.1373  0.1560  0.2199
   94loPI    C2 1490  10.346  16.634  11.258  0.2669  0.0694  0.1243
   94loPI    C3 1491  10.256  17.001  11.128  0.0015  0.0768  0.3199
   94loPI   PO4 1492  10.445  16.466  10.814 -0.0854 -0.0358  0.3426
   94loPI   GL1 1493  10.472  16.286  10.433  0.1094  0.0564  0.2543
   94loPI   GL2 1494  10.708  16.075  10.342  0.0242 -0.0648 -0.1287
   94loPI   C1A 1495  10.079  16.432  10.081  0.0691 -0.2079  0.2380
   94loPI   C2A 1496  10.101  16.565   9.679  0.2177 -0.1135 -0.1473
   94loPI   C3A 1497   9.975  16.600   9.210 -0.3869  0.1274 -0.2114
   94loPI   C4A 1498   9.964  16.553   8.792 -0.1967  0.1586  0.0786
   94loPI   C5A 1499  10.068  16.588   8.369  0.1481 -0.0082  0.2662
   94loPI   C6A 1500   9.888  16.724   7.990  0.0995 -0.3150 -0.0605
   94loPI   C1B 1501  10.609  16.283   9.853  0.2173 -0.2856 -0.0575
   94loPI   C2B 1502  10.474  16.427   9.418  0.1754 -0.2341 -0.0320
   94loPI   C3B 1503  10.453  16.394   9.013  0.1035 -0.0758 -0.0573
   94loPI   C4B 1504  10.573  16.290   8.700  0.2622  0.0301 -0.2134
   95loPI    C1 1505   8.418   0.684  10.762 -0.0185 -0.0492 -0.0084
   95loPI    C2 1506   8.492   0.809  11.134  0.1193  0.0159 -0.0571
   95loPI    C3 1507   8.757   0.577  10.945 -0.0164 -0.1363 -0.0627
   95loPI   PO4 1508   8.351   0.855  10.614  0.0040  0.0419 -0.0732
   95loPI   GL1 1509   8.533   1.113  10.388 -0.0390 -0.0717 -0.2294
   95loPI   GL2 1510   8.432   0.926  10.091  0.0700  0.0533 -0.3544
   95loPI   C1A 1511   8.598   1.371  10.046 -0.3470 -0.2122 -0.1635
   95loPI   C2A 1512   8.544   1.293   9.660  0.2252 -0.0180  0.1162
   95loPI   C3A 1513   8.613   1.296   9.209  0.0306 -0.0847 -0.1224
   95loPI   C4A 1514   8.622   1.242   8.752 -0.0227 -0.3305  0.1186
   95loPI   C5A 1515   8.538   1.220   8.380  0.0035 -0.0365 -0.2068
   95loPI   C6A 1516   8.337   1.254   8.032  0.3563  0.0493  0.1165
   95loPI   C1B 1517   8.426   0.794   9.658 -0.0338  0.1665 -0.1872
   95loPI   C2B 1518   8.410   0.811   9.164  0.1341 -0.1952 -0.3057
   95loPI   C3B 1519   8.434   0.788   8.761 -0.0170  0.0570  0.1485
   95loPI   C4B 1520   8.342   0.685   8.467  0.1750  0.1538  0.0587
   96loPI    C1 1521   9.757  14.975  10.697 -0.2219 -0.3007 -0.0501
   96loPI    C2 1522   9.570  15.329  10.701 -0.0809 -0.2246 -0.1326
   96loPI    C3 1523   9.652  15.142  11.045 -0.0362 -0.1134 -0.0823
   96loPI   PO4 1524   9.908  15.024  10.567 -0.0708  0.1576 -0.1562
   96loPI   GL1 1525  10.044  15.210  10.247 -0.0974 -0.0883  0.1117
   96loPI   GL2 1526   9.759  15.180  10.119  0.1463 -0.2894  0.0880
   96loPI   C1A 1527  10.168  15.497   9.896  0.1562 -0.2189  0.0662
   96loPI   C2A 1528  10.131  15.546   9.462 -0.1833  0.0500  0.1250
   96loPI   C3A 1529  10.147  15.545   9.004  0.1075 -0.1091  0.1002
   96loPI   C4A 1530  10.251  15.512   8.593  0.1336 -0.2867  0.1089
   96loPI   C5A 1531  10.159  15.645   8.202  0.1960  0.1026  0.2279
   96loPI   C6A 1532  10.174  16.093   8.068  0.0548  0.1684 -0.1455
   96loPI   C1B 1533   9.848  15.187   9.619  0.1856  0.1493  0.1432
   96loPI   C2B 1534   9.773  15.255   9.191 -0.2114 -0.2045 -0.2621
   96loPI   C3B 1535   9.812  15.232   8.755  0.1750  0.1765 -0.0271
   96loPI   C4B 1536   9.829  15.196   8.279  0.1930  0.0516 -0.0209
   97loPI    C1 1537  12.663   6.086  10.088 -0.0759  0.0688  0.0555
   97loPI    C2 1538  12.977   5.958  10.300 -0.0759 -0.1587 -0.0789
   97loPI    C3 1539  12.605   5.876  10.423 -0.0812 -0.0328 -0.0090
   97loPI   PO4 1540  12.715   6.343   9.968 -0.1745  0.1254  0.1993
   97loPI   GL1 1541  12.557   6.502   9.510  0.2960 -0.5927 -0.1717
   97loPI   GL2 1542  12.879   6.363   9.356  0.3853  0.0328  0.0276
   97loPI   C1A 1543  12.497   6.271   9.089  0.0504  0.0052  0.1863
   97loPI   C2A 1544  12.454   6.381   8.664  0.1776  0.0324  0.0600
   97loPI   C3A 1545  12.520   6.340   8.285 -0.2237 -0.3302  0.1687
   97loPI   C4A 1546  12.151   6.243   8.004 -0.1223 -0.0665 -0.1522
   97loPI   C5A 1547  11.713   6.143   8.173  0.1192  0.0014 -0.0050
   97loPI   C6A 1548  11.354   6.156   8.485  0.1058 -0.1282 -0.0421
   97loPI   C1B 1549  13.035   6.275   8.853 -0.0035  0.2326 -0.0328
   97loPI   C2B 1550  12.957   6.224   8.473  0.1915  0.1998 -0.1864
   97loPI   C3B 1551  12.960   6.241   8.006  0.0860  0.1574 -0.1322
   97loPI   C4B 1552  12.604   6.414   7.798  0.0023  0.2748 -0.0734
   98loPI    C1 1553  13.483   5.932  10.140 -0.1149 -0.1101  0.1344
   98loPI    C2 1554  13.658   6.197  10.383 -0.1190 -0.3049  0.3532
   98loPI    C3 1555  13.800   5.823  10.357  0.0632 -0.2085 -0.1683
   98loPI   PO4 1556  13.482   5.981   9.906  0.0457 -0.1958  0.2634
   98loPI   GL1 1557  13.427   6.281   9.610 -0.1081  0.3912 -0.2966
   98loPI   GL2 1558  13.449   6.600   9.570 -0.1946  0.1273 -0.2665
   98loPI   C1A 1559  13.415   6.017   9.204  0.0987 -0.0729 -0.1826
   98loPI   C2A 1560  13.482   6.034   8.791 -0.3441 -0.1549 -0.1463
   98loPI   C3A 1561  13.509   6.069   8.395  0.1337 -0.1992 -0.0989
   98loPI   C4A 1562  13.458   6.035   7.962  0.1660  0.0603 -0.1281
   98loPI   C5A 1563  13.377   6.004   7.576 -0.1072 -0.0035 -0.3167
   98loPI   C6A 1564  13.179   5.888   7.181 -0.0824  0.0697 -0.2332
   98loPI   C1B 1565  13.277   6.696   9.205 -0.1485  0.0888 -0.2413
   98loPI   C2B 1566  13.326   6.649   8.676  0.1634  0.0374 -0.1415
   98loPI   C3B 1567  13.324   6.595   8.271  0.2493  0.2548 -0.1801
   98loPI   C4B 1568  13.445   6.626   7.786 -0.1776 -0.0462  0.0971
   99loPI    C1 1569  11.685  16.830  10.958  0.0125  0.2520  0.0195
   99loPI    C2 1570  11.897  16.495  11.006 -0.0156  0.2062 -0.1679
   99loPI    C3 1571  11.657  16.624  11.300 -0.1346 -0.0296 -0.1588
   99loPI   PO4 1572  11.618  16.842  10.716  0.0529 -0.3391  0.2846
   99loPI   GL1 1573  11.512  16.737  10.263  0.1905  0.1856 -0.2043
   99loPI   GL2 1574  11.294  16.914  10.052  0.1314  0.0211  0.2961
   99loPI   C1A 1575  11.803  16.845   9.994  0.1145  0.0414 -0.3732
   99loPI   C2A 1576  11.817  16.880   9.597  0.4111 -0.1143  0.0861
   99loPI   C3A 1577  11.796  16.704   9.125  0.1235 -0.2450 -0.1494
   99loPI   C4A 1578  11.382  16.527   9.059 -0.2174  0.2702 -0.1135
   99loPI   C5A 1579  11.434  16.429   9.461  0.2057  0.3108 -0.0556
   99loPI   C6A 1580  11.406  16.431   9.835 -0.2847 -0.1059 -0.3937
   99loPI   C1B 1581  11.367  16.983   9.623  0.0084  0.1102 -0.1042
   99loPI   C2B 1582  11.401  17.006   9.184  0.3155 -0.1682 -0.0183
   99loPI   C3B 1583  11.483  16.894   8.726  0.0033  0.1866 -0.0058
   99loPI   C4B 1584  11.859  16.835   8.485 -0.4127  0.0979 -0.1615
  100loPI    C1 1585   1.587  11.057  10.972  0.1020  0.1919 -0.1029
  100loPI    C2 1586   1.340  10.969  11.275  0.0141 -0.0047 -0.2299
  100loPI    C3 1587   1.595  10.693  11.137  0.0828  0.0969 -0.3087
  100loPI   PO4 1588   1.452  11.131  10.812 -0.0180  0.1275 -0.1338
  100loPI   GL1 1589   1.060  11.290  10.490  0.0710 -0.0011  0.0742
  100loPI   GL2 1590   0.979  11.031  10.291  0.0810 -0.1786 -0.3209
  100loPI   C1A 1591   1.189  11.554  10.198  0.1750 -0.1149 -0.0856
  100loPI   C2A 1592   1.321  11.620   9.804  0.1431  0.1450 -0.4428
  100loPI   C3A 1593   1.409  11.612   9.304 -0.1513  0.0626  0.0456
  100loPI   C4A 1594   1.503  11.664   8.874 -0.0680 -0.1318  0.0619
  100loPI   C5A 1595   1.684  11.771   8.477  0.3177 -0.0934 -0.2288
  100loPI   C6A 1596   1.902  11.769   8.125 -0.2462 -0.1144 -0.4957
  100loPI   C1B 1597   1.204  11.141   9.873  0.2128  0.4142  0.0974
  100loPI   C2B 1598   1.020  11.257   9.436  0.2963 -0.2270 -0.2561
  100loPI   C3B 1599   1.059  11.336   8.939  0.0591 -0.0918  0.1877
  100loPI   C4B 1600   1.057  11.332   8.488 -0.1854  0.1812 -0.0171
  101loPI    C1 1601   1.329  11.604  10.774  0.0694 -0.0561  0.1326
  101loPI    C2 1602   1.008  11.754  10.588  0.0923 -0.0895  0.0658
  101loPI    C3 1603   0.967  11.572  10.942  0.0564  0.0237  0.1202
  101loPI   PO4 1604   1.487  11.817  10.743  0.0536  0.2565 -0.3147
  101loPI   GL1 1605   1.709  11.986  10.475 -0.2886 -0.1545 -0.0414
  101loPI   GL2 1606   1.494  11.910  10.281 -0.2662 -0.0630  0.0878
  101loPI   C1A 1607   1.955  12.191  10.257  0.4358  0.0186 -0.0274
  101loPI   C2A 1608   2.023  12.155   9.785  0.0002 -0.2090  0.0787
  101loPI   C3A 1609   2.245  12.289   9.439  0.4240 -0.5303  0.2794
  101loPI   C4A 1610   2.264  12.625   9.049 -0.3110  0.0104  0.1331
  101loPI   C5A 1611   2.418  12.730   8.585  0.1207 -0.3163  0.0037
  101loPI   C6A 1612   2.785  12.790   8.323 -0.1820 -0.1626  0.2138
  101loPI   C1B 1613   1.491  12.100   9.928 -0.1144 -0.0485  0.1437
  101loPI   C2B 1614   1.487  12.131   9.538  0.2063 -0.0332 -0.0091
  101loPI   C3B 1615   1.375  12.214   9.096  0.0221  0.1179  0.0109
  101loPI   C4B 1616   1.411  12.220   8.682  0.2164 -0.0022  0.1520
  102loPI    C1 1617   3.071  16.624  10.579  0.2599 -0.1363  0.0209
  102loPI    C2 1618   2.825  16.325  10.679  0.1732 -0.0197  0.1601
  102loPI    C3 1619   2.828  16.661  10.895  0.1672  0.1366 -0.0795
  102loPI   PO4 1620   3.055  16.661  10.343 -0.1167  0.0326 -0.1238
  102loPI   GL1 1621   3.339  16.716  10.027  0.1036 -0.2530  0.3467
  102loPI   GL2 1622   3.331  16.367   9.892 -0.0010  0.1061  0.0008
  102loPI   C1A 1623   3.192  16.993   9.640 -0.0642 -0.2291  0.1633
  102loPI   C2A 1624   3.067  17.149   9.288  0.0415 -0.1961  0.1889
  102loPI   C3A 1625   2.770  17.268   9.055 -0.1568 -0.2660  0.0049
  102loPI   C4A 1626   2.572  17.500   8.832 -0.1106  0.0637  0.1178
  102loPI   C5A 1627   2.251  17.517   8.507  0.3706  0.1023  0.0559
  102loPI   C6A 1628   2.150  17.584   8.104 -0.1461 -0.4748 -0.1589
  102loPI   C1B 1629   3.257  16.512   9.471  0.0420 -0.3963  0.2759
  102loPI   C2B 1630   3.382  16.777   9.078 -0.0127  0.0057  0.0950
  102loPI   C3B 1631   3.158  17.041   8.738 -0.0424 -0.0026 -0.1252
  102loPI   C4B 1632   2.923  17.027   8.388  0.3211 -0.1885 -0.2235
  103loPI    C1 1633   3.188  14.328  10.675  0.0294 -0.1165 -0.0729
  103loPI    C2 1634   3.570  14.438  10.719 -0.1000  0.1372  0.5343
  103loPI    C3 1635   3.292  14.713  10.638 -0.1535 -0.0570  0.0206
  103loPI   PO4 1636   3.141  14.228  10.499 -0.1004  0.0815 -0.0479
  103loPI   GL1 1637   2.985  14.472  10.180  0.0622 -0.0647 -0.0215
  103loPI   GL2 1638   3.139  14.417   9.917 -0.0604  0.1114 -0.1334
  103loPI   C1A 1639   2.701  14.338   9.774  0.0583 -0.1256 -0.1274
  103loPI   C2A 1640   2.729  14.244   9.314  0.1244  0.1381 -0.2323
  103loPI   C3A 1641   2.578  14.092   8.937  0.2331  0.0482 -0.2466
  103loPI   C4A 1642   2.478  14.259   8.495 -0.1644 -0.0388  0.1431
  103loPI   C5A 1643   2.402  14.681   8.363 -0.0838  0.0177  0.2158
  103loPI   C6A 1644   2.266  14.909   7.943 -0.2734 -0.1520 -0.1344
  103loPI   C1B 1645   3.165  14.429   9.465  0.1566 -0.1095  0.1276
  103loPI   C2B 1646   3.071  14.468   8.991 -0.0923  0.3315 -0.0461
  103loPI   C3B 1647   2.969  14.365   8.548  0.1112  0.0067  0.0740
  103loPI   C4B 1648   2.828  14.484   8.130  0.1165  0.0518  0.1047
  104loPI    C1 1649  12.996  16.249  10.972 -0.1092  0.1730  0.0629
  104loPI    C2 1650  12.920  16.598  11.153  0.0530  0.2706 -0.0548
  104loPI    C3 1651  13.170  16.335  11.321 -0.0963  0.1946  0.0513
  104loPI   PO4 1652  13.062  16.246  10.754 -0.0465 -0.0214 -0.1922
  104loPI   GL1 1653  13.230  16.414  10.391 -0.2254  0.4716  0.0914
  104loPI   GL2 1654  13.444  16.221  10.294  0.0621 -0.1109  0.2480
  104loPI   C1A 1655  12.882  16.425  10.144  0.0770  0.0828 -0.1817
  104loPI   C2A 1656  12.826  16.427   9.655  0.2992 -0.0997  0.2242
  104loPI   C3A 1657  12.815  16.498   9.246 -0.1211  0.0791 -0.1000
  104loPI   C4A 1658  12.780  16.453   8.858 -0.1938  0.3496  0.0442
  104loPI   C5A 1659  12.666  16.269   8.487  0.1925 -0.0180  0.0847
  104loPI   C6A 1660  12.793  15.915   8.219 -0.1077  0.2324 -0.0068
  104loPI   C1B 1661  13.293  16.169   9.908 -0.0625  0.0866 -0.0877
  104loPI   C2B 1662  13.365  16.211   9.498  0.0011  0.0904  0.0431
  104loPI   C3B 1663  13.340  16.250   9.118  0.0046  0.0191 -0.2392
  104loPI   C4B 1664  13.240  16.277   8.611  0.0348 -0.0242  0.0297
  105loPI    C1 1665  16.314  17.654  11.016  0.0684  0.0226  0.1577
  105loPI    C2 1666  16.623  17.419  10.919  0.1486  0.1820  0.0217
  105loPI    C3 1667  16.679  17.734  11.159  0.0757  0.1649  0.0613
  105loPI   PO4 1668  16.127  17.493  10.813  0.0361  0.4309 -0.1662
  105loPI   GL1 1669  15.973  17.515  10.355 -0.1694  0.1915 -0.1104
  105loPI   GL2 1670  15.848  17.599  10.230 -0.1728  0.1014  0.0752
  105loPI   C1A 1671  16.180  17.303   9.932 -0.0112 -0.0841  0.2340
  105loPI   C2A 1672  16.119  17.383   9.493 -0.1497 -0.0139  0.1581
  105loPI   C3A 1673  16.268  17.298   9.136 -0.1097  0.1617 -0.1048
  105loPI   C4A 1674  16.266  17.492   8.777  0.0613 -0.3119 -0.0317
  105loPI   C5A 1675  16.579  17.592   8.577 -0.0180 -0.1093 -0.4470
  105loPI   C6A 1676  17.033  17.552   8.550 -0.2491  0.0404 -0.0929
  105loPI   C1B 1677  15.847  17.657   9.820  0.0556 -0.0680 -0.2188
  105loPI   C2B 1678  15.683  17.669   9.362 -0.3176 -0.1111  0.2321
  105loPI   C3B 1679  15.887  17.721   9.036 -0.2185 -0.0027  0.1130
  105loPI   C4B 1680  15.710  17.643   8.612  0.1531  0.2024 -0.0265
  106loPI    C1 1681  15.971  10.742  10.458 -0.1333  0.1134 -0.2412
  106loPI    C2 1682  15.735  10.982  10.674  0.0410  0.0328  0.0440
  106loPI    C3 1683  15.828  10.617  10.810  0.3830  0.0882 -0.0315
  106loPI   PO4 1684  15.862  10.693  10.144 -0.2067  0.0356 -0.2046
  106loPI   GL1 1685  15.708  10.717   9.724 -0.1433 -0.2275  0.3336
  106loPI   GL2 1686  15.506  10.476   9.553 -0.1348  0.1192 -0.0719
  106loPI   C1A 1687  15.785  10.810   9.223  0.0042  0.1327  0.1061
  106loPI   C2A 1688  15.776  10.807   8.854 -0.0083  0.0931 -0.0309
  106loPI   C3A 1689  15.826  10.846   8.498 -0.0233  0.0884 -0.1175
  106loPI   C4A 1690  15.838  11.069   8.143 -0.1093  0.0030 -0.1205
  106loPI   C5A 1691  15.773  11.183   7.691  0.0118 -0.0152  0.2079
  106loPI   C6A 1692  15.758  11.049   7.269  0.1277 -0.0867  0.0117
  106loPI   C1B 1693  15.387  10.475   9.139 -0.0080 -0.0561  0.0897
  106loPI   C2B 1694  15.383  10.550   8.684  0.1040  0.0373  0.1346
  106loPI   C3B 1695  15.377  10.564   8.250 -0.1842 -0.1352 -0.2341
  106loPI   C4B 1696  15.250  10.709   7.857 -0.1659  0.3303  0.2617
  107loPI    C1 1697  13.952  10.285  10.348  0.0285 -0.2890  0.1195
  107loPI    C2 1698  13.616  10.070  10.374 -0.1304 -0.0391  0.1680
  107loPI    C3 1699  13.876  10.072  10.678 -0.0818 -0.2352  0.1293
  107loPI   PO4 1700  13.938  10.317  10.032  0.0715  0.2402  0.1677
  107loPI   GL1 1701  13.669  10.214   9.691  0.1000  0.0632  0.1164
  107loPI   GL2 1702  13.755   9.851   9.523  0.2490 -0.1777  0.1411
  107loPI   C1A 1703  13.611  10.250   9.288  0.0050  0.3409 -0.1644
  107loPI   C2A 1704  13.585  10.293   8.842 -0.0094 -0.2220 -0.1304
  107loPI   C3A 1705  13.699  10.188   8.445 -0.0976 -0.2781  0.0453
  107loPI   C4A 1706  13.650  10.272   8.056 -0.0166  0.1192  0.1680
  107loPI   C5A 1707  13.403  10.327   7.603  0.1445  0.2489 -0.1854
  107loPI   C6A 1708  13.116  10.477   7.343 -0.1900  0.1635 -0.1214
  107loPI   C1B 1709  13.576   9.688   9.148  0.3396  0.2371 -0.1667
  107loPI   C2B 1710  13.416   9.397   8.858 -0.0035 -0.0851  0.0785
  107loPI   C3B 1711  13.299   9.415   8.426 -0.0112  0.0730 -0.2733
  107loPI   C4B 1712  13.330   9.423   7.942  0.0423  0.4241  0.1033
  108loPI    C1 1713   6.435  10.864  11.089  0.0481 -0.0392 -0.0139
  108loPI    C2 1714   6.616  10.538  11.235  0.2195  0.1482  0.2013
  108loPI    C3 1715   6.350  10.737  11.459 -0.0359  0.0436 -0.0043
  108loPI   PO4 1716   6.339  10.786  10.826  0.2776  0.0365 -0.0247
  108loPI   GL1 1717   6.061  10.934  10.525  0.0862 -0.0339 -0.1374
  108loPI   GL2 1718   5.891  11.153  10.513  0.2635 -0.1645 -0.0605
  108loPI   C1A 1719   6.201  10.853  10.085 -0.0096 -0.1374  0.1453
  108loPI   C2A 1720   6.276  10.801   9.668  0.0920 -0.1829  0.2667
  108loPI   C3A 1721   6.223  10.890   9.232  0.2437  0.2378  0.0671
  108loPI   C4A 1722   6.335  10.918   8.880 -0.2994 -0.3258 -0.0314
  108loPI   C5A 1723   6.076  10.962   8.512 -0.1656  0.0305 -0.2209
  108loPI   C6A 1724   5.902  10.655   8.479 -0.1933 -0.0318 -0.1043
  108loPI   C1B 1725   5.695  10.938  10.139  0.1879 -0.1560  0.2794
  108loPI   C2B 1726   5.807  10.968   9.750  0.1161  0.1359 -0.1625
  108loPI   C3B 1727   5.676  11.036   9.300 -0.4872  0.1376 -0.1970
  108loPI   C4B 1728   5.848  11.090   8.967 -0.0659 -0.0182 -0.2096
  109loPI    C1 1729   6.640   6.667  10.628 -0.0684  0.1990 -0.1779
  109loPI    C2 1730   6.642   7.031  10.794  0.2434  0.1314 -0.0250
  109loPI    C3 1731   6.593   6.707  11.024 -0.1742  0.0802 -0.1779
  109loPI   PO4 1732   6.804   6.706  10.435 -0.1790 -0.0015  0.0465
  109loPI   GL1 1733   6.991   6.679  10.035 -0.0237 -0.0989  0.2262
  109loPI   GL2 1734   6.788   6.468  10.016 -0.2674 -0.0925  0.2513
  109loPI   C1A 1735   7.399   6.676   9.916  0.0206  0.2259 -0.1539
  109loPI   C2A 1736   7.699   6.374   9.671  0.4004  0.0667 -0.2294
  109loPI   C3A 1737   7.927   6.488   9.231  0.2699  0.0474  0.0479
  109loPI   C4A 1738   7.724   6.614   8.913 -0.2094 -0.1264  0.1896
  109loPI   C5A 1739   7.503   6.807   8.578 -0.0667 -0.0507 -0.1734
  109loPI   C6A 1740   7.096   6.960   8.406  0.0384  0.1970 -0.3528
  109loPI   C1B 1741   6.672   6.126   9.691  0.0591 -0.3668  0.0642
  109loPI   C2B 1742   6.575   5.853   9.378  0.3060 -0.1780 -0.1678
  109loPI   C3B 1743   6.585   5.930   8.884  0.0722  0.0822  0.2273
  109loPI   C4B 1744   6.544   5.864   8.424  0.4826 -0.0119  0.1612
  110loPI    C1 1745   7.001  15.317  10.678  0.0719 -0.1235 -0.0467
  110loPI    C2 1746   7.243  15.119  10.928 -0.0914 -0.1319  0.1068
  110loPI    C3 1747   6.863  15.002  10.883 -0.1631  0.0892  0.1278
  110loPI   PO4 1748   7.060  15.267  10.456  0.1453 -0.1624  0.0126
  110loPI   GL1 1749   6.952  15.338  10.073 -0.3776  0.0460  0.0656
  110loPI   GL2 1750   6.690  15.187  10.017 -0.0713 -0.0295 -0.1332
  110loPI   C1A 1751   7.037  15.455   9.638  0.0180  0.1376 -0.1583
  110loPI   C2A 1752   6.999  15.448   9.296 -0.3131  0.0437 -0.2581
  110loPI   C3A 1753   6.841  15.361   8.888 -0.0928  0.2207 -0.1006
  110loPI   C4A 1754   6.890  15.445   8.440  0.0894 -0.3912 -0.4224
  110loPI   C5A 1755   6.575  15.667   8.058  0.0982 -0.1249  0.2663
  110loPI   C6A 1756   6.482  15.975   7.831 -0.1490  0.2361 -0.1457
  110loPI   C1B 1757   6.638  15.091   9.490  0.0079 -0.0354  0.1098
  110loPI   C2B 1758   6.593  15.026   9.122  0.0508  0.0901 -0.1255
  110loPI   C3B 1759   6.425  15.175   8.661  0.0562 -0.0119 -0.2274
  110loPI   C4B 1760   6.283  15.197   8.118 -0.1484 -0.0067 -0.3550
  111loPI    C1 1761   5.585  10.060  11.126  0.1935  0.0418 -0.3178
  111loPI    C2 1762   5.586   9.663  11.174 -0.0162  0.0497 -0.2354
  111loPI    C3 1763   5.910   9.877  11.270 -0.0225 -0.0639  0.0497
  111loPI   PO4 1764   5.464  10.086  10.908 -0.1164 -0.0346 -0.2791
  111loPI   GL1 1765   5.512  10.306  10.544  0.1992  0.1629  0.0063
  111loPI   GL2 1766   5.653  10.646  10.631 -0.1145 -0.2037  0.1947
  111loPI   C1A 1767   5.384  10.115  10.134  0.2976 -0.2875  0.3252
  111loPI   C2A 1768   5.374  10.174   9.655  0.2423  0.0858 -0.1509
  111loPI   C3A 1769   5.390  10.210   9.235  0.2158  0.2386  0.1924
  111loPI   C4A 1770   5.514  10.335   8.823  0.1809  0.1752  0.0448
  111loPI   C5A 1771   5.637  10.260   8.361 -0.0117 -0.0664 -0.2040
  111loPI   C6A 1772   5.723  10.249   8.009 -0.2782 -0.0400  0.1805
  111loPI   C1B 1773   5.779  10.479  10.131 -0.5478  0.0184 -0.2305
  111loPI   C2B 1774   5.750  10.518   9.657 -0.4568  0.2244  0.3090
  111loPI   C3B 1775   5.762  10.449   9.260  0.0042  0.0385 -0.4847
  111loPI   C4B 1776   5.948  10.610   8.936 -0.2328  0.0189  0.1428
  112loPI    C1 1777   5.145   2.862  10.993 -0.2983  0.0602  0.0892
  112loPI    C2 1778   4.864   2.865  11.277 -0.2631  0.2372  0.1232
  112loPI    C3 1779   5.141   3.154  11.266  0.0793 -0.0778  0.2504
  112loPI   PO4 1780   5.035   2.813  10.761 -0.2874 -0.1386 -0.0015
  112loPI   GL1 1781   4.842   2.460  10.467 -0.0352 -0.0401 -0.0438
  112loPI   GL2 1782   5.055   2.267  10.377 -0.3436  0.1752 -0.2008
  112loPI   C1A 1783   4.612   2.210  10.219  0.3745  0.1934  0.0005
  112loPI   C2A 1784   4.659   2.255   9.781  0.3842  0.1265 -0.0764
  112loPI   C3A 1785   4.748   2.314   9.277 -0.0621  0.2570  0.0654
  112loPI   C4A 1786   4.867   2.391   8.834  0.1661  0.1509  0.1602
  112loPI   C5A 1787   4.835   2.368   8.447 -0.1296  0.0837  0.0197
  112loPI   C6A 1788   4.630   2.283   8.099  0.0256  0.0121 -0.0911
  112loPI   C1B 1789   5.162   2.377   9.984 -0.4217 -0.0697 -0.0767
  112loPI   C2B 1790   5.211   2.395   9.547  0.0125  0.1141  0.1612
  112loPI   C3B 1791   5.264   2.297   9.094  0.3100  0.1145  0.0130
  112loPI   C4B 1792   5.315   2.404   8.679 -0.2380 -0.0908 -0.0164
  113loPI    C1 1793   0.606  13.966  10.556 -0.0203 -0.2343 -0.2406
  113loPI    C2 1794   0.378  14.100  10.856  0.0373 -0.1535 -0.2326
  113loPI    C3 1795   0.645  13.810  10.922  0.1922  0.0039 -0.1586
  113loPI   PO4 1796   0.369  13.908  10.396 -0.3467  0.1675 -0.2634
  113loPI   GL1 1797   0.407  14.045  10.029  0.5036  0.1708  0.0026
  113loPI   GL2 1798   0.307  13.679   9.972  0.1051 -0.0339  0.1612
  113loPI   C1A 1799   0.221  14.164   9.723 -0.3163  0.0141 -0.2007
  113loPI   C2A 1800   0.229  14.149   9.335  0.0706  0.0215  0.2259
  113loPI   C3A 1801   0.249  14.133   8.925 -0.1434  0.0114 -0.1111
  113loPI   C4A 1802   0.128  14.117   8.537 -0.1021  0.3128  0.1441
  113loPI   C5A 1803   0.114  13.953   8.110 -0.1432  0.3187  0.0632
  113loPI   C6A 1804  -0.058  13.621   7.884  0.1144 -0.0440 -0.4444
  113loPI   C1B 1805   0.317  13.665   9.534  0.0229 -0.4097  0.1619
  113loPI   C2B 1806   0.362  13.675   9.114  0.2248  0.0086  0.3232
  113loPI   C3B 1807   0.241  13.510   8.662 -0.0865 -0.1221 -0.0702
  113loPI   C4B 1808   0.291  13.394   8.227 -0.1139  0.0133 -0.2838
  114loPI    C1 1809   4.158   1.965  10.793  0.0661  0.1094 -0.0252
  114loPI    C2 1810   4.494   2.121  10.641  0.1499 -0.0151  0.0310
  114loPI    C3 1811   4.489   1.980  11.016  0.0638 -0.1093 -0.0050
  114loPI   PO4 1812   4.128   1.755  10.624 -0.1327  0.0235 -0.0149
  114loPI   GL1 1813   4.345   1.719  10.287  0.0261 -0.0119 -0.2463
  114loPI   GL2 1814   4.044   1.640  10.145  0.1054  0.1201 -0.2281
  114loPI   C1A 1815   4.470   1.834   9.925 -0.2382 -0.0374  0.0200
  114loPI   C2A 1816   4.543   1.792   9.558  0.0730  0.0439 -0.0343
  114loPI   C3A 1817   4.580   1.820   9.188  0.2781  0.1855  0.0865
  114loPI   C4A 1818   4.625   1.909   8.778  0.0374 -0.1332 -0.3201
  114loPI   C5A 1819   4.572   1.854   8.339 -0.1379 -0.2102 -0.0284
  114loPI   C6A 1820   4.561   1.839   7.847 -0.2587  0.0153 -0.0391
  114loPI   C1B 1821   4.066   1.600   9.739 -0.0508 -0.0359  0.2946
  114loPI   C2B 1822   4.044   1.699   9.364 -0.0552  0.1237  0.0500
  114loPI   C3B 1823   4.107   1.751   8.974  0.0362  0.4253 -0.3333
  114loPI   C4B 1824   4.142   1.791   8.540 -0.0161 -0.1242  0.2082
  115loPI    C1 1825   6.163  14.857  10.880 -0.2718  0.0500 -0.0390
  115loPI    C2 1826   6.398  15.032  11.153 -0.0172 -0.0934 -0.1621
  115loPI    C3 1827   6.002  15.022  11.206  0.0013  0.1621  0.0426
  115loPI   PO4 1828   6.200  14.836  10.680  0.3405  0.2442  0.0836
  115loPI   GL1 1829   6.107  14.597  10.349  0.0128  0.0862 -0.0713
  115loPI   GL2 1830   6.398  14.474  10.383  0.4998  0.4132  0.2374
  115loPI   C1A 1831   5.922  14.643  10.007  0.0541 -0.0047  0.0915
  115loPI   C2A 1832   5.782  14.669   9.658  0.2899  0.1905  0.2587
  115loPI   C3A 1833   5.691  14.527   9.312 -0.2402 -0.1028 -0.3356
  115loPI   C4A 1834   5.649  14.472   8.758 -0.1434 -0.1116  0.0615
  115loPI   C5A 1835   5.423  14.581   8.260  0.0741 -0.2157  0.0575
  115loPI   C6A 1836   5.301  14.980   8.060  0.0975 -0.0711 -0.0949
  115loPI   C1B 1837   6.356  14.327   9.958 -0.0305 -0.0148  0.3426
  115loPI   C2B 1838   6.455  14.113   9.496  0.1713  0.1074  0.3109
  115loPI   C3B 1839   6.539  14.006   9.086  0.0014  0.0979 -0.0642
  115loPI   C4B 1840   6.738  14.180   8.805  0.0910 -0.1170  0.3944
  116loPI    C1 1841   4.607  17.658  10.802 -0.0559  0.0118  0.0666
  116loPI    C2 1842   4.759  17.292  10.861 -0.2249 -0.0646  0.0335
  116loPI    C3 1843   4.734  17.550  11.166  0.0715 -0.0118  0.0156
  116loPI   PO4 1844   4.565  17.647  10.558  0.0417  0.2222 -0.1317
  116loPI   GL1 1845   4.741  17.827  10.270 -0.1378 -0.0303  0.1399
  116loPI   GL2 1846   5.031  17.740  10.119 -0.5016 -0.0689 -0.0804
  116loPI   C1A 1847   4.727  17.999   9.884  0.0898  0.1338  0.0961
  116loPI   C2A 1848   4.834  18.001   9.422 -0.0092  0.1832  0.2431
  116loPI   C3A 1849   4.688  17.959   8.973 -0.2726  0.1918  0.2333
  116loPI   C4A 1850   4.590  17.872   8.520  0.0398 -0.1731 -0.0546
  116loPI   C5A 1851   4.601  17.935   8.109 -0.0384  0.0252  0.0974
  116loPI   C6A 1852   4.585  17.923   7.687 -0.0256  0.0891 -0.1083
  116loPI   C1B 1853   5.024  17.557   9.661 -0.0809 -0.1427 -0.0889
  116loPI   C2B 1854   5.017  17.608   9.176  0.1813 -0.2537  0.2611
  116loPI   C3B 1855   5.099  17.529   8.776  0.2106  0.0525  0.1270
  116loPI   C4B 1856   5.176  17.517   8.330 -0.1269  0.0996 -0.0142
  117loPI    C1 1857  16.958   8.459  10.907  0.0207 -0.0997  0.0127
  117loPI    C2 1858  16.592   8.613  10.856  0.0209 -0.0828  0.0611
  117loPI    C3 1859  16.726   8.532  11.225  0.0908 -0.0285  0.0479
  117loPI   PO4 1860  17.068   8.506  10.632 -0.4352  0.0468 -0.1228
  117loPI   GL1 1861  17.096   8.558  10.185 -0.0250  0.2009 -0.1117
  117loPI   GL2 1862  17.004   8.792   9.920  0.0419 -0.3407  0.3811
  117loPI   C1A 1863  17.326   8.445   9.760  0.2541  0.1401  0.0894
  117loPI   C2A 1864  17.171   8.439   9.381  0.0796  0.0968  0.0223
  117loPI   C3A 1865  17.135   8.504   8.942 -0.1364  0.0497 -0.0591
  117loPI   C4A 1866  17.145   8.570   8.586 -0.0032 -0.1217 -0.1848
  117loPI   C5A 1867  17.063   8.428   8.215  0.0093  0.0264 -0.2914
  117loPI   C6A 1868  17.246   8.600   7.887  0.0511  0.2919 -0.1988
  117loPI   C1B 1869  16.956   8.929   9.437  0.1224  0.0442 -0.1280
  117loPI   C2B 1870  17.018   9.002   8.986  0.0165 -0.1287  0.1215
  117loPI   C3B 1871  16.913   9.029   8.500  0.0166  0.1305  0.2517
  117loPI   C4B 1872  16.970   8.923   8.139  0.0277 -0.1540 -0.1419
  118loPI    C1 1873   8.714   7.336  10.644 -0.0443 -0.0064  0.0647
  118loPI    C2 1874   8.837   7.132  10.965  0.0724 -0.1473 -0.0675
  118loPI    C3 1875   8.494   7.034  10.785  0.0471 -0.1199 -0.0344
  118loPI   PO4 1876   8.990   7.412  10.576  0.2237 -0.2036  0.1516
  118loPI   GL1 1877   9.148   7.694  10.247  0.1292 -0.1876  0.0711
  118loPI   GL2 1878   9.215   7.443  10.020 -0.0916  0.0797  0.0006
  118loPI   C1A 1879   9.059   7.919   9.870 -0.1110 -0.2890  0.3870
  118loPI   C2A 1880   9.054   8.074   9.470 -0.1466  0.1143  0.1089
  118loPI   C3A 1881   9.076   8.040   9.020  0.0156 -0.0578  0.1862
  118loPI   C4A 1882   8.991   7.999   8.634  0.0413  0.1961  0.1272
  118loPI   C5A 1883   8.922   8.195   8.335  0.0408 -0.0700  0.1236
  118loPI   C6A 1884   8.853   8.470   7.837 -0.0873  0.0492  0.0725
  118loPI   C1B 1885   9.145   7.537   9.568  0.0634  0.3196 -0.0291
  118loPI   C2B 1886   9.182   7.551   9.159  0.1399 -0.2611  0.0503
  118loPI   C3B 1887   9.139   7.485   8.680 -0.0798  0.3217 -0.0772
  118loPI   C4B 1888   9.020   7.695   8.251 -0.1050  0.3908  0.2286
  119loPI    C1 1889  15.503  10.283  10.648 -0.1123 -0.3795  0.1626
  119loPI    C2 1890  15.199  10.500  10.790 -0.1598 -0.1462 -0.2802
  119loPI    C3 1891  15.197  10.103  10.832 -0.3364 -0.1134  0.0581
  119loPI   PO4 1892  15.523  10.453  10.431  0.0718  0.2712  0.2258
  119loPI   GL1 1893  15.670  10.265  10.007 -0.2049  0.0787  0.0195
  119loPI   GL2 1894  15.442  10.065   9.869  0.3037  0.1236 -0.1289
  119loPI   C1A 1895  15.919  10.268   9.603  0.0045  0.0464  0.0957
  119loPI   C2A 1896  15.900  10.284   9.152  0.0287 -0.3744 -0.0304
  119loPI   C3A 1897  15.856  10.350   8.673  0.0197 -0.0476 -0.3830
  119loPI   C4A 1898  15.962  10.331   8.194  0.1369  0.0985  0.1092
  119loPI   C5A 1899  15.755  10.576   7.906 -0.0923  0.1050 -0.0338
  119loPI   C6A 1900  15.595  10.573   7.412 -0.2175 -0.2436 -0.0666
  119loPI   C1B 1901  15.490  10.009   9.337 -0.2820  0.1245  0.1626
  119loPI   C2B 1902  15.364  10.016   8.875  0.2238  0.1245  0.0387
  119loPI   C3B 1903  15.367  10.081   8.467 -0.2170 -0.0841 -0.0600
  119loPI   C4B 1904  15.516  10.086   8.049 -0.2680  0.1486  0.2344
  120loPI    C1 1905  16.178  15.550  10.602 -0.0944 -0.0050 -0.0331
  120loPI    C2 1906  16.336  15.339  10.903  0.0258  0.1535  0.0161
  120loPI    C3 1907  16.505  15.684  10.790  0.0967  0.0002 -0.3615
  120loPI   PO4 1908  16.126  15.360  10.358 -0.0210 -0.1466 -0.1938
  120loPI   GL1 1909  16.394  15.210  10.052 -0.0567  0.1371  0.0218
  120loPI   GL2 1910  16.627  15.003  10.066  0.0803  0.1068  0.0052
  120loPI   C1A 1911  16.174  15.116   9.736  0.0414 -0.1258 -0.0988
  120loPI   C2A 1912  15.782  15.261   9.608 -0.1249 -0.0198  0.0376
  120loPI   C3A 1913  15.558  15.248   9.222  0.1272  0.1007  0.1817
  120loPI   C4A 1914  15.546  15.297   8.833 -0.1976 -0.0311 -0.0013
  120loPI   C5A 1915  15.542  15.273   8.480 -0.1395  0.1109  0.0816
  120loPI   C6A 1916  15.483  15.297   8.047  0.2606 -0.2060 -0.0657
  120loPI   C1B 1917  16.709  14.864   9.660 -0.1751 -0.0447  0.1181
  120loPI   C2B 1918  16.688  14.877   9.239  0.1126  0.0803 -0.2495
  120loPI   C3B 1919  16.569  14.897   8.776 -0.2026  0.3009 -0.1474
  120loPI   C4B 1920  16.651  14.804   8.292 -0.2872  0.2176  0.2361
  121loPI    C1 1921  16.266  13.135  10.676 -0.0945  0.0307 -0.1932
  121loPI    C2 1922  16.221  13.530  10.638  0.3461  0.1138  0.0771
  121loPI    C3 1923  16.085  13.285  10.353 -0.0795  0.4445 -0.0156
  121loPI   PO4 1924  16.518  13.118  10.713 -0.1241 -0.0817  0.1520
  121loPI   GL1 1925  16.863  13.038  10.331  0.2021  0.3009  0.0941
  121loPI   GL2 1926  16.651  13.275  10.224 -0.3068 -0.3235  0.0506
  121loPI   C1A 1927  16.795  12.882   9.878 -0.0796 -0.4972 -0.3235
  121loPI   C2A 1928  16.991  12.898   9.471  0.1251 -0.1934  0.0029
  121loPI   C3A 1929  16.955  12.775   9.034 -0.2481  0.0786 -0.0125
  121loPI   C4A 1930  16.856  12.839   8.619  0.3959  0.1080 -0.1757
  121loPI   C5A 1931  16.928  13.143   8.337 -0.0455 -0.0664 -0.2556
  121loPI   C6A 1932  16.902  13.576   8.210  0.1194  0.1503 -0.3648
  121loPI   C1B 1933  16.421  13.550   9.958 -0.0948 -0.0290 -0.2348
  121loPI   C2B 1934  16.362  13.577   9.516  0.0674 -0.0508 -0.2091
  121loPI   C3B 1935  16.324  13.492   9.079 -0.1167 -0.0414  0.2844
  121loPI   C4B 1936  16.068  13.618   8.814  0.0609  0.2014 -0.1248
  122loPI    C1 1937  12.608   7.691  10.508  0.0581  0.1086  0.0518
  122loPI    C2 1938  12.920   7.698  10.758 -0.1527  0.0833  0.3202
  122loPI    C3 1939  12.642   7.413  10.794 -0.0558 -0.0724 -0.1081
  122loPI   PO4 1940  12.730   7.854  10.287  0.1227 -0.0674 -0.1673
  122loPI   GL1 1941  12.704   8.052   9.881 -0.3388  0.0609 -0.0248
  122loPI   GL2 1942  12.379   7.911   9.717  0.3399  0.2545 -0.4384
  122loPI   C1A 1943  12.691   8.324   9.534 -0.4729 -0.0685 -0.2364
  122loPI   C2A 1944  12.657   8.379   9.159  0.3264  0.2099  0.0754
  122loPI   C3A 1945  12.609   8.347   8.708  0.0919  0.0931  0.0645
  122loPI   C4A 1946  12.605   8.276   8.236 -0.2924 -0.0864  0.0069
  122loPI   C5A 1947  12.496   8.163   7.827  0.3582  0.0443  0.1390
  122loPI   C6A 1948  12.431   8.293   7.467 -0.2800 -0.2183  0.1111
  122loPI   C1B 1949  12.269   8.019   9.259 -0.1469  0.0855 -0.1528
  122loPI   C2B 1950  12.230   7.987   8.809  0.1678  0.1199 -0.0775
  122loPI   C3B 1951  12.275   7.974   8.429  0.1253  0.1311  0.2463
  122loPI   C4B 1952  12.091   7.955   8.008 -0.2133  0.0124 -0.0767
  123loPI    C1 1953   3.705  13.809  10.659 -0.0085 -0.1818 -0.0076
  123loPI    C2 1954   3.347  13.888  10.819  0.1057  0.4741 -0.0474
  123loPI    C3 1955   3.666  13.839  11.056 -0.0027 -0.1388 -0.0103
  123loPI   PO4 1956   3.659  14.019  10.442 -0.0867  0.0485  0.0417
  123loPI   GL1 1957   3.630  14.238  10.028  0.0627  0.1983  0.0417
  123loPI   GL2 1958   3.902  14.273   9.995 -0.0072 -0.1082 -0.0728
  123loPI   C1A 1959   3.594  14.178   9.530 -0.1736  0.2365  0.0118
  123loPI   C2A 1960   3.492  14.230   9.114 -0.1366 -0.3686  0.1126
  123loPI   C3A 1961   3.475  14.228   8.664 -0.1433 -0.1222 -0.3136
  123loPI   C4A 1962   3.391  14.294   8.283  0.6207 -0.1705 -0.0633
  123loPI   C5A 1963   3.149  14.127   8.009 -0.0337 -0.1207 -0.3904
  123loPI   C6A 1964   2.891  14.193   7.722  0.2204  0.1170 -0.0104
  123loPI   C1B 1965   4.095  14.266   9.623  0.1101  0.1067 -0.1403
  123loPI   C2B 1966   4.351  14.396   9.353 -0.0827  0.0391 -0.2266
  123loPI   C3B 1967   4.570  14.550   9.016  0.1484 -0.2279 -0.0382
  123loPI   C4B 1968   4.551  14.630   8.616  0.2947  0.4238 -0.1370
  124loPI    C1 1969   8.279   8.916  11.239 -0.0524 -0.0626  0.1514
  124loPI    C2 1970   8.545   8.882  11.536  0.0780  0.1488  0.0609
  124loPI    C3 1971   8.424   8.557  11.337  0.1887  0.0386  0.1724
  124loPI   PO4 1972   8.319   9.097  11.053  0.0877 -0.1759  0.1096
  124loPI   GL1 1973   8.461   9.084  10.617 -0.0443  0.2575  0.3675
  124loPI   GL2 1974   8.709   8.901  10.548 -0.1316  0.0135  0.1118
  124loPI   C1A 1975   8.434   9.104  10.159 -0.0676 -0.1932  0.1465
  124loPI   C2A 1976   8.375   9.175   9.681 -0.1001  0.0907  0.3236
  124loPI   C3A 1977   8.345   9.207   9.293  0.4052 -0.3452  0.1175
  124loPI   C4A 1978   8.355   9.206   8.875  0.0405 -0.1713 -0.1493
  124loPI   C5A 1979   8.528   9.138   8.445 -0.0415  0.0033  0.0254
  124loPI   C6A 1980   8.752   9.413   8.202  0.1347 -0.0323  0.0151
  124loPI   C1B 1981   8.906   8.905  10.090  0.1851 -0.1639  0.2939
  124loPI   C2B 1982   8.882   9.049   9.622  0.3381  0.1330  0.1175
  124loPI   C3B 1983   8.913   9.110   9.180 -0.0273 -0.0107 -0.0451
  124loPI   C4B 1984   8.830   9.119   8.827  0.2396 -0.0601 -0.0032
  125loPI    C1 1985   5.949   8.401  10.876 -0.1015  0.0981  0.0101
  125loPI    C2 1986   6.242   8.644  10.999  0.1308 -0.2380  0.1343
  125loPI    C3 1987   5.940   8.556  11.245  0.1730 -0.2670  0.1759
  125loPI   PO4 1988   5.944   8.401  10.716  0.1396 -0.0453 -0.0405
  125loPI   GL1 1989   6.101   8.658  10.417 -0.3754  0.2487  0.1301
  125loPI   GL2 1990   6.084   8.977  10.261 -0.0903  0.2132 -0.1351
  125loPI   C1A 1991   6.120   8.486   9.922  0.0388 -0.0752  0.1267
  125loPI   C2A 1992   6.176   8.510   9.398 -0.0607 -0.3106 -0.0748
  125loPI   C3A 1993   6.173   8.572   8.966 -0.2582  0.3576 -0.1053
  125loPI   C4A 1994   6.159   8.604   8.584  0.2555 -0.1970 -0.0496
  125loPI   C5A 1995   5.939   8.899   8.273  0.0527 -0.0354 -0.0934
  125loPI   C6A 1996   5.860   9.361   8.267 -0.1505 -0.0309  0.0508
  125loPI   C1B 1997   6.042   9.014   9.855 -0.1077  0.2365  0.1976
  125loPI   C2B 1998   6.124   9.030   9.383  0.1837 -0.0176  0.3286
  125loPI   C3B 1999   6.071   9.062   8.955  0.1071 -0.1618 -0.0601
  125loPI   C4B 2000   6.250   9.150   8.547  0.3321 -0.0051 -0.0907
  126loPI    C1 2001   4.762   9.743  11.205  0.0783  0.2597  0.0084
  126loPI    C2 2002   5.138   9.876  11.232  0.1784  0.0446 -0.2727
  126loPI    C3 2003   4.996   9.622  11.506  0.1851  0.2469 -0.0789
  126loPI   PO4 2004   4.734   9.709  10.914 -0.1092  0.1249 -0.0896
  126loPI   GL1 2005   4.385   9.639  10.600  0.1435  0.2249 -0.0291
  126loPI   GL2 2006   4.511   9.890  10.411 -0.0590  0.0385  0.0374
  126loPI   C1A 2007   4.379   9.390  10.218 -0.2536 -0.2185  0.2923
  126loPI   C2A 2008   4.624   9.512   9.860 -0.0269 -0.0569  0.2035
  126loPI   C3A 2009   4.528   9.459   9.454 -0.1249 -0.1094 -0.1006
  126loPI   C4A 2010   4.604   9.455   9.100  0.0584  0.3394  0.2292
  126loPI   C5A 2011   4.472   9.374   8.738 -0.0615 -0.0085  0.2202
  126loPI   C6A 2012   4.139   9.178   8.453  0.0187  0.0380  0.0358
  126loPI   C1B 2013   4.470  10.058   9.968 -0.0414 -0.1331  0.1461
  126loPI   C2B 2014   4.491   9.978   9.558  0.0881 -0.1673  0.0148
  126loPI   C3B 2015   4.533  10.038   9.177  0.3322  0.1630 -0.2185
  126loPI   C4B 2016   4.591  10.161   8.723 -0.0048  0.1201  0.0532
  127loPI    C1 2017   4.359  13.348  10.787 -0.0109 -0.1467 -0.1921
  127loPI    C2 2018   4.081  13.454  11.055  0.0599 -0.1254 -0.1264
  127loPI    C3 2019   4.357  13.182  11.151  0.1473 -0.0432 -0.1428
  127loPI   PO4 2020   4.274  13.331  10.564  0.2592  0.0675  0.0782
  127loPI   GL1 2021   3.929  13.401  10.240  0.1115 -0.2209 -0.3633
  127loPI   GL2 2022   3.682  13.602  10.132  0.2261  0.1581 -0.1345
  127loPI   C1A 2023   3.945  13.286   9.843  0.0475  0.0426  0.4014
  127loPI   C2A 2024   3.958  13.360   9.441  0.0940 -0.0222  0.1259
  127loPI   C3A 2025   4.164  13.214   9.123  0.0585  0.0526  0.0087
  127loPI   C4A 2026   4.410  13.280   8.779  0.3374  0.2129  0.0265
  127loPI   C5A 2027   4.685  13.645   8.685 -0.0115  0.1085 -0.5373
  127loPI   C6A 2028   5.032  13.736   8.479 -0.2128  0.0587 -0.2755
  127loPI   C1B 2029   3.521  13.642   9.710 -0.4071 -0.1785  0.0039
  127loPI   C2B 2030   3.658  13.748   9.217  0.1865 -0.2291  0.0144
  127loPI   C3B 2031   3.613  13.710   8.780 -0.0254  0.3425  0.3193
  127loPI   C4B 2032   3.395  13.392   8.627 -0.0174 -0.0055  0.0192
  128loPI    C1 2033  17.519  10.926  11.007  0.0293  0.1725 -0.1435
  128loPI    C2 2034  17.161  11.104  11.031 -0.0854 -0.0796  0.0739
  128loPI    C3 2035  17.322  10.934  11.356  0.2026 -0.0271 -0.0383
  128loPI   PO4 2036  17.661  11.097  10.902  0.0994 -0.1782 -0.0987
  128loPI   GL1 2037  17.929  11.005  10.564  0.0120 -0.0166  0.0161
  128loPI   GL2 2038  17.652  10.893  10.381  0.2521 -0.0768  0.3287
  128loPI   C1A 2039  17.942  10.966  10.008 -0.2104 -0.1902 -0.0387
  128loPI   C2A 2040  18.131  10.924   9.644  0.2250 -0.3718  0.1169
  128loPI   C3A 2041  18.083  10.887   9.134 -0.4307  0.0141  0.2196
  128loPI   C4A 2042  18.086  10.876   8.651 -0.1609 -0.2773  0.0686
  128loPI   C5A 2043  17.737  10.873   8.296 -0.1741 -0.0951  0.0238
  128loPI   C6A 2044  17.645  10.740   7.796 -0.0146  0.3328  0.1118
  128loPI   C1B 2045  17.488  11.151   9.955 -0.0960 -0.2697 -0.0072
  128loPI   C2B 2046  17.651  11.139   9.625  0.1512 -0.2785 -0.0221
  128loPI   C3B 2047  17.592  11.094   9.112  0.0440  0.0616  0.2846
  128loPI   C4B 2048  17.506  11.056   8.712  0.0722 -0.0008  0.2017
  129loPI    C1 2049  10.822   1.321  10.136  0.0905 -0.0796  0.0549
  129loPI    C2 2050  10.636   1.540  10.414 -0.2069  0.1378 -0.3061
  129loPI    C3 2051  10.428   1.281  10.191  0.0344 -0.0591 -0.3067
  129loPI   PO4 2052  10.997   1.570   9.993  0.3251 -0.2382 -0.1982
  129loPI   GL1 2053  11.295   1.480   9.735 -0.2767 -0.2883 -0.0124
  129loPI   GL2 2054  11.118   1.785   9.588 -0.0705 -0.1652  0.1444
  129loPI   C1A 2055  10.975   1.286   9.393  0.1023 -0.2217 -0.1884
  129loPI   C2A 2056  10.950   1.134   9.069 -0.2441  0.0048  0.0997
  129loPI   C3A 2057  10.769   0.815   8.755  0.0323  0.6295  0.2321
  129loPI   C4A 2058  10.673   0.598   8.402  0.2995  0.1005  0.1929
  129loPI   C5A 2059  10.528   0.829   8.094 -0.1677 -0.1034  0.4136
  129loPI   C6A 2060  10.447   1.052   7.717 -0.1826  0.1738  0.1914
  129loPI   C1B 2061  11.082   1.773   9.190  0.3379  0.0994 -0.0524
  129loPI   C2B 2062  11.169   1.550   8.850 -0.1147  0.2046  0.0052
  129loPI   C3B 2063  11.253   1.498   8.464 -0.2036 -0.2533 -0.0138
  129loPI   C4B 2064  11.377   1.187   8.135  0.0748  0.1796  0.2684
  130loPI    C1 2065   2.996  13.510  10.967 -0.1363 -0.1237  0.0352
  130loPI    C2 2066   3.045  13.155  11.144  0.0497 -0.1126  0.0079
  130loPI    C3 2067   2.777  13.415  11.288  0.2757 -0.0585  0.3436
  130loPI   PO4 2068   3.028  13.474  10.779  0.0891 -0.2141 -0.4213
  130loPI   GL1 2069   3.394  13.475  10.524  0.1153  0.2049  0.0905
  130loPI   GL2 2070   3.209  13.711  10.314 -0.2193  0.1313  0.1789
  130loPI   C1A 2071   3.471  13.140  10.297  0.0962  0.1410 -0.1744
  130loPI   C2A 2072   3.679  12.846   9.934  0.0867  0.4701  0.0127
  130loPI   C3A 2073   3.820  12.794   9.563 -0.1034  0.1512 -0.3500
  130loPI   C4A 2074   3.760  12.787   9.112  0.2314 -0.0871  0.0263
  130loPI   C5A 2075   3.729  12.733   8.717  0.0527 -0.0475  0.0989
  130loPI   C6A 2076   3.946  12.902   8.311 -0.1959 -0.1037 -0.0029
  130loPI   C1B 2077   3.186  13.922   9.923 -0.0179 -0.2950 -0.3301
  130loPI   C2B 2078   3.149  13.960   9.532 -0.0819 -0.5894  0.1927
  130loPI   C3B 2079   3.068  13.971   9.098 -0.2559  0.1077 -0.0417
  130loPI   C4B 2080   3.155  13.894   8.631 -0.0423  0.1951  0.0991
  131loPI    C1 2081  14.249   9.895  10.349 -0.2804 -0.2711 -0.0694
  131loPI    C2 2082  14.533   9.623  10.427 -0.2074 -0.1527  0.0814
  131loPI    C3 2083  14.429   9.891  10.706 -0.2494  0.0014 -0.0798
  131loPI   PO4 2084  14.102   9.822  10.243 -0.1528  0.2412 -0.0090
  131loPI   GL1 2085  14.189   9.635   9.883 -0.0014 -0.0232  0.0325
  131loPI   GL2 2086  14.233   9.981   9.750 -0.0768 -0.3412  0.1611
  131loPI   C1A 2087  14.173   9.574   9.491 -0.1790 -0.1111  0.1021
  131loPI   C2A 2088  14.264   9.525   9.061  0.1672 -0.0053  0.1406
  131loPI   C3A 2089  14.183   9.568   8.694  0.1493  0.2536 -0.0361
  131loPI   C4A 2090  14.119   9.523   8.344  0.0806 -0.1882  0.1850
  131loPI   C5A 2091  14.171   9.517   7.922 -0.0988  0.1928 -0.0101
  131loPI   C6A 2092  14.451   9.877   7.750 -0.5029 -0.0581  0.1305
  131loPI   C1B 2093  14.154  10.017   9.281 -0.0992  0.2789 -0.3660
  131loPI   C2B 2094  13.962   9.941   8.950  0.0936 -0.0509  0.2290
  131loPI   C3B 2095  13.727   9.759   8.678  0.0305 -0.2414 -0.0112
  131loPI   C4B 2096  13.613   9.730   8.272 -0.0565  0.0716  0.0918
  132loPI    C1 2097   5.670  16.456  10.626 -0.1916  0.2328 -0.2183
  132loPI    C2 2098   5.419  16.155  10.545  0.0591  0.0250 -0.2352
  132loPI    C3 2099   5.632  16.152  10.884 -0.1106  0.3027 -0.1233
  132loPI   PO4 2100   5.735  16.530  10.435 -0.0701  0.0112 -0.1955
  132loPI   GL1 2101   5.530  16.451  10.089  0.1531  0.1593 -0.1361
  132loPI   GL2 2102   5.745  16.647   9.863  0.1472 -0.0547  0.1942
  132loPI   C1A 2103   5.260  16.580   9.801  0.3117  0.3751 -0.0038
  132loPI   C2A 2104   5.223  16.641   9.390  0.2886 -0.0435  0.0258
  132loPI   C3A 2105   5.270  16.659   8.979  0.1169  0.1051  0.1058
  132loPI   C4A 2106   5.217  16.615   8.569 -0.1390  0.2010  0.0855
  132loPI   C5A 2107   5.280  16.608   8.170 -0.0757  0.2796 -0.1395
  132loPI   C6A 2108   5.497  16.341   7.905  0.2718 -0.0319  0.1638
  132loPI   C1B 2109   5.666  16.829   9.427 -0.2183  0.1483  0.2101
  132loPI   C2B 2110   5.852  16.868   9.060 -0.2163 -0.3146  0.4390
  132loPI   C3B 2111   6.086  16.882   8.707  0.3321  0.1406  0.2492
  132loPI   C4B 2112   6.150  16.477   8.571 -0.1144  0.0477 -0.1162
  133loPI    C1 2113  11.710   8.103  10.273 -0.0113  0.0902  0.2287
  133loPI    C2 2114  11.794   8.381  10.548 -0.2190  0.0558  0.3287
  133loPI    C3 2115  11.805   7.993  10.646 -0.0172  0.0310  0.2128
  133loPI   PO4 2116  11.839   8.160  10.101  0.2191  0.0067  0.5397
  133loPI   GL1 2117  11.941   8.124   9.613  0.0954 -0.3042 -0.1518
  133loPI   GL2 2118  11.650   7.998   9.646  0.1176 -0.0533  0.3096
  133loPI   C1A 2119  11.781   8.244   9.215  0.1008  0.2890 -0.0455
  133loPI   C2A 2120  11.802   8.169   8.676  0.2528  0.0384 -0.0464
  133loPI   C3A 2121  11.716   8.203   8.260  0.0647  0.0383  0.1346
  133loPI   C4A 2122  11.624   7.991   7.868  0.2994  0.2261 -0.0928
  133loPI   C5A 2123  11.647   7.730   7.538 -0.0454 -0.1540 -0.1714
  133loPI   C6A 2124  11.888   7.780   7.092  0.0021 -0.0024 -0.0613
  133loPI   C1B 2125  11.490   7.898   9.359 -0.1769  0.1781 -0.0777
  133loPI   C2B 2126  11.364   7.921   8.900  0.2669  0.0984  0.0345
  133loPI   C3B 2127  11.378   7.898   8.480  0.0299  0.1217  0.1103
  133loPI   C4B 2128  11.222   7.744   8.150 -0.0293 -0.0805 -0.1842
  134loPI    C1 2129  13.735  12.935  10.943 -0.0332 -0.0941  0.0570
  134loPI    C2 2130  13.517  12.608  11.020  0.0145 -0.1131  0.1119
  134loPI    C3 2131  13.427  12.956  11.197  0.1539 -0.1680  0.2944
  134loPI   PO4 2132  13.835  12.809  10.659 -0.1808  0.0356  0.0506
  134loPI   GL1 2133  14.007  13.116  10.327 -0.0803  0.3526  0.0289
  134loPI   GL2 2134  14.055  12.795  10.129  0.1783  0.0338  0.3079
  134loPI   C1A 2135  14.028  13.448  10.139 -0.0435 -0.1945 -0.1874
  134loPI   C2A 2136  14.130  13.438   9.679  0.1754 -0.1943 -0.0350
  134loPI   C3A 2137  14.096  13.493   9.233 -0.1283  0.0248 -0.1573
  134loPI   C4A 2138  14.006  13.578   8.808 -0.0695 -0.1418 -0.0986
  134loPI   C5A 2139  14.073  13.488   8.368  0.0534 -0.0980 -0.1581
  134loPI   C6A 2140  14.339  13.405   8.038 -0.0534 -0.1280  0.0762
  134loPI   C1B 2141  14.183  12.932   9.775 -0.0910  0.2115  0.1493
  134loPI   C2B 2142  14.133  12.904   9.327  0.1433  0.0613  0.2190
  134loPI   C3B 2143  14.186  13.011   8.843  0.0749 -0.1297  0.0178
  134loPI   C4B 2144  14.216  12.981   8.405  0.1562 -0.0019 -0.0742
  135loPI    C1 2145  15.949  11.242  10.304  0.0001  0.0001  0.0135
  135loPI    C2 2146  16.149  11.079   9.997 -0.0406 -0.2051  0.0945
  135loPI    C3 2147  16.320  11.101  10.358  0.0492  0.1359  0.0346
  135loPI   PO4 2148  15.860  11.471  10.214  0.4226 -0.0395 -0.0279
  135loPI   GL1 2149  16.099  11.694  10.040  0.1995 -0.3160 -0.1002
  135loPI   GL2 2150  16.261  11.918  10.053  0.0119 -0.1529  0.0411
  135loPI   C1A 2151  16.169  11.526   9.713  0.3723 -0.3620  0.1020
  135loPI   C2A 2152  16.153  11.725   9.308  0.4323 -0.1475  0.1966
  135loPI   C3A 2153  16.087  11.674   9.002 -0.1552  0.0319  0.3576
  135loPI   C4A 2154  16.028  11.676   8.664 -0.0667  0.0854 -0.1714
  135loPI   C5A 2155  16.244  11.360   8.376  0.2307 -0.0132 -0.0031
  135loPI   C6A 2156  16.366  11.328   7.950 -0.1043  0.0288 -0.2374
  135loPI   C1B 2157  16.476  12.082   9.681 -0.0888 -0.1450 -0.3754
  135loPI   C2B 2158  16.578  12.072   9.340  0.1374 -0.0448  0.0003
  135loPI   C3B 2159  16.532  11.915   8.873  0.1161 -0.0102  0.3058
  135loPI   C4B 2160  16.596  11.856   8.418  0.2377  0.0447  0.3406
  136loPI    C1 2161  13.529  17.335  10.918 -0.1686 -0.2244  0.1564
  136loPI    C2 2162  13.469  17.468  10.546  0.0893 -0.1103  0.1537
  136loPI    C3 2163  13.219  17.200  10.705 -0.1434 -0.0027 -0.0248
  136loPI   PO4 2164  13.807  17.278  10.840  0.0520 -0.0993  0.1636
  136loPI   GL1 2165  14.022  17.353  10.457  0.2535  0.0875  0.2482
  136loPI   GL2 2166  13.820  17.096  10.326 -0.2820  0.1771 -0.1048
  136loPI   C1A 2167  13.952  17.434   9.988 -0.0777 -0.0628  0.0195
  136loPI   C2A 2168  14.060  17.389   9.511  0.0668 -0.1621  0.0150
  136loPI   C3A 2169  14.049  17.405   9.150 -0.0875 -0.0815  0.1594
  136loPI   C4A 2170  13.852  17.391   8.741 -0.3558 -0.1024 -0.3307
  136loPI   C5A 2171  13.889  17.428   8.304  0.1219 -0.2513  0.3696
  136loPI   C6A 2172  13.932  17.397   7.865  0.1594  0.2002  0.0031
  136loPI   C1B 2173  13.670  16.992   9.934 -0.0735 -0.0905 -0.0127
  136loPI   C2B 2174  13.594  17.014   9.505  0.2281  0.1255  0.1148
  136loPI   C3B 2175  13.634  17.047   9.029  0.2896  0.1191  0.0095
  136loPI   C4B 2176  13.478  17.135   8.637 -0.1588 -0.1766 -0.3260
  137loPI    C1 2177   1.937  16.558  10.535 -0.0311  0.0761 -0.1918
  137loPI    C2 2178   2.046  16.941  10.574  0.1175  0.0220 -0.0683
  137loPI    C3 2179   2.059  16.696  10.890  0.0137 -0.0833 -0.1449
  137loPI   PO4 2180   2.017  16.536  10.329  0.0650 -0.0220  0.3171
  137loPI   GL1 2181   2.069  16.636  10.031 -0.3890 -0.0590  0.2761
  137loPI   GL2 2182   2.016  16.853   9.783  0.0248 -0.0600  0.0118
  137loPI   C1A 2183   2.185  16.402   9.687 -0.2868 -0.0300  0.2168
  137loPI   C2A 2184   2.240  16.260   9.374  0.1673 -0.1861  0.0733
  137loPI   C3A 2185   2.231  16.039   8.931  0.1660  0.1086 -0.2671
  137loPI   C4A 2186   2.317  16.020   8.528  0.0698 -0.1088 -0.2316
  137loPI   C5A 2187   2.345  15.746   8.295  0.3167 -0.1638 -0.2079
  137loPI   C6A 2188   2.404  15.445   7.868  0.1511  0.1472  0.0116
  137loPI   C1B 2189   1.865  16.887   9.301  0.1622  0.1662  0.0089
  137loPI   C2B 2190   1.786  16.882   8.898 -0.1729 -0.0083  0.4968
  137loPI   C3B 2191   1.633  16.856   8.385 -0.0584 -0.3033 -0.1586
  137loPI   C4B 2192   1.566  16.617   7.949 -0.1317  0.0176 -0.1369
  138loPI    C1 2193  13.581  16.830  10.683  0.1078  0.2490  0.2990
  138loPI    C2 2194  13.203  16.710  10.739  0.1619 -0.0037  0.1412
  138loPI    C3 2195  13.419  16.844  11.048 -0.1145  0.3222  0.2000
  138loPI   PO4 2196  13.653  16.659  10.542 -0.0065 -0.2127 -0.2463
  138loPI   GL1 2197  13.880  16.495  10.245 -0.0395 -0.0556 -0.1592
  138loPI   GL2 2198  14.137  16.731  10.192 -0.2712 -0.0075  0.0853
  138loPI   C1A 2199  13.671  16.458   9.831 -0.0744  0.2457 -0.2807
  138loPI   C2A 2200  13.746  16.552   9.459 -0.0098  0.3588 -0.1777
  138loPI   C3A 2201  13.711  16.516   8.997 -0.4264 -0.0213  0.0532
  138loPI   C4A 2202  13.614  16.653   8.552 -0.3477 -0.3217 -0.0194
  138loPI   C5A 2203  13.733  16.957   8.243 -0.0743  0.2464 -0.2404
  138loPI   C6A 2204  14.132  16.945   8.041 -0.0306  0.0986 -0.2815
  138loPI   C1B 2205  14.089  16.762   9.788  0.1070 -0.0441 -0.2049
  138loPI   C2B 2206  14.134  16.835   9.393 -0.2727 -0.0900  0.0031
  138loPI   C3B 2207  14.086  16.828   9.005 -0.0525  0.0903 -0.1140
  138loPI   C4B 2208  14.088  16.961   8.572  0.1710 -0.2946  0.0595
  139loPI    C1 2209   3.534   6.165  10.776  0.0631  0.0711 -0.0535
  139loPI    C2 2210   3.521   6.232  11.170  0.2087  0.0594 -0.0463
  139loPI    C3 2211   3.648   5.879  11.031  0.0295  0.0153 -0.1006
  139loPI   PO4 2212   3.314   6.183  10.708  0.2136  0.0723 -0.5038
  139loPI   GL1 2213   2.892   6.259  10.422  0.1587  0.0089  0.2819
  139loPI   GL2 2214   2.683   6.035  10.388  0.0983  0.1741  0.3398
  139loPI   C1A 2215   3.126   6.440  10.035  0.2492  0.0681  0.1887
  139loPI   C2A 2216   3.125   6.486   9.563  0.1336 -0.1856 -0.0618
  139loPI   C3A 2217   3.182   6.434   9.079 -0.2176 -0.1765  0.1458
  139loPI   C4A 2218   3.178   6.504   8.624 -0.0858 -0.0103 -0.0359
  139loPI   C5A 2219   3.245   6.601   8.193 -0.0016 -0.2945  0.0505
  139loPI   C6A 2220   3.223   6.547   7.823 -0.1057 -0.0938 -0.4600
  139loPI   C1B 2221   2.875   5.979  10.011 -0.2033  0.1903  0.2119
  139loPI   C2B 2222   2.850   5.950   9.608 -0.1884  0.0378 -0.2314
  139loPI   C3B 2223   2.890   6.034   9.208  0.1322  0.1059  0.3266
  139loPI   C4B 2224   2.931   6.029   8.759  0.3671 -0.0650  0.0466
  140loPI    C1 2225   2.940   1.276  10.830  0.0843  0.0507  0.0439
  140loPI    C2 2226   2.938   1.632  10.647 -0.0073  0.0536  0.0500
  140loPI    C3 2227   3.028   1.607  11.036  0.0498  0.0638  0.0375
  140loPI   PO4 2228   2.695   1.160  10.744  0.1054 -0.1254 -0.0858
  140loPI   GL1 2229   2.575   0.967  10.248  0.0825  0.0132  0.0950
  140loPI   GL2 2230   2.233   0.890  10.080 -0.0842  0.1469  0.1875
  140loPI   C1A 2231   2.507   1.369  10.035 -0.4352 -0.1876 -0.2287
  140loPI   C2A 2232   2.469   1.444   9.625  0.1291  0.2819 -0.1164
  140loPI   C3A 2233   2.572   1.455   9.167 -0.0768  0.0808  0.4513
  140loPI   C4A 2234   2.578   1.406   8.728 -0.0104  0.2492  0.1520
  140loPI   C5A 2235   2.723   1.583   8.382  0.1383 -0.3303  0.0030
  140loPI   C6A 2236   2.986   1.596   8.007  0.2076  0.3184  0.0690
  140loPI   C1B 2237   2.374   0.917   9.650 -0.0308 -0.3371 -0.1348
  140loPI   C2B 2238   2.358   0.985   9.183 -0.0593  0.0510  0.0228
  140loPI   C3B 2239   2.351   0.977   8.703  0.0765 -0.0089 -0.4707
  140loPI   C4B 2240   2.503   1.070   8.353 -0.0197  0.0998  0.1293
  141loPI    C1 2241  11.052  13.469  10.954 -0.1875 -0.2205  0.1178
  141loPI    C2 2242  11.410  13.306  10.882 -0.1073  0.0695 -0.1658
  141loPI    C3 2243  11.304  13.399  11.257  0.1388  0.0388 -0.0863
  141loPI   PO4 2244  11.011  13.583  10.691  0.0735 -0.1558 -0.1265
  141loPI   GL1 2245  11.120  13.956  10.403  0.0606 -0.0086  0.0228
  141loPI   GL2 2246  10.987  13.831  10.241 -0.0319  0.1030  0.1303
  141loPI   C1A 2247  11.331  14.174  10.046 -0.0005  0.0753 -0.0019
  141loPI   C2A 2248  11.328  14.108   9.598  0.0768 -0.0697 -0.0159
  141loPI   C3A 2249  11.143  13.994   9.179 -0.3394 -0.0147  0.2925
  141loPI   C4A 2250  11.237  14.072   8.787 -0.1240  0.0026  0.4418
  141loPI   C5A 2251  11.106  14.083   8.420  0.1482 -0.3103 -0.1010
  141loPI   C6A 2252  10.909  13.720   8.253  0.2159  0.0161  0.1268
  141loPI   C1B 2253  10.925  13.838   9.775  0.0926 -0.3260  0.1896
  141loPI   C2B 2254  10.812  13.730   9.431  0.0135 -0.3646  0.1652
  141loPI   C3B 2255  10.725  13.786   9.148  0.1661  0.4014  0.0150
  141loPI   C4B 2256  10.818  13.739   8.733 -0.0943  0.3118  0.1345
  142loPI    C1 2257   8.386  14.057  11.052 -0.1735  0.0678 -0.2593
  142loPI    C2 2258   7.990  14.060  11.107 -0.1471 -0.0881 -0.0502
  142loPI    C3 2259   8.227  13.866  11.365  0.0792  0.1292 -0.0903
  142loPI   PO4 2260   8.364  14.133  10.737 -0.3052  0.0044 -0.0655
  142loPI   GL1 2261   8.575  14.540  10.495  0.0503 -0.1204  0.1713
  142loPI   GL2 2262   8.832  14.655  10.610 -0.2841  0.4161 -0.1873
  142loPI   C1A 2263   8.475  14.407  10.056  0.1809  0.1598 -0.1175
  142loPI   C2A 2264   8.598  14.394   9.583  0.2877  0.1804 -0.1321
  142loPI   C3A 2265   8.554  14.331   9.171 -0.0604 -0.0946  0.0300
  142loPI   C4A 2266   8.460  14.384   8.790  0.1522 -0.1806 -0.0113
  142loPI   C5A 2267   8.613  14.498   8.410  0.1211 -0.2325  0.0372
  142loPI   C6A 2268   9.052  14.609   8.304  0.0702 -0.2142 -0.3040
  142loPI   C1B 2269   8.965  14.642  10.202  0.0064 -0.0149  0.0533
  142loPI   C2B 2270   9.029  14.725   9.762  0.0108 -0.1347  0.0699
  142loPI   C3B 2271   9.051  14.709   9.426  0.1343 -0.0958  0.0868
  142loPI   C4B 2272   8.894  14.657   8.941  0.2849 -0.0503  0.0145
  143loPI    C1 2273  16.294   7.960  10.127 -0.1899  0.0501 -0.1434
  143loPI    C2 2274  15.991   8.079  10.360  0.0033  0.2957 -0.0122
  143loPI    C3 2275  16.331   7.947  10.525  0.0211  0.1554 -0.1583
  143loPI   PO4 2276  16.375   8.116   9.996  0.0654  0.0847 -0.1722
  143loPI   GL1 2277  16.277   8.247   9.650  0.1563 -0.0229 -0.1549
  143loPI   GL2 2278  16.435   8.563   9.651 -0.1205 -0.0417 -0.0060
  143loPI   C1A 2279  16.273   8.281   9.262 -0.2301  0.1465 -0.3328
  143loPI   C2A 2280  16.251   8.335   8.759  0.2433  0.0499 -0.1576
  143loPI   C3A 2281  16.177   8.288   8.290 -0.1513 -0.1120  0.0114
  143loPI   C4A 2282  16.141   8.222   7.823  0.2505  0.0642  0.1852
  143loPI   C5A 2283  16.025   7.947   7.498 -0.0060  0.0054 -0.0928
  143loPI   C6A 2284  15.743   7.711   7.333  0.0774  0.1619 -0.0569
  143loPI   C1B 2285  16.569   8.658   9.243  0.1317 -0.1208 -0.1691
  143loPI   C2B 2286  16.674   8.678   8.820 -0.1978  0.1332  0.1307
  143loPI   C3B 2287  16.594   8.591   8.447  0.1062  0.0902 -0.0466
  143loPI   C4B 2288  16.510   8.593   7.980  0.0292 -0.1537  0.0235
  144loPI    C1 2289  13.570  16.341  10.899 -0.3246  0.0422  0.0215
  144loPI    C2 2290  13.898  16.557  10.973 -0.2524  0.0161 -0.2169
  144loPI    C3 2291  13.648  16.467  11.271 -0.0363  0.0242 -0.0305
  144loPI   PO4 2292  13.682  16.132  10.720  0.2974  0.3618  0.1578
  144loPI   GL1 2293  13.672  15.797  10.471 -0.0741 -0.2654  0.2080
  144loPI   GL2 2294  13.479  15.707  10.304 -0.1776 -0.0616  0.3071
  144loPI   C1A 2295  13.782  16.012  10.042 -0.0447 -0.2609  0.2505
  144loPI   C2A 2296  13.791  15.942   9.657 -0.0600 -0.2474  0.1624
  144loPI   C3A 2297  13.840  16.017   9.243  0.0519  0.1640 -0.1033
  144loPI   C4A 2298  13.721  15.926   8.831  0.3140  0.0488 -0.0553
  144loPI   C5A 2299  13.588  16.104   8.376 -0.1255  0.1152 -0.1434
  144loPI   C6A 2300  13.298  15.801   8.160  0.0483  0.1265 -0.0424
  144loPI   C1B 2301  13.368  15.697   9.853  0.1139  0.0383 -0.0644
  144loPI   C2B 2302  13.427  15.661   9.364  0.1205 -0.2423 -0.1486
  144loPI   C3B 2303  13.245  15.710   9.063  0.1354  0.1589 -0.0773
  144loPI   C4B 2304  13.265  15.710   8.641  0.1061  0.2376 -0.1065
  145loPI    C1 2305  11.355   9.161  10.412  0.0472 -0.2471  0.0197
  145loPI    C2 2306  11.432   9.008  10.773 -0.2144 -0.0763  0.1518
  145loPI    C3 2307  11.072   9.162  10.695 -0.0698  0.1469 -0.0916
  145loPI   PO4 2308  11.487   9.351  10.303 -0.0854  0.2172 -0.1698
  145loPI   GL1 2309  11.593   9.456   9.910  0.3393  0.1906  0.0020
  145loPI   GL2 2310  11.651   9.119   9.854  0.2353 -0.4887 -0.0233
  145loPI   C1A 2311  11.465   9.654   9.586  0.0714 -0.1105  0.3707
  145loPI   C2A 2312  11.406   9.782   9.189  0.0031 -0.0558 -0.0328
  145loPI   C3A 2313  11.458   9.721   8.763 -0.0311 -0.1712  0.0553
  145loPI   C4A 2314  11.491   9.777   8.331  0.1414  0.0500  0.0031
  145loPI   C5A 2315  11.721   9.699   7.981  0.1203  0.0386  0.3176
  145loPI   C6A 2316  11.860   9.499   7.657 -0.1977  0.2158  0.1929
  145loPI   C1B 2317  11.587   9.151   9.359 -0.3014  0.0586  0.0462
  145loPI   C2B 2318  11.551   9.237   8.949 -0.0420  0.0980  0.2285
  145loPI   C3B 2319  11.579   9.148   8.543 -0.1301 -0.3827 -0.2290
  145loPI   C4B 2320  11.531   9.264   8.151 -0.0739  0.0027 -0.0754
  146loPI    C1 2321  15.948   2.676  10.179 -0.0290  0.0193 -0.3739
  146loPI    C2 2322  15.981   2.315  10.010 -0.0329 -0.0506 -0.2267
  146loPI    C3 2323  15.912   2.346  10.403  0.0230  0.1109 -0.2290
  146loPI   PO4 2324  15.834   2.828   9.939 -0.2693  0.0254  0.0711
  146loPI   GL1 2325  15.889   2.815   9.566 -0.1206 -0.0226  0.3082
  146loPI   GL2 2326  15.628   2.983   9.546  0.0268  0.0359  0.3440
  146loPI   C1A 2327  15.777   2.770   9.155  0.0797 -0.0694  0.1422
  146loPI   C2A 2328  15.735   2.792   8.713  0.0111 -0.2343  0.0791
  146loPI   C3A 2329  15.673   2.746   8.263  0.0569 -0.1663  0.0099
  146loPI   C4A 2330  15.324   2.500   7.970  0.0831  0.1116 -0.0025
  146loPI   C5A 2331  15.256   2.347   7.594 -0.3030  0.0809 -0.0997
  146loPI   C6A 2332  15.155   2.344   7.152 -0.0067 -0.2776 -0.0971
  146loPI   C1B 2333  15.723   3.276   9.289  0.0429 -0.1271  0.2262
  146loPI   C2B 2334  15.709   3.408   8.890 -0.2461 -0.0110  0.0362
  146loPI   C3B 2335  15.730   3.196   8.428 -0.4585  0.1183  0.0882
  146loPI   C4B 2336  15.791   3.264   8.011 -0.0156  0.0005  0.0249
  147loPI    C1 2337   1.525   7.474  10.882 -0.1309  0.0067 -0.0973
  147loPI    C2 2338   1.788   7.424  11.179 -0.1071  0.1790 -0.0886
  147loPI    C3 2339   1.397   7.370  11.247 -0.0775 -0.0514 -0.0951
  147loPI   PO4 2340   1.679   7.411  10.641 -0.3326 -0.3328 -0.0648
  147loPI   GL1 2341   2.013   7.428  10.360 -0.1127  0.0062  0.0083
  147loPI   GL2 2342   2.046   7.651  10.248  0.2878  0.2022  0.1665
  147loPI   C1A 2343   1.914   7.259  10.006  0.3935  0.0833 -0.0713
  147loPI   C2A 2344   2.040   7.176   9.543  0.1408 -0.1070 -0.1740
  147loPI   C3A 2345   1.974   7.276   9.146  0.0743 -0.1310 -0.2737
  147loPI   C4A 2346   2.065   7.330   8.708  0.0138  0.2585 -0.0239
  147loPI   C5A 2347   1.962   7.345   8.280 -0.0122 -0.0308 -0.0834
  147loPI   C6A 2348   1.712   7.579   7.929  0.1465  0.0794 -0.0114
  147loPI   C1B 2349   2.176   7.652   9.790  0.1299  0.0253  0.1015
  147loPI   C2B 2350   2.166   7.695   9.355  0.0530 -0.4486  0.1739
  147loPI   C3B 2351   2.277   7.754   8.931  0.0191 -0.1075 -0.1025
  147loPI   C4B 2352   2.421   7.898   8.548  0.0615  0.1113  0.3395
  148loPI    C1 2353  11.261   8.242  10.458 -0.2613 -0.0507 -0.1119
  148loPI    C2 2354  11.133   8.619  10.501  0.0100  0.0695 -0.3260
  148loPI    C3 2355  11.386   8.462  10.769 -0.1299  0.0263 -0.2180
  148loPI   PO4 2356  10.982   8.083  10.364  0.0339 -0.1415  0.1596
  148loPI   GL1 2357  10.851   7.954  10.022 -0.0978 -0.1338  0.3582
  148loPI   GL2 2358  10.862   7.617   9.831  0.0376  0.1506 -0.0888
  148loPI   C1A 2359  10.853   8.320   9.739  0.3537  0.1893 -0.1617
  148loPI   C2A 2360  10.906   8.511   9.274 -0.3844  0.3792 -0.2347
  148loPI   C3A 2361  10.824   8.550   8.811  0.0976 -0.0684 -0.0591
  148loPI   C4A 2362  10.797   8.581   8.356  0.2987  0.3206  0.0594
  148loPI   C5A 2363  10.833   8.467   7.964 -0.2045  0.2332  0.0661
  148loPI   C6A 2364  11.025   8.078   7.778 -0.1460 -0.0798 -0.0675
  148loPI   C1B 2365  11.061   7.845   9.589  0.0577 -0.0778  0.0457
  148loPI   C2B 2366  10.927   8.012   9.209  0.2064  0.2849 -0.1671
  148loPI   C3B 2367  10.925   8.045   8.789 -0.2138  0.1913 -0.0281
  148loPI   C4B 2368  10.901   8.027   8.314 -0.0182 -0.0042  0.1337
  149loPI    C1 2369  15.032   5.483  10.306 -0.0556  0.2467 -0.0555
  149loPI    C2 2370  15.191   5.433  10.669 -0.0586 -0.0800 -0.0959
  149loPI    C3 2371  15.123   5.115  10.436  0.0303  0.1346 -0.4208
  149loPI   PO4 2372  15.167   5.738  10.283 -0.1107 -0.2109 -0.0204
  149loPI   GL1 2373  15.252   5.972   9.906 -0.3093 -0.2090 -0.1783
  149loPI   GL2 2374  15.013   6.055   9.695 -0.1747 -0.0918 -0.1732
  149loPI   C1A 2375  15.295   5.755   9.457 -0.2508 -0.1843  0.2255
  149loPI   C2A 2376  15.200   5.747   9.031  0.0580 -0.0291 -0.1261
  149loPI   C3A 2377  15.224   5.850   8.514 -0.1113 -0.0048  0.0131
  149loPI   C4A 2378  15.233   5.623   8.124 -0.0713  0.0231 -0.2368
  149loPI   C5A 2379  15.468   5.362   7.792 -0.1282  0.1063 -0.0668
  149loPI   C6A 2380  15.560   4.982   7.685 -0.1591 -0.4125 -0.0236
  149loPI   C1B 2381  15.078   6.159   9.267 -0.3790 -0.1835  0.1435
  149loPI   C2B 2382  15.125   6.377   8.923 -0.1935 -0.0965  0.0114
  149loPI   C3B 2383  15.174   6.406   8.586  0.0825  0.0396 -0.0309
  149loPI   C4B 2384  15.259   6.259   8.147  0.0357  0.3083 -0.2053
  150loPI    C1 2385  10.807   1.026  10.776 -0.3220 -0.0196  0.0357
  150loPI    C2 2386  10.729   1.375  10.956 -0.2784 -0.1081  0.2290
  150loPI    C3 2387  10.681   1.032  11.156 -0.1398 -0.2035  0.1004
  150loPI   PO4 2388  10.658   0.981  10.504  0.0014 -0.2418  0.3201
  150loPI   GL1 2389  10.738   0.773  10.207 -0.2904  0.4072 -0.1563
  150loPI   GL2 2390  10.558   0.559  10.029  0.1556 -0.2246  0.1320
  150loPI   C1A 2391  10.603   1.044   9.792 -0.0903  0.0133 -0.0782
  150loPI   C2A 2392  10.412   1.098   9.391 -0.1578 -0.2241  0.3780
  150loPI   C3A 2393  10.433   1.116   8.964 -0.1515  0.0503  0.0598
  150loPI   C4A 2394  10.375   1.027   8.530 -0.3191  0.1886 -0.0880
  150loPI   C5A 2395  10.461   1.357   8.136  0.3038 -0.1866  0.0646
  150loPI   C6A 2396  10.503   1.735   8.051 -0.1227  0.0941  0.3276
  150loPI   C1B 2397  10.318   0.618   9.612  0.0233 -0.0200 -0.2151
  150loPI   C2B 2398  10.242   0.656   9.164  0.1182 -0.2369 -0.1036
  150loPI   C3B 2399  10.211   0.594   8.747 -0.1149  0.2059 -0.0036
  150loPI   C4B 2400  10.190   0.516   8.251  0.1345 -0.2561  0.1959
  151loPI    C1 2401  13.069  17.487  11.120 -0.1456  0.3368  0.1896
  151loPI    C2 2402  12.995  17.095  11.138 -0.2772  0.3436 -0.1390
  151loPI    C3 2403  12.888  17.332  11.442  0.0505  0.0900  0.1838
  151loPI   PO4 2404  12.960  17.576  10.915  0.1342  0.0528 -0.1081
  151loPI   GL1 2405  12.994  17.627  10.480  0.1394 -0.1339 -0.0053
  151loPI   GL2 2406  12.725  17.561  10.379 -0.3809  0.0936 -0.1627
  151loPI   C1A 2407  13.130  17.371  10.052 -0.0325 -0.4251 -0.1933
  151loPI   C2A 2408  13.161  17.227   9.754  0.1042 -0.0209 -0.1758
  151loPI   C3A 2409  13.156  17.220   9.294 -0.0758  0.0302  0.0827
  151loPI   C4A 2410  13.120  17.284   8.939 -0.2553 -0.0100 -0.0172
  151loPI   C5A 2411  12.985  17.265   8.461  0.0784 -0.1090 -0.0136
  151loPI   C6A 2412  12.743  17.269   8.071 -0.1744 -0.0926 -0.2572
  151loPI   C1B 2413  12.670  17.457   9.881 -0.0340 -0.1810 -0.1650
  151loPI   C2B 2414  12.651  17.427   9.346 -0.1331  0.0235 -0.0478
  151loPI   C3B 2415  12.665  17.444   8.894 -0.2281  0.2473  0.3584
  151loPI   C4B 2416  12.517  17.584   8.457  0.0381 -0.5762  0.0011
  152loPI    C1 2417   3.685   0.098  10.946 -0.0817  0.1262  0.0415
  152loPI    C2 2418   3.459  -0.168  10.750  0.1425  0.0964 -0.1815
  152loPI    C3 2419   3.461  -0.163  11.150 -0.3301  0.1656 -0.1748
  152loPI   PO4 2420   3.729   0.242  10.768  0.0582  0.3742  0.0259
  152loPI   GL1 2421   3.480   0.209  10.453  0.1199  0.1220 -0.0609
  152loPI   GL2 2422   3.474   0.535  10.463  0.0090  0.0116 -0.1140
  152loPI   C1A 2423   3.452   0.208   9.999 -0.1478  0.4827 -0.5198
  152loPI   C2A 2424   3.556   0.193   9.600  0.1043 -0.2486 -0.1820
  152loPI   C3A 2425   3.499   0.236   9.147 -0.1012 -0.2039 -0.4259
  152loPI   C4A 2426   3.582   0.192   8.716 -0.4140  0.2517  0.2348
  152loPI   C5A 2427   3.452   0.022   8.296  0.1679 -0.0143 -0.2956
  152loPI   C6A 2428   3.330  -0.089   7.887 -0.2226 -0.1234 -0.2414
  152loPI   C1B 2429   3.532   0.700  10.080  0.1124  0.4148  0.3778
  152loPI   C2B 2430   3.717   0.701   9.689 -0.0211 -0.0219 -0.0894
  152loPI   C3B 2431   3.719   0.802   9.201 -0.0881  0.1652 -0.1310
  152loPI   C4B 2432   3.778   0.751   8.741  0.0286 -0.1475  0.1222
  153loPI    C1 2433  11.988   5.844   9.683 -0.0439  0.1868  0.0941
  153loPI    C2 2434  12.204   6.105   9.895 -0.1349  0.2671  0.0892
  153loPI    C3 2435  11.826   6.027  10.000 -0.1034  0.1253  0.0994
  153loPI   PO4 2436  12.164   5.662   9.676  0.0181 -0.0417 -0.4248
  153loPI   GL1 2437  12.379   5.551   9.368 -0.0876 -0.0067 -0.0136
  153loPI   GL2 2438  12.074   5.557   9.205 -0.0502 -0.1416  0.0333
  153loPI   C1A 2439  12.482   5.746   8.954  0.0987  0.0135 -0.1238
  153loPI   C2A 2440  12.556   5.801   8.537 -0.2336 -0.0960 -0.1356
  153loPI   C3A 2441  12.539   5.903   8.081 -0.2889 -0.0782  0.1318
  153loPI   C4A 2442  12.425   5.949   7.683 -0.0644  0.0419  0.0743
  153loPI   C5A 2443  12.606   5.889   7.284 -0.2762 -0.0915 -0.1000
  153loPI   C6A 2444  12.772   5.844   6.897 -0.4512 -0.0079 -0.1284
  153loPI   C1B 2445  12.020   5.882   9.034 -0.3145 -0.0381  0.1491
  153loPI   C2B 2446  11.697   6.202   8.860 -0.0182 -0.0559  0.1639
  153loPI   C3B 2447  11.791   6.468   8.658 -0.1281 -0.3225 -0.1705
  153loPI   C4B 2448  11.935   6.556   8.306 -0.1476 -0.3338  0.0245
  154loPI    C1 2449   4.364  12.379  11.067  0.1456 -0.0634 -0.1181
  154loPI    C2 2450   4.104  12.310  11.363 -0.0935  0.1155 -0.2830
  154loPI    C3 2451   4.227  12.683  11.288  0.1358  0.0440 -0.2709
  154loPI   PO4 2452   4.266  12.241  10.820  0.0290  0.0721  0.1902
  154loPI   GL1 2453   4.224  12.176  10.391 -0.0011 -0.0148  0.0270
  154loPI   GL2 2454   4.560  12.119  10.214  0.1083  0.1475  0.2246
  154loPI   C1A 2455   3.996  11.925  10.006 -0.0081  0.4476  0.2553
  154loPI   C2A 2456   3.786  12.121   9.639  0.0726 -0.0234 -0.0807
  154loPI   C3A 2457   3.746  12.317   9.299  0.1983  0.2143  0.1623
  154loPI   C4A 2458   3.865  12.304   8.853 -0.4365 -0.1120 -0.0862
  154loPI   C5A 2459   3.984  12.396   8.503 -0.1133  0.0721 -0.0554
  154loPI   C6A 2460   4.024  12.174   8.055 -0.1682 -0.0258  0.0530
  154loPI   C1B 2461   4.293  12.288   9.843 -0.1464  0.0589 -0.0382
  154loPI   C2B 2462   4.218  12.383   9.499 -0.3154  0.1413  0.0404
  154loPI   C3B 2463   4.214  12.640   9.069  0.1170 -0.1394  0.0783
  154loPI   C4B 2464   4.226  12.806   8.700  0.3738 -0.2644 -0.0047
  155loPI    C1 2465   5.863  13.919  11.216 -0.1730  0.0514 -0.0765
  155loPI    C2 2466   5.645  13.616  11.361  0.0383 -0.0255  0.0849
  155loPI    C3 2467   5.861  13.844  11.609  0.1861  0.0147 -0.0788
  155loPI   PO4 2468   5.987  13.815  10.950  0.0296 -0.0819  0.0994
  155loPI   GL1 2469   6.071  13.875  10.460 -0.1029 -0.1967  0.0342
  155loPI   GL2 2470   6.012  14.095  10.275  0.0706 -0.2686 -0.0728
  155loPI   C1A 2471   6.087  13.455  10.199 -0.0136  0.0430  0.0638
  155loPI   C2A 2472   6.322  13.299   9.818  0.0971 -0.0123  0.1326
  155loPI   C3A 2473   6.312  13.296   9.358  0.0925  0.1804  0.0144
  155loPI   C4A 2474   6.290  13.605   9.023  0.1837  0.2437  0.0019
  155loPI   C5A 2475   6.285  13.823   8.598 -0.0850  0.0256  0.1645
  155loPI   C6A 2476   6.261  14.118   8.281  0.1682  0.2904  0.2778
  155loPI   C1B 2477   5.806  13.776   9.942 -0.0290 -0.1560  0.2019
  155loPI   C2B 2478   5.756  13.355   9.791 -0.0608  0.0289 -0.0988
  155loPI   C3B 2479   5.976  12.976   9.514  0.0961 -0.0397 -0.0710
  155loPI   C4B 2480   6.083  12.940   9.119 -0.1219  0.1081  0.1836
  156loPI    C1 2481   0.168  18.230  10.868 -0.1463  0.0728  0.0628
  156loPI    C2 2482  -0.074  18.545  10.823 -0.1236  0.1050  0.1617
  156loPI    C3 2483   0.167  18.522  11.141  0.0665  0.1156  0.0199
  156loPI   PO4 2484   0.258  18.196  10.583 -0.0707  0.2001 -0.2223
  156loPI   GL1 2485   0.172  18.142  10.089  0.0601 -0.1493 -0.0714
  156loPI   GL2 2486   0.043  18.452   9.936  0.1795  0.1635  0.1484
  156loPI   C1A 2487  -0.053  17.950   9.746  0.2687  0.1190 -0.1043
  156loPI   C2A 2488  -0.078  17.944   9.346 -0.2148 -0.1168  0.2057
  156loPI   C3A 2489  -0.038  17.917   8.934  0.2443  0.2860  0.0195
  156loPI   C4A 2490   0.161  17.978   8.489  0.0185  0.0427  0.0500
  156loPI   C5A 2491   0.274  17.814   7.995  0.3410 -0.0960  0.1069
  156loPI   C6A 2492   0.241  17.555   7.688 -0.0423 -0.1984 -0.0812
  156loPI   C1B 2493   0.063  18.374   9.527 -0.1584 -0.0954 -0.1161
  156loPI   C2B 2494   0.129  18.493   9.093 -0.0894 -0.0423  0.0210
  156loPI   C3B 2495  -0.032  18.504   8.637  0.1129  0.3442  0.0122
  156loPI   C4B 2496  -0.159  18.315   8.243 -0.2302  0.0489  0.0604
  157loPI    C1 2497   9.352  12.941  10.911 -0.1106  0.2400  0.2379
  157loPI    C2 2498   9.565  12.748  11.189 -0.0864  0.0303  0.0766
  157loPI    C3 2499   9.212  12.911  11.285 -0.1699 -0.2093  0.1851
  157loPI   PO4 2500   9.311  12.812  10.683 -0.0572  0.3508  0.2596
  157loPI   GL1 2501   9.078  12.675  10.238 -0.0871 -0.0062 -0.2249
  157loPI   GL2 2502   9.156  12.430  10.404 -0.2261  0.1564 -0.1257
  157loPI   C1A 2503   9.099  12.654   9.819 -0.1231  0.2453  0.1938
  157loPI   C2A 2504   9.196  12.493   9.469  0.4493  0.0979 -0.1732
  157loPI   C3A 2505   9.190  12.230   9.099  0.0810 -0.1972 -0.0775
  157loPI   C4A 2506   9.310  12.041   8.698  0.2210  0.0278 -0.0261
  157loPI   C5A 2507   9.488  11.637   8.501  0.1012  0.0362 -0.2436
  157loPI   C6A 2508   9.821  11.237   8.619 -0.0852 -0.0014 -0.0159
  157loPI   C1B 2509   9.114  12.167  10.089  0.0606  0.1480  0.0776
  157loPI   C2B 2510   9.358  12.048   9.668  0.3399  0.2198 -0.3643
  157loPI   C3B 2511   9.623  11.825   9.342 -0.2389  0.1190  0.1279
  157loPI   C4B 2512   9.763  11.745   8.883 -0.1792  0.0889 -0.0285
  158loPI    C1 2513  11.150   1.031  10.442 -0.1090  0.2346  0.0952
  158loPI    C2 2514  11.341   1.334  10.263  0.1082 -0.0128 -0.0997
  158loPI    C3 2515  11.119   1.402  10.589  0.4309  0.3010  0.0610
  158loPI   PO4 2516  11.231   0.857  10.277 -0.0442 -0.0732 -0.1336
  158loPI   GL1 2517  11.428   0.998   9.849  0.0271  0.0780  0.2016
  158loPI   GL2 2518  11.067   1.044   9.807 -0.0915  0.1893 -0.0358
  158loPI   C1A 2519  11.434   1.065   9.455  0.3111  0.1310 -0.1874
  158loPI   C2A 2520  11.433   1.129   8.982  0.1493  0.2274  0.1284
  158loPI   C3A 2521  11.332   0.996   8.691 -0.1669 -0.1181 -0.0214
  158loPI   C4A 2522  11.212   0.811   8.356 -0.0318 -0.0546 -0.1311
  158loPI   C5A 2523  11.085   0.610   8.091  0.0208 -0.1370  0.3673
  158loPI   C6A 2524  10.898   0.278   8.111 -0.0656 -0.1266  0.1183
  158loPI   C1B 2525  10.906   0.642   9.686  0.0936 -0.0767 -0.0839
  158loPI   C2B 2526  10.717   0.716   9.315 -0.2856 -0.1444 -0.0329
  158loPI   C3B 2527  10.577   0.342   8.990 -0.0243 -0.1318  0.1003
  158loPI   C4B 2528  10.461   0.133   8.570  0.0447  0.0179 -0.1772
  159loPI    C1 2529   8.538  14.806  11.122  0.0407  0.0837  0.0055
  159loPI    C2 2530   8.684  14.436  11.087  0.2245  0.1492  0.0674
  159loPI    C3 2531   8.303  14.491  11.194  0.2114 -0.0210  0.1105
  159loPI   PO4 2532   8.577  14.913  10.890  0.1320  0.0575 -0.2695
  159loPI   GL1 2533   8.699  15.192  10.488  0.4064  0.0497 -0.1075
  159loPI   GL2 2534   8.464  15.329  10.375 -0.0887 -0.0139 -0.1770
  159loPI   C1A 2535   8.869  15.149  10.062  0.2343  0.1385  0.2902
  159loPI   C2A 2536   8.958  15.197   9.553 -0.6042  0.0794  0.0690
  159loPI   C3A 2537   8.887  15.129   9.182  0.2822 -0.1405 -0.0031
  159loPI   C4A 2538   8.769  15.066   8.705 -0.3232  0.0285 -0.1658
  159loPI   C5A 2539   8.680  14.988   8.197  0.0611 -0.1162 -0.0289
  159loPI   C6A 2540   8.354  14.876   7.839  0.0372  0.2329  0.0663
  159loPI   C1B 2541   8.451  15.336   9.938  0.1370  0.1065 -0.1097
  159loPI   C2B 2542   8.490  15.378   9.602 -0.3133  0.1738 -0.1975
  159loPI   C3B 2543   8.457  15.335   9.213  0.1968 -0.0649 -0.0233
  159loPI   C4B 2544   8.339  15.344   8.808 -0.0198  0.1815 -0.1480
  160loPI    C1 2545  14.573   6.261   9.924  0.0101 -0.0184 -0.0497
  160loPI    C2 2546  14.835   6.135  10.198 -0.0574  0.1056  0.0732
  160loPI    C3 2547  14.631   6.473  10.257 -0.0084  0.1803 -0.1715
  160loPI   PO4 2548  14.464   6.095   9.758 -0.2519  0.3368 -0.2533
  160loPI   GL1 2549  14.346   6.089   9.283  0.1441 -0.5248 -0.1768
  160loPI   GL2 2550  14.065   5.986   9.424 -0.4271 -0.3440  0.1595
  160loPI   C1A 2551  14.318   6.112   8.824  0.0841 -0.2590 -0.1367
  160loPI   C2A 2552  14.311   6.167   8.410 -0.0494 -0.0259 -0.1760
  160loPI   C3A 2553  14.302   6.110   7.980  0.0987 -0.0226  0.0459
  160loPI   C4A 2554  14.379   6.131   7.555  0.5465  0.2867 -0.0903
  160loPI   C5A 2555  14.628   6.318   7.327  0.0242 -0.0184 -0.0123
  160loPI   C6A 2556  14.668   6.520   6.928 -0.1743 -0.0849 -0.2432
  160loPI   C1B 2557  13.882   5.839   9.048  0.2203 -0.1967 -0.0588
  160loPI   C2B 2558  13.906   5.791   8.569 -0.1648  0.1953  0.0023
  160loPI   C3B 2559  13.874   5.881   8.099 -0.2150  0.0097  0.0500
  160loPI   C4B 2560  13.893   5.809   7.648 -0.0045  0.1522  0.0407
  161loPI    C1 2561   0.840   2.891  10.486  0.0581 -0.0122  0.1571
  161loPI    C2 2562   0.976   2.771  10.843 -0.0197 -0.0171  0.1853
  161loPI    C3 2563   0.746   3.097  10.815  0.1305  0.0843  0.1179
  161loPI   PO4 2564   0.793   2.683  10.326  0.5300  0.0015 -0.0614
  161loPI   GL1 2565   0.964   2.639  10.008  0.1524  0.0700  0.1435
  161loPI   GL2 2566   1.249   2.498   9.940 -0.2342  0.2286  0.0011
  161loPI   C1A 2567   0.876   2.481   9.568  0.0978  0.0797 -0.2574
  161loPI   C2A 2568   0.987   2.537   9.165 -0.0730  0.1448  0.0017
  161loPI   C3A 2569   1.116   2.584   8.754  0.0071 -0.2099 -0.3113
  161loPI   C4A 2570   1.206   2.629   8.334  0.3097  0.1178 -0.0398
  161loPI   C5A 2571   1.291   2.864   7.937  0.0727  0.2963 -0.0974
  161loPI   C6A 2572   1.065   3.114   7.559  0.3205  0.1961  0.0531
  161loPI   C1B 2573   1.456   2.643   9.557 -0.1202  0.2802 -0.4413
  161loPI   C2B 2574   1.569   2.581   9.072  0.2211  0.0022  0.3311
  161loPI   C3B 2575   1.631   2.589   8.596 -0.1287  0.1670  0.4034
  161loPI   C4B 2576   1.684   2.683   8.193  0.2977 -0.0437 -0.3022
  162loPI    C1 2577   0.871  17.474  10.664 -0.0541 -0.0041  0.2477
  162loPI    C2 2578   0.605  17.307  10.417  0.0396  0.1811  0.0188
  162loPI    C3 2579   0.847  17.075  10.634 -0.1976  0.0137  0.1092
  162loPI   PO4 2580   1.003  17.593  10.564  0.0322  0.0178 -0.1333
  162loPI   GL1 2581   1.135  17.746  10.227 -0.0971  0.3190 -0.0046
  162loPI   GL2 2582   0.828  17.615  10.082  0.2971 -0.2884 -0.2568
  162loPI   C1A 2583   1.026  17.872   9.717  0.0637 -0.1257  0.1511
  162loPI   C2A 2584   0.982  18.082   9.274  0.3525 -0.2830 -0.0526
  162loPI   C3A 2585   1.089  18.215   8.874 -0.1145  0.2202 -0.1128
  162loPI   C4A 2586   1.385  18.298   8.581 -0.0006  0.1835  0.2555
  162loPI   C5A 2587   1.623  18.245   8.284  0.1141  0.0738 -0.0416
  162loPI   C6A 2588   1.913  17.992   7.951  0.4106 -0.3748  0.0391
  162loPI   C1B 2589   0.698  17.499   9.655 -0.1866  0.3346  0.0885
  162loPI   C2B 2590   0.728  17.470   9.216 -0.1712  0.2392 -0.5024
  162loPI   C3B 2591   0.850  17.247   8.788 -0.0148 -0.0102 -0.0360
  162loPI   C4B 2592   1.026  17.431   8.357  0.2366 -0.1256  0.2283
  163loPI    C1 2593   4.007   4.202  10.823  0.0592 -0.1546  0.0637
  163loPI    C2 2594   3.879   4.273  11.196  0.0822  0.1502  0.0161
  163loPI    C3 2595   4.240   4.112  11.136 -0.0075 -0.0995  0.1297
  163loPI   PO4 2596   4.029   4.458  10.710  0.3862  0.0964 -0.0817
  163loPI   GL1 2597   4.122   4.607  10.324 -0.2249 -0.0232  0.1058
  163loPI   GL2 2598   4.352   4.378  10.309 -0.0609  0.1219  0.2549
  163loPI   C1A 2599   3.846   4.768  10.018 -0.0792  0.1246 -0.0186
  163loPI   C2A 2600   3.794   4.844   9.543  0.1868  0.0269  0.0161
  163loPI   C3A 2601   3.788   4.782   9.088 -0.1170  0.0491  0.1871
  163loPI   C4A 2602   3.847   4.879   8.717  0.0062 -0.0077 -0.3889
  163loPI   C5A 2603   3.905   5.006   8.411  0.2280 -0.1026  0.0046
  163loPI   C6A 2604   4.055   5.241   8.072  0.3480  0.1559  0.0272
  163loPI   C1B 2605   4.260   4.395   9.917  0.1070 -0.1821  0.0644
  163loPI   C2B 2606   4.225   4.341   9.531  0.2075 -0.4266 -0.0787
  163loPI   C3B 2607   4.155   4.381   9.107 -0.0895 -0.1221 -0.2018
  163loPI   C4B 2608   4.380   4.133   8.812  0.0713 -0.2350  0.0271
  164loPI    C1 2609   9.402   6.781  10.321 -0.1368  0.0417  0.1171
  164loPI    C2 2610   9.401   7.135  10.508  0.1165  0.0158  0.1695
  164loPI    C3 2611   9.155   6.844  10.630 -0.1931  0.2174  0.0379
  164loPI   PO4 2612   9.352   6.870  10.091 -0.0881 -0.1241 -0.2685
  164loPI   GL1 2613   9.222   6.931   9.726 -0.2544  0.0478 -0.1355
  164loPI   GL2 2614   8.926   7.116   9.727 -0.1429 -0.1416 -0.0180
  164loPI   C1A 2615   9.301   7.084   9.366  0.0165  0.2785  0.1065
  164loPI   C2A 2616   9.305   7.078   8.931 -0.0354  0.3029 -0.2981
  164loPI   C3A 2617   9.306   7.024   8.504  0.0101  0.0437 -0.1276
  164loPI   C4A 2618   9.177   7.133   8.095 -0.0417  0.3658  0.0220
  164loPI   C5A 2619   9.164   7.360   7.671  0.2716 -0.1986  0.0897
  164loPI   C6A 2620   9.193   7.393   7.285 -0.0564  0.0987 -0.1553
  164loPI   C1B 2621   8.822   7.219   9.375 -0.0840 -0.0950 -0.0979
  164loPI   C2B 2622   8.721   7.207   8.918 -0.1429 -0.2504  0.0663
  164loPI   C3B 2623   8.775   7.169   8.520 -0.1499  0.1060 -0.0022
  164loPI   C4B 2624   8.689   7.246   8.094  0.0214 -0.3307 -0.2806
  165loPI    C1 2625   5.724  12.131  10.663  0.0090 -0.0458 -0.0485
  165loPI    C2 2626   5.766  12.058  11.054  0.0688 -0.0637 -0.0584
  165loPI    C3 2627   6.056  12.248  10.853  0.0600 -0.0986 -0.1044
  165loPI   PO4 2628   5.537  11.930  10.630  0.1390 -0.0450 -0.0217
  165loPI   GL1 2629   5.573  11.584  10.339 -0.0412 -0.3962 -0.2921
  165loPI   GL2 2630   5.302  11.574  10.329  0.4006 -0.0906  0.1541
  165loPI   C1A 2631   5.554  11.654   9.943  0.1692  0.0193  0.2850
  165loPI   C2A 2632   5.599  11.616   9.498  0.3560  0.1232  0.2298
  165loPI   C3A 2633   5.723  11.663   9.077 -0.0999 -0.3025  0.1024
  165loPI   C4A 2634   5.674  11.625   8.587 -0.0877 -0.0523 -0.0537
  165loPI   C5A 2635   5.747  11.884   8.248 -0.1204  0.1317 -0.0558
  165loPI   C6A 2636   5.393  12.092   8.060 -0.0127  0.0847  0.1073
  165loPI   C1B 2637   5.279  11.223  10.075  0.2303  0.0559  0.0743
  165loPI   C2B 2638   5.216  11.174   9.627 -0.0624 -0.0314  0.1075
  165loPI   C3B 2639   5.191  11.381   9.284 -0.2257  0.2058  0.4079
  165loPI   C4B 2640   5.385  11.305   8.919 -0.0648  0.0090 -0.0094
  166loPI    C1 2641   3.278  11.365  10.670  0.1579  0.1357 -0.1981
  166loPI    C2 2642   3.158  11.445  11.043 -0.1576  0.2225 -0.3153
  166loPI    C3 2643   3.478  11.632  10.891  0.0696  0.0691 -0.0360
  166loPI   PO4 2644   2.977  11.384  10.455 -0.1457  0.0778 -0.0342
  166loPI   GL1 2645   2.579  11.271  10.366  0.1403  0.2951 -0.0587
  166loPI   GL2 2646   2.192  11.273  10.268 -0.1383 -0.1600 -0.1650
  166loPI   C1A 2647   2.666  11.368   9.894  0.1299 -0.0389 -0.2796
  166loPI   C2A 2648   2.739  11.488   9.436  0.1963 -0.0319  0.2972
  166loPI   C3A 2649   2.967  11.652   9.088 -0.0541 -0.2647 -0.2003
  166loPI   C4A 2650   3.171  11.635   8.692 -0.0656 -0.1049  0.0488
  166loPI   C5A 2651   3.541  11.613   8.448 -0.0349  0.1775 -0.0807
  166loPI   C6A 2652   3.940  11.660   8.178  0.0252  0.2779 -0.1275
  166loPI   C1B 2653   2.165  11.300   9.792  0.2192  0.2458  0.0290
  166loPI   C2B 2654   2.049  11.380   9.325  0.1605  0.0609 -0.1567
  166loPI   C3B 2655   1.969  11.489   8.894 -0.0500  0.2473  0.1106
  166loPI   C4B 2656   2.143  11.817   8.577 -0.4565 -0.0044 -0.1217
  167loPI    C1 2657   9.333   0.392  11.087 -0.1167  0.1189  0.0816
  167loPI    C2 2658   9.650   0.163  11.004 -0.3370 -0.1376 -0.0728
  167loPI    C3 2659   9.629   0.358  11.353  0.0665  0.0219 -0.1319
  167loPI   PO4 2660   9.341   0.606  10.803  0.2047  0.2747 -0.0562
  167loPI   GL1 2661   9.105   0.608  10.473 -0.2320  0.4464  0.0120
  167loPI   GL2 2662   8.731   0.625  10.356  0.0654 -0.0233  0.2505
  167loPI   C1A 2663   9.232   0.533  10.099  0.3352 -0.0137  0.0318
  167loPI   C2A 2664   9.250   0.493   9.660  0.1438 -0.0297  0.2073
  167loPI   C3A 2665   9.270   0.504   9.198  0.1327  0.4365  0.2256
  167loPI   C4A 2666   9.175   0.518   8.713  0.1576 -0.6487 -0.0752
  167loPI   C5A 2667   9.134   0.385   8.262  0.1027  0.0974  0.1383
  167loPI   C6A 2668   9.200   0.304   7.832 -0.1176  0.0973 -0.1416
  167loPI   C1B 2669   8.713   0.463   9.957  0.1921  0.1527 -0.2550
  167loPI   C2B 2670   8.742   0.372   9.527  0.0831 -0.1639  0.0803
  167loPI   C3B 2671   8.719   0.428   9.103 -0.0194  0.1904  0.4384
  167loPI   C4B 2672   8.643   0.235   8.637 -0.1493 -0.1919  0.0010
  168loPI    C1 2673  12.165  12.837  11.206 -0.0362  0.0691  0.0197
  168loPI    C2 2674  12.560  12.827  11.146 -0.0445 -0.0362 -0.0199
  168loPI    C3 2675  12.409  13.037  11.451  0.0519 -0.1049  0.0752
  168loPI   PO4 2676  12.144  12.906  10.888 -0.2045 -0.1685  0.1252
  168loPI   GL1 2677  12.198  13.042  10.484 -0.2496  0.3616  0.0777
  168loPI   GL2 2678  12.432  13.119  10.243  0.0659  0.0078 -0.0078
  168loPI   C1A 2679  11.902  13.079  10.127  0.0925 -0.1631  0.3578
  168loPI   C2A 2680  11.821  12.949   9.675  0.1746 -0.0390 -0.4099
  168loPI   C3A 2681  11.829  12.852   9.320  0.0528  0.2899 -0.1745
  168loPI   C4A 2682  11.891  12.894   8.858 -0.1653  0.3241  0.0542
  168loPI   C5A 2683  11.869  12.777   8.395  0.2359 -0.1217  0.0926
  168loPI   C6A 2684  12.205  12.882   8.026 -0.2572 -0.1492  0.0797
  168loPI   C1B 2685  12.342  13.223   9.833 -0.0170 -0.0228  0.1672
  168loPI   C2B 2686  12.242  13.215   9.392 -0.1153  0.0395 -0.0515
  168loPI   C3B 2687  12.284  13.183   9.056  0.2263  0.0253  0.0523
  168loPI   C4B 2688  12.249  13.133   8.608  0.1344  0.0495 -0.1366
  169loPI    C1 2689  15.754  13.434  10.655  0.1078  0.1579 -0.1644
  169loPI    C2 2690  15.570  13.463  11.010 -0.0853 -0.3077 -0.2182
  169loPI    C3 2691  15.909  13.253  10.977  0.0403 -0.0992 -0.2734
  169loPI   PO4 2692  15.644  13.597  10.494 -0.2898  0.0271  0.2828
  169loPI   GL1 2693  15.574  13.554  10.077  0.4306 -0.2631  0.0023
  169loPI   GL2 2694  15.653  13.216  10.175 -0.2641 -0.0489 -0.1785
  169loPI   C1A 2695  15.544  13.375   9.627  0.0612 -0.1975 -0.1733
  169loPI   C2A 2696  15.441  13.415   9.222 -0.0796  0.1654  0.1066
  169loPI   C3A 2697  15.538  13.449   8.802 -0.5422  0.1833  0.1590
  169loPI   C4A 2698  15.713  13.607   8.413  0.1540 -0.0650 -0.0356
  169loPI   C5A 2699  15.767  13.410   8.069  0.3841 -0.1805 -0.0424
  169loPI   C6A 2700  15.638  13.422   7.671 -0.2958 -0.0528 -0.1340
  169loPI   C1B 2701  16.002  13.268   9.868 -0.0019  0.1367 -0.1738
  169loPI   C2B 2702  15.991  13.212   9.388  0.0233  0.1262 -0.3658
  169loPI   C3B 2703  15.994  13.151   8.962 -0.0367  0.0358  0.0616
  169loPI   C4B 2704  16.055  13.160   8.465  0.0067 -0.0004 -0.1984
  170loPI    C1 2705   5.331  13.619  10.828 -0.0811  0.1078 -0.0445
  170loPI    C2 2706   5.213  13.454  11.173  0.0660  0.1087  0.0070
  170loPI    C3 2707   5.253  13.851  11.144 -0.1224  0.1235 -0.0662
  170loPI   PO4 2708   5.201  13.381  10.664  0.2007 -0.0993  0.1040
  170loPI   GL1 2709   4.971  13.265  10.250  0.0160 -0.0130 -0.0257
  170loPI   GL2 2710   4.589  13.162  10.043  0.0446 -0.0694 -0.0389
  170loPI   C1A 2711   5.144  13.124   9.914  0.0050  0.0477 -0.1139
  170loPI   C2A 2712   4.999  13.015   9.550 -0.1714 -0.0461  0.1327
  170loPI   C3A 2713   5.137  12.846   9.126  0.1446 -0.2004  0.1763
  170loPI   C4A 2714   5.240  12.672   8.664 -0.0819  0.2658 -0.1633
  170loPI   C5A 2715   5.427  12.643   8.291 -0.0291 -0.1323 -0.0106
  170loPI   C6A 2716   5.680  12.728   7.860  0.0558  0.0247  0.2312
  170loPI   C1B 2717   4.424  13.444   9.602  0.0763 -0.2870 -0.2522
  170loPI   C2B 2718   4.553  13.641   9.215  0.0142 -0.2644 -0.2473
  170loPI   C3B 2719   4.465  14.022   9.059 -0.2091  0.0554 -0.1062
  170loPI   C4B 2720   4.818  14.106   8.842  0.4348  0.1489 -0.0296
  171loPI    C1 2721   7.184  12.597  11.116  0.0735 -0.0531 -0.1261
  171loPI    C2 2722   6.913  12.336  11.252  0.1136 -0.0001  0.0587
  171loPI    C3 2723   6.838  12.728  11.268  0.0940  0.0050 -0.1297
  171loPI   PO4 2724   7.225  12.517  10.819  0.2073  0.0249 -0.3062
  171loPI   GL1 2725   7.065  12.552  10.422 -0.2960 -0.1008  0.1280
  171loPI   GL2 2726   7.331  12.338  10.313  0.0587  0.0622 -0.0050
  171loPI   C1A 2727   7.283  12.617   9.907  0.0873  0.0637 -0.1525
  171loPI   C2A 2728   7.406  12.404   9.530  0.3434 -0.1768 -0.0579
  171loPI   C3A 2729   7.459  12.449   9.124  0.0121 -0.2402  0.1743
  171loPI   C4A 2730   7.451  12.452   8.644 -0.1083  0.0160  0.0563
  171loPI   C5A 2731   7.636  12.367   8.307 -0.2277 -0.1209  0.0584
  171loPI   C6A 2732   7.598  12.580   7.887 -0.3006  0.0468  0.1145
  171loPI   C1B 2733   7.421  12.092   9.960  0.0870 -0.0367 -0.3315
  171loPI   C2B 2734   7.373  11.907   9.541 -0.1143 -0.0098  0.3874
  171loPI   C3B 2735   7.530  11.881   9.153 -0.1213  0.1599  0.0665
  171loPI   C4B 2736   7.564  11.946   8.633  0.3238  0.3661  0.1396
  172loPI    C1 2737  17.318   4.231  10.144  0.3184 -0.0043 -0.0576
  172loPI    C2 2738  17.243   4.588  10.310  0.0126 -0.0441 -0.1041
  172loPI    C3 2739  17.493   4.333  10.489 -0.0033  0.0727  0.0871
  172loPI   PO4 2740  17.409   4.296   9.902 -0.1363  0.3949  0.2706
  172loPI   GL1 2741  17.451   4.193   9.527 -0.0840 -0.1242 -0.2537
  172loPI   GL2 2742  17.252   4.057   9.356 -0.0295  0.2375  0.1553
  172loPI   C1A 2743  17.831   4.053   9.309  0.2023 -0.0909  0.2402
  172loPI   C2A 2744  18.106   4.257   8.997 -0.1514 -0.1294 -0.1270
  172loPI   C3A 2745  17.999   4.560   8.660 -0.2819 -0.4601  0.0715
  172loPI   C4A 2746  18.040   4.568   8.201  0.0862 -0.0486 -0.0282
  172loPI   C5A 2747  18.184   4.634   7.802 -0.0604  0.0455 -0.1982
  172loPI   C6A 2748  18.143   4.897   7.516 -0.2188  0.0248 -0.1455
  172loPI   C1B 2749  17.434   3.958   8.987  0.3411 -0.0264  0.3042
  172loPI   C2B 2750  17.676   3.784   8.584 -0.2164  0.0504 -0.1594
  172loPI   C3B 2751  17.672   3.724   8.139  0.3500 -0.2053 -0.0882
  172loPI   C4B 2752  17.478   3.623   7.787 -0.1298  0.1101 -0.0853
  173loPI    C1 2753   7.062   0.270  10.819  0.1343 -0.0296  0.1153
  173loPI    C2 2754   6.764   0.490  10.970 -0.2037 -0.2611 -0.1976
  173loPI    C3 2755   6.805   0.107  11.079  0.1574 -0.1540  0.0611
  173loPI   PO4 2756   7.067   0.252  10.565  0.3113  0.0902  0.1554
  173loPI   GL1 2757   6.931   0.522  10.261  0.2689  0.1386  0.1149
  173loPI   GL2 2758   6.835   0.814  10.233 -0.0444 -0.2566 -0.4775
  173loPI   C1A 2759   6.928   0.460   9.883 -0.1099 -0.1030 -0.1424
  173loPI   C2A 2760   6.917   0.497   9.495 -0.2618 -0.3332 -0.0836
  173loPI   C3A 2761   6.883   0.411   9.090 -0.1942 -0.0015  0.3771
  173loPI   C4A 2762   6.897   0.427   8.591  0.1005 -0.0942  0.0247
  173loPI   C5A 2763   6.987   0.615   8.216 -0.0039  0.1353 -0.0621
  173loPI   C6A 2764   6.670   0.965   7.971 -0.1091 -0.0914  0.1633
  173loPI   C1B 2765   6.656   0.933   9.763 -0.0107 -0.0152 -0.0933
  173loPI   C2B 2766   6.606   0.881   9.318  0.0860 -0.1581 -0.1999
  173loPI   C3B 2767   6.640   0.867   8.974  0.2064  0.1336 -0.0173
  173loPI   C4B 2768   6.631   0.854   8.566  0.0482  0.0372 -0.0445
  174loPI    C1 2769  10.286   0.200  10.170  0.1312  0.1246 -0.0764
  174loPI    C2 2770  10.410   0.408  10.488 -0.0658  0.2574 -0.0845
  174loPI    C3 2771  10.334   0.017  10.522  0.0175  0.2485  0.0043
  174loPI   PO4 2772  10.062   0.326  10.113  0.2073 -0.1024 -0.0415
  174loPI   GL1 2773   9.680   0.401   9.928 -0.0409 -0.0896  0.0213
  174loPI   GL2 2774   9.571   0.122  10.126  0.0284  0.0443  0.0139
  174loPI   C1A 2775   9.807   0.524   9.508 -0.0767 -0.0392  0.0359
  174loPI   C2A 2776   9.727   0.616   9.013 -0.1527  0.2012  0.0227
  174loPI   C3A 2777   9.597   0.546   8.495  0.3426 -0.0445 -0.2978
  174loPI   C4A 2778   9.662   0.634   8.036 -0.1574 -0.1568  0.0410
  174loPI   C5A 2779   9.580   0.919   7.802 -0.1741  0.1075  0.1809
  174loPI   C6A 2780   9.833   1.319   7.727 -0.1946  0.0038  0.1275
  174loPI   C1B 2781   9.530   0.049   9.651  0.2056 -0.0819  0.1274
  174loPI   C2B 2782   9.598   0.115   9.242  0.1539 -0.0317  0.2543
  174loPI   C3B 2783   9.535   0.053   8.760 -0.3252 -0.3170 -0.0182
  174loPI   C4B 2784   9.595   0.100   8.256  0.2805 -0.1242 -0.3574
  175loPI    C1 2785   8.169   9.574  10.989  0.0870 -0.0348 -0.3012
  175loPI    C2 2786   8.492   9.783  11.098 -0.0468  0.0653 -0.0910
  175loPI    C3 2787   8.146   9.833  11.292 -0.1256 -0.2241 -0.1524
  175loPI   PO4 2788   8.176   9.565  10.767  0.1022 -0.1076 -0.3528
  175loPI   GL1 2789   8.068   9.518  10.366  0.2622  0.2739 -0.1333
  175loPI   GL2 2790   7.833   9.666  10.228  0.1812  0.0672  0.0488
  175loPI   C1A 2791   8.213   9.559   9.932 -0.3506  0.2386 -0.1912
  175loPI   C2A 2792   8.274   9.662   9.477 -0.3512  0.0639  0.3430
  175loPI   C3A 2793   8.265   9.672   9.109  0.1175 -0.1908 -0.0371
  175loPI   C4A 2794   8.325   9.764   8.711 -0.1230  0.0274 -0.1805
  175loPI   C5A 2795   8.332   9.842   8.250 -0.0557  0.5148  0.0841
  175loPI   C6A 2796   8.538  10.049   7.973  0.1200 -0.1150 -0.1181
  175loPI   C1B 2797   7.797   9.838   9.803  0.0742  0.2166  0.0543
  175loPI   C2B 2798   7.796   9.823   9.377 -0.1997 -0.0210 -0.1609
  175loPI   C3B 2799   7.819   9.880   8.987  0.1421 -0.2159  0.3396
  175loPI   C4B 2800   7.887   9.976   8.522  0.1809  0.1008 -0.0252
  176loPI    C1 2801  17.105   2.131  10.363 -0.1455  0.0209 -0.1576
  176loPI    C2 2802  16.793   2.221  10.596 -0.0966  0.0733 -0.1118
  176loPI    C3 2803  17.086   1.989  10.737 -0.0508  0.1323 -0.1097
  176loPI   PO4 2804  17.006   2.006  10.153 -0.1686 -0.1578 -0.3579
  176loPI   GL1 2805  16.781   1.752   9.880  0.2124  0.4900 -0.0330
  176loPI   GL2 2806  16.616   1.521  10.037  0.1825 -0.4035  0.0711
  176loPI   C1A 2807  16.965   1.820   9.395 -0.0062 -0.0064 -0.4918
  176loPI   C2A 2808  17.122   1.867   9.080 -0.1912  0.1016 -0.1399
  176loPI   C3A 2809  17.298   1.893   8.591  0.2280 -0.1001 -0.0078
  176loPI   C4A 2810  17.264   1.875   8.192  0.2966  0.3145  0.2137
  176loPI   C5A 2811  17.366   2.145   7.805 -0.2539  0.0558 -0.3571
  176loPI   C6A 2812  17.454   2.572   7.660  0.1264 -0.1957 -0.2003
  176loPI   C1B 2813  16.801   1.309   9.604  0.0092 -0.0248 -0.0559
  176loPI   C2B 2814  16.996   1.291   9.090  0.0923  0.1008 -0.2149
  176loPI   C3B 2815  17.079   1.395   8.646 -0.0737  0.3633  0.3178
  176loPI   C4B 2816  16.930   1.518   8.239  0.2486 -0.1266  0.4042
  177loPI    C1 2817  10.881   3.368  10.337 -0.0969 -0.0171 -0.1059
  177loPI    C2 2818  10.898   3.004  10.504  0.0300  0.1092  0.1624
  177loPI    C3 2819  11.115   3.304  10.656  0.0027  0.2744 -0.1181
  177loPI   PO4 2820  10.664   3.411  10.267 -0.3229  0.0551  0.4289
  177loPI   GL1 2821  10.474   3.523   9.927 -0.1292  0.0783 -0.0914
  177loPI   GL2 2822  10.245   3.591   9.875 -0.0629  0.4867  0.1306
  177loPI   C1A 2823  10.466   3.228   9.555 -0.2017 -0.1692  0.0454
  177loPI   C2A 2824  10.360   3.269   9.083 -0.1241 -0.3794 -0.0231
  177loPI   C3A 2825  10.493   3.133   8.602 -0.0329  0.0058  0.2274
  177loPI   C4A 2826  10.662   2.936   8.210  0.0081  0.1368  0.0236
  177loPI   C5A 2827  10.831   3.183   7.800 -0.0730  0.1564  0.0677
  177loPI   C6A 2828  11.252   2.968   7.600  0.4973 -0.1678  0.1392
  177loPI   C1B 2829  10.144   3.638   9.469  0.1596 -0.1112  0.1054
  177loPI   C2B 2830  10.125   3.708   8.980 -0.1110  0.1892  0.1233
  177loPI   C3B 2831  10.325   3.730   8.589  0.0025  0.1887  0.0710
  177loPI   C4B 2832  10.636   3.973   8.331  0.2181  0.3009  0.0655
  178loPI    C1 2833  10.724  18.005  10.408 -0.1231  0.2101  0.1367
  178loPI    C2 2834  10.409  17.832  10.583  0.0311 -0.0172  0.1923
  178loPI    C3 2835  10.740  17.908  10.795  0.1777 -0.1918  0.0305
  178loPI   PO4 2836  10.877  17.853  10.260  0.0785 -0.2656 -0.0572
  178loPI   GL1 2837  10.856  17.770   9.868  0.1656 -0.0325  0.2970
  178loPI   GL2 2838  10.765  18.111   9.835 -0.1692  0.0148  0.1821
  178loPI   C1A 2839  10.857  17.667   9.398 -0.2247  0.1744 -0.0465
  178loPI   C2A 2840  10.754  17.756   9.014  0.0615  0.1212 -0.2754
  178loPI   C3A 2841  10.788  17.651   8.561 -0.0791 -0.0818  0.0727
  178loPI   C4A 2842  10.857  17.485   8.228 -0.2623  0.1262 -0.1339
  178loPI   C5A 2843  10.823  17.089   7.921  0.1088 -0.0657 -0.1751
  178loPI   C6A 2844  10.834  16.723   7.947 -0.0459  0.0644 -0.0411
  178loPI   C1B 2845  10.627  18.204   9.296  0.0697  0.4316 -0.0880
  178loPI   C2B 2846  10.419  18.106   8.840 -0.1012 -0.0687 -0.1483
  178loPI   C3B 2847  10.376  17.932   8.435  0.0594 -0.2017 -0.1391
  178loPI   C4B 2848  10.535  17.793   8.025 -0.1424  0.2766  0.2342
  179loPI    C1 2849   8.235  15.383  10.834 -0.1046 -0.1316 -0.1664
  179loPI    C2 2850   8.181  15.712  11.055 -0.2396 -0.1078 -0.2337
  179loPI    C3 2851   8.260  15.362  11.233 -0.0395 -0.0287 -0.1648
  179loPI   PO4 2852   8.016  15.363  10.637 -0.1576 -0.1948 -0.3639
  179loPI   GL1 2853   7.904  15.355  10.254  0.1013 -0.2133 -0.2271
  179loPI   GL2 2854   8.045  15.536  10.189  0.2862 -0.0257 -0.2111
  179loPI   C1A 2855   8.001  15.114   9.884 -0.2035  0.2882  0.2922
  179loPI   C2A 2856   8.106  15.033   9.483  0.1775  0.3070  0.0520
  179loPI   C3A 2857   7.954  15.131   9.017  0.3146 -0.2007  0.2705
  179loPI   C4A 2858   7.864  15.366   8.612  0.1654  0.1042  0.0219
  179loPI   C5A 2859   7.774  15.023   8.307 -0.1959 -0.1750  0.3512
  179loPI   C6A 2860   8.048  14.644   8.199 -0.0650 -0.3003 -0.0210
  179loPI   C1B 2861   7.984  15.589   9.736 -0.2478 -0.2053 -0.0773
  179loPI   C2B 2862   8.038  15.543   9.371 -0.0452  0.2233 -0.0048
  179loPI   C3B 2863   7.928  15.678   9.024 -0.1182  0.1734  0.0800
  179loPI   C4B 2864   7.643  15.771   8.711  0.0370 -0.0519 -0.0378
  180loPI    C1 2865  15.050  16.504  10.905  0.1433  0.2082  0.1156
  180loPI    C2 2866  15.066  16.179  11.137  0.2028  0.1824  0.0755
  180loPI    C3 2867  14.819  16.480  11.231 -0.0507  0.0123 -0.0331
  180loPI   PO4 2868  15.063  16.321  10.574 -0.0734 -0.1523  0.0565
  180loPI   GL1 2869  15.022  16.444  10.130 -0.1140  0.1070  0.2543
  180loPI   GL2 2870  15.348  16.305  10.115 -0.1972 -0.0964 -0.0656
  180loPI   C1A 2871  14.976  16.430   9.708 -0.0022 -0.1035 -0.3653
  180loPI   C2A 2872  15.031  16.477   9.268  0.1286  0.2782 -0.0681
  180loPI   C3A 2873  15.060  16.549   8.778  0.2537  0.1229 -0.1792
  180loPI   C4A 2874  14.950  16.598   8.369  0.0122  0.1979  0.0369
  180loPI   C5A 2875  15.144  16.316   8.056  0.1823 -0.1201 -0.0311
  180loPI   C6A 2876  15.545  16.226   7.838  0.0843 -0.2000 -0.0418
  180loPI   C1B 2877  15.508  16.294   9.696  0.0388  0.4910 -0.1784
  180loPI   C2B 2878  15.530  16.338   9.161 -0.0729  0.2216 -0.5137
  180loPI   C3B 2879  15.495  16.341   8.710 -0.3553 -0.0734 -0.1734
  180loPI   C4B 2880  15.648  16.408   8.311 -0.2111  0.0252 -0.1833
  181loPI    C1 2881   7.109  10.016  10.735 -0.2960 -0.0731  0.0539
  181loPI    C2 2882   7.220   9.956  11.115  0.1583 -0.0721 -0.0730
  181loPI    C3 2883   7.048  10.302  11.009 -0.1259 -0.1378  0.1607
  181loPI   PO4 2884   7.283  10.023  10.600  0.0632 -0.1765  0.0017
  181loPI   GL1 2885   7.481  10.140  10.309  0.2539  0.0349 -0.0125
  181loPI   GL2 2886   7.355  10.512  10.508 -0.2243 -0.1177 -0.0763
  181loPI   C1A 2887   7.654  10.283   9.908 -0.4984  0.0467  0.1762
  181loPI   C2A 2888   7.650  10.352   9.461  0.1246  0.0610  0.3126
  181loPI   C3A 2889   7.757  10.400   9.115 -0.0148  0.3092 -0.0287
  181loPI   C4A 2890   7.729  10.459   8.700 -0.0738 -0.0854 -0.0052
  181loPI   C5A 2891   7.345  10.546   8.401 -0.1671  0.0556 -0.0261
  181loPI   C6A 2892   7.198  10.880   8.160  0.0695  0.3738 -0.2150
  181loPI   C1B 2893   7.247  10.572  10.066  0.1257  0.0210  0.1393
  181loPI   C2B 2894   7.190  10.498   9.688 -0.1804 -0.0205  0.0053
  181loPI   C3B 2895   7.202  10.572   9.257 -0.0191  0.1808 -0.0536
  181loPI   C4B 2896   7.316  10.535   8.877 -0.3277  0.1939  0.0582
  182loPI    C1 2897   8.650   8.059  11.225 -0.0206 -0.1039  0.0089
  182loPI    C2 2898   8.866   8.369  11.358 -0.1106  0.0153 -0.1200
  182loPI    C3 2899   8.702   8.112  11.618  0.1718 -0.0677 -0.0204
  182loPI   PO4 2900   8.384   8.191  11.006  0.0057  0.2647  0.0495
  182loPI   GL1 2901   8.413   8.271  10.539  0.1392  0.0098 -0.0078
  182loPI   GL2 2902   8.246   8.080  10.368  0.2922  0.4987  0.1168
  182loPI   C1A 2903   8.381   8.631  10.327 -0.0568  0.3169 -0.2274
  182loPI   C2A 2904   8.466   8.640   9.892  0.0267  0.0209  0.1262
  182loPI   C3A 2905   8.502   8.728   9.527  0.1123  0.1398  0.0591
  182loPI   C4A 2906   8.486   8.752   9.076 -0.1484  0.1264 -0.0948
  182loPI   C5A 2907   8.366   8.708   8.674  0.0831 -0.1946  0.1663
  182loPI   C6A 2908   8.409   8.605   8.326  0.2127  0.1260 -0.1872
  182loPI   C1B 2909   8.242   7.862   9.934  0.0190 -0.1909 -0.0423
  182loPI   C2B 2910   8.200   7.840   9.472  0.0172  0.0298 -0.1246
  182loPI   C3B 2911   8.067   7.847   9.027 -0.2298 -0.2906 -0.1614
  182loPI   C4B 2912   8.089   7.862   8.573  0.1378  0.1328  0.0178
  183loPI    C1 2913  17.933   3.569  10.317 -0.0104 -0.2373 -0.2333
  183loPI    C2 2914  17.805   3.251  10.522  0.1624 -0.1367  0.0356
  183loPI    C3 2915  17.879   3.595  10.712 -0.0896  0.0879 -0.2623
  183loPI   PO4 2916  17.886   3.469  10.057  0.3636 -0.0290  0.0085
  183loPI   GL1 2917  17.840   3.445   9.729 -0.1170  0.2506 -0.0651
  183loPI   GL2 2918  17.710   3.631   9.490  0.3670 -0.2124 -0.1526
  183loPI   C1A 2919  18.155   3.295   9.396 -0.1280 -0.0009  0.0273
  183loPI   C2A 2920  18.237   3.319   8.960  0.2384 -0.2165  0.1757
  183loPI   C3A 2921  18.463   3.333   8.537 -0.0025 -0.2129  0.2110
  183loPI   C4A 2922  18.686   3.415   8.163 -0.0345  0.1363  0.2543
  183loPI   C5A 2923  18.757   3.610   7.776 -0.0700 -0.0512  0.1375
  183loPI   C6A 2924  19.021   3.899   7.475 -0.1946 -0.0141  0.0145
  183loPI   C1B 2925  17.760   3.404   9.083 -0.1074 -0.0100  0.1394
  183loPI   C2B 2926  17.848   3.371   8.682  0.0657 -0.0690  0.0523
  183loPI   C3B 2927  18.031   3.472   8.355 -0.3233  0.2641 -0.0411
  183loPI   C4B 2928  18.296   3.703   8.043  0.2129  0.3083 -0.3552
  184loPI    C1 2929  12.416  13.357  10.960 -0.0368 -0.2136 -0.0248
  184loPI    C2 2930  12.154  13.607  11.131  0.0584  0.1060 -0.3327
  184loPI    C3 2931  12.510  13.543  11.301 -0.1694 -0.2463  0.0303
  184loPI   PO4 2932  12.408  13.422  10.733 -0.1637  0.0626  0.0616
  184loPI   GL1 2933  12.328  13.664  10.357 -0.0909 -0.1140  0.1752
  184loPI   GL2 2934  12.553  13.714  10.201 -0.0423  0.0769  0.2479
  184loPI   C1A 2935  11.910  13.569  10.187 -0.1770 -0.1468  0.1300
  184loPI   C2A 2936  11.895  13.500   9.724  0.3426  0.1848  0.0953
  184loPI   C3A 2937  11.797  13.412   9.254  0.0479  0.2471  0.1813
  184loPI   C4A 2938  11.867  13.420   8.716 -0.0437  0.0032 -0.1559
  184loPI   C5A 2939  11.905  13.471   8.327  0.1113 -0.1901  0.3290
  184loPI   C6A 2940  11.882  13.521   7.900 -0.3880  0.2287  0.0017
  184loPI   C1B 2941  12.349  13.743   9.787 -0.1772 -0.1227 -0.4956
  184loPI   C2B 2942  12.215  13.715   9.364  0.3927 -0.2474 -0.2088
  184loPI   C3B 2943  12.303  13.799   8.911 -0.2433 -0.1769  0.0656
  184loPI   C4B 2944  12.158  13.826   8.521 -0.2234 -0.1440 -0.2634
  185loPI    C1 2945  17.065  10.468  10.860 -0.2695  0.1099 -0.0700
  185loPI    C2 2946  16.731  10.318  11.020 -0.0052 -0.3746  0.0462
  185loPI    C3 2947  16.946  10.588  11.223  0.1025 -0.6693  0.3330
  185loPI   PO4 2948  17.180  10.324  10.770 -0.1565  0.0223 -0.1481
  185loPI   GL1 2949  17.359  10.424  10.403 -0.0211  0.3301 -0.0767
  185loPI   GL2 2950  17.284  10.160  10.304  0.0497  0.1814 -0.1817
  185loPI   C1A 2951  17.202  10.710  10.093 -0.2888  0.1043 -0.2834
  185loPI   C2A 2952  17.104  10.740   9.680  0.1828 -0.1922 -0.2902
  185loPI   C3A 2953  16.676  10.591   9.385 -0.0399 -0.1268  0.1018
  185loPI   C4A 2954  16.659  10.441   8.902  0.2629  0.2503  0.0735
  185loPI   C5A 2955  16.803  10.402   8.417 -0.2495 -0.0304  0.0289
  185loPI   C6A 2956  16.953  10.319   7.974  0.0118 -0.2299  0.2886
  185loPI   C1B 2957  17.312  10.273   9.892  0.0069 -0.1972  0.0254
  185loPI   C2B 2958  17.336  10.357   9.389  0.2056  0.1717  0.3347
  185loPI   C3B 2959  17.214  10.707   9.166  0.1366 -0.1081 -0.0638
  185loPI   C4B 2960  17.162  10.679   8.719  0.0433  0.1810 -0.0859
  186loPI    C1 2961  14.266  10.943  10.626 -0.2380 -0.0896 -0.0654
  186loPI    C2 2962  14.261  10.706  10.949 -0.3826 -0.0287 -0.0223
  186loPI    C3 2963  13.996  10.649  10.654 -0.1699 -0.1650 -0.1900
  186loPI   PO4 2964  14.454  10.930  10.497  0.0411  0.3549 -0.4729
  186loPI   GL1 2965  14.466  11.195  10.063 -0.1597 -0.1212  0.1895
  186loPI   GL2 2966  14.682  11.436   9.908 -0.2682  0.3910  0.0186
  186loPI   C1A 2967  14.411  11.026   9.630  0.2344 -0.0026  0.2269
  186loPI   C2A 2968  14.330  10.908   9.275  0.2072  0.0592 -0.2416
  186loPI   C3A 2969  14.443  10.836   8.920 -0.1037  0.1568 -0.2625
  186loPI   C4A 2970  14.459  10.996   8.554 -0.2952  0.0979  0.0259
  186loPI   C5A 2971  14.489  10.879   8.150 -0.0591 -0.0311 -0.3075
  186loPI   C6A 2972  14.732  10.745   7.718 -0.0502 -0.2115 -0.0979
  186loPI   C1B 2973  14.812  11.719   9.616 -0.1166  0.2061 -0.0180
  186loPI   C2B 2974  14.781  11.829   9.164  0.1628  0.4690  0.0292
  186loPI   C3B 2975  14.820  11.751   8.645  0.0254 -0.3952 -0.1071
  186loPI   C4B 2976  14.823  11.708   8.230 -0.0524 -0.1896 -0.2375
  187loPI    C1 2977  12.159   5.182  10.012  0.1174 -0.1871 -0.0364
  187loPI    C2 2978  12.083   4.845  10.214 -0.2484 -0.0178  0.1179
  187loPI    C3 2979  12.329   5.120  10.369 -0.1255 -0.1132  0.0942
  187loPI   PO4 2980  12.290   5.094   9.765  0.0858  0.0055  0.0499
  187loPI   GL1 2981  12.279   5.056   9.400  0.2071 -0.0569 -0.0341
  187loPI   GL2 2982  12.323   4.808   9.347 -0.0645 -0.0599 -0.0533
  187loPI   C1A 2983  12.523   5.173   9.084  0.2438  0.0010  0.1059
  187loPI   C2A 2984  12.583   5.323   8.643 -0.0202  0.0457 -0.0832
  187loPI   C3A 2985  12.732   5.341   8.204 -0.0853  0.2314 -0.0466
  187loPI   C4A 2986  12.533   5.369   7.771 -0.0636 -0.0906  0.0808
  187loPI   C5A 2987  12.136   5.530   7.443 -0.1162 -0.1256  0.2139
  187loPI   C6A 2988  11.694   5.499   7.525  0.1649  0.0088  0.1660
  187loPI   C1B 2989  12.439   4.693   8.912 -0.0676 -0.5588 -0.2683
  187loPI   C2B 2990  12.408   4.358   8.618  0.1167 -0.1588 -0.2487
  187loPI   C3B 2991  12.499   3.974   8.404  0.0853  0.1491 -0.0898
  187loPI   C4B 2992  12.275   3.730   8.060 -0.0671  0.2202  0.2143
  188loPI    C1 2993   6.687   7.419  10.480 -0.0203  0.0096 -0.1714
  188loPI    C2 2994   6.452   7.128  10.337 -0.1564  0.2122 -0.3674
  188loPI    C3 2995   6.822   7.176  10.192 -0.0523  0.0007 -0.1788
  188loPI   PO4 2996   6.608   7.675  10.467 -0.0699 -0.1437 -0.0652
  188loPI   GL1 2997   6.291   7.613  10.301  0.2907 -0.0725 -0.0769
  188loPI   GL2 2998   6.601   7.567   9.987  0.0487  0.0682 -0.2401
  188loPI   C1A 2999   6.273   7.915   9.916  0.0637 -0.0503  0.1377
  188loPI   C2A 3000   6.234   7.928   9.434 -0.0701 -0.1585 -0.2046
  188loPI   C3A 3001   6.278   8.095   9.061  0.0761 -0.1557  0.0746
  188loPI   C4A 3002   6.245   8.118   8.710 -0.1478  0.1036  0.2238
  188loPI   C5A 3003   6.523   8.130   8.357  0.2844 -0.2547 -0.0220
  188loPI   C6A 3004   6.850   8.224   8.060  0.1357  0.0713 -0.0520
  188loPI   C1B 3005   6.774   7.772   9.665 -0.3165  0.2766  0.1321
  188loPI   C2B 3006   6.782   7.855   9.200 -0.2832  0.0869 -0.1524
  188loPI   C3B 3007   6.722   7.901   8.808 -0.1775  0.3936 -0.0663
  188loPI   C4B 3008   6.754   7.710   8.347 -0.0562 -0.0928 -0.2229
  189loPI    C1 3009   6.949   9.021  11.338 -0.0954  0.0890 -0.2248
  189loPI    C2 3010   7.279   8.975  11.560 -0.0908 -0.0893 -0.2668
  189loPI    C3 3011   7.047   9.297  11.610 -0.0558 -0.0967 -0.0481
  189loPI   PO4 3012   7.014   9.024  11.013 -0.1546  0.3737  0.0298
  189loPI   GL1 3013   7.050   9.084  10.550 -0.1190  0.0914 -0.1185
  189loPI   GL2 3014   7.315   8.785  10.500 -0.0887  0.0290 -0.1997
  189loPI   C1A 3015   6.910   9.145  10.184  0.0864 -0.1776 -0.1172
  189loPI   C2A 3016   6.916   9.102   9.834 -0.0882 -0.0873  0.1520
  189loPI   C3A 3017   6.941   9.069   9.475  0.2827 -0.0418  0.1971
  189loPI   C4A 3018   6.966   9.100   9.127  0.0404 -0.0118  0.1023
  189loPI   C5A 3019   7.007   9.261   8.784  0.1479 -0.2986 -0.1941
  189loPI   C6A 3020   6.716   9.278   8.529 -0.0695 -0.0626 -0.0518
  189loPI   C1B 3021   7.343   8.885  10.048 -0.0438 -0.0154  0.4753
  189loPI   C2B 3022   7.460   8.921   9.642  0.1690 -0.4300 -0.1573
  189loPI   C3B 3023   7.601   9.013   9.275  0.1773  0.0856 -0.1629
  189loPI   C4B 3024   7.444   9.009   8.857 -0.0061  0.0963  0.1963
  190loPI    C1 3025  16.793   1.156  10.706 -0.0563  0.2210 -0.1721
  190loPI    C2 3026  16.972   1.481  10.857 -0.1046  0.1307  0.0857
  190loPI    C3 3027  17.017   1.126  11.037 -0.3827  0.0699  0.0404
  190loPI   PO4 3028  16.755   1.232  10.438  0.1245  0.0918 -0.0046
  190loPI   GL1 3029  16.990   1.170  10.102  0.0895  0.1084  0.2488
  190loPI   GL2 3030  17.156   1.306   9.957 -0.0056 -0.0348 -0.0562
  190loPI   C1A 3031  17.318   0.931   9.729  0.0109 -0.2946 -0.0443
  190loPI   C2A 3032  17.340   0.906   9.244  0.0894  0.1521  0.2443
  190loPI   C3A 3033  17.365   0.940   8.887 -0.1041 -0.1709  0.0940
  190loPI   C4A 3034  17.358   0.944   8.325  0.3982  0.0558  0.1367
  190loPI   C5A 3035  17.372   0.842   7.908 -0.0916 -0.1632  0.3618
  190loPI   C6A 3036  17.640   0.608   7.566  0.1326  0.2959 -0.2736
  190loPI   C1B 3037  17.267   1.411   9.486  0.3514  0.0896 -0.1583
  190loPI   C2B 3038  17.495   1.446   9.152  0.2029  0.2040 -0.1327
  190loPI   C3B 3039  17.643   1.415   8.782  0.2012 -0.1085  0.4741
  190loPI   C4B 3040  17.600   1.487   8.269  0.1011  0.2266 -0.1439
  191loPI    C1 3041  13.783   7.181  10.312  0.1330  0.1621  0.0867
  191loPI    C2 3042  13.956   7.071  10.655  0.0372 -0.1713  0.0310
  191loPI    C3 3043  13.605   7.262  10.660  0.0108 -0.2216  0.1174
  191loPI   PO4 3044  13.829   6.963  10.158 -0.0917 -0.0275  0.3404
  191loPI   GL1 3045  13.769   6.948   9.737  0.1563  0.0697 -0.2512
  191loPI   GL2 3046  14.046   7.027   9.595 -0.0267  0.3218 -0.1809
  191loPI   C1A 3047  13.785   6.802   9.278 -0.1033 -0.0796 -0.0089
  191loPI   C2A 3048  13.810   6.861   8.841 -0.1633 -0.0808 -0.0406
  191loPI   C3A 3049  13.711   6.900   8.462  0.0903  0.1109  0.3375
  191loPI   C4A 3050  13.804   6.866   8.002  0.1153 -0.0251  0.1909
  191loPI   C5A 3051  13.857   6.765   7.527  0.2336  0.3292  0.0365
  191loPI   C6A 3052  13.874   7.120   7.247  0.1299 -0.0985  0.0610
  191loPI   C1B 3053  14.095   7.163   9.187  0.0445  0.3840 -0.0434
  191loPI   C2B 3054  14.184   7.190   8.709  0.2960 -0.2196 -0.1172
  191loPI   C3B 3055  14.089   7.152   8.318 -0.0392 -0.0072 -0.1328
  191loPI   C4B 3056  14.125   7.228   7.931  0.1629  0.0050  0.1118
  192loPI    C1 3057  18.056   6.964  10.734 -0.0003  0.1638  0.0170
  192loPI    C2 3058  18.086   6.767  11.080  0.1065  0.2227  0.0418
  192loPI    C3 3059  18.284   7.110  11.028 -0.0630  0.3139 -0.0084
  192loPI   PO4 3060  17.814   6.991  10.696  0.0853  0.4550  0.1311
  192loPI   GL1 3061  17.947   7.128  10.184  0.1356 -0.1756 -0.1270
  192loPI   GL2 3062  17.695   7.297  10.228 -0.2175 -0.0451  0.1660
  192loPI   C1A 3063  18.031   6.858   9.853  0.0338 -0.2018 -0.0830
  192loPI   C2A 3064  18.096   6.868   9.527  0.1418 -0.1659  0.5184
  192loPI   C3A 3065  18.330   6.971   9.143 -0.1375 -0.0905  0.1400
  192loPI   C4A 3066  18.288   6.966   8.738 -0.1344  0.0776 -0.1311
  192loPI   C5A 3067  18.406   7.257   8.291 -0.0445 -0.3678  0.1396
  192loPI   C6A 3068  18.621   7.385   7.920  0.2261 -0.3584  0.1577
  192loPI   C1B 3069  17.764   7.235   9.766 -0.3420 -0.2153  0.0419
  192loPI   C2B 3070  17.914   7.265   9.298  0.2162 -0.0004 -0.0555
  192loPI   C3B 3071  18.103   7.538   8.872 -0.0618 -0.0448  0.1467
  192loPI   C4B 3072  18.204   7.708   8.468  0.0946 -0.1058 -0.1235
  193loPI    C1 3073  14.653  16.941  10.898  0.1163  0.1306 -0.0596
  193loPI    C2 3074  15.034  16.982  11.012  0.1560 -0.2552 -0.0401
  193loPI    C3 3075  14.741  16.993  11.284  0.1415  0.1251 -0.0645
  193loPI   PO4 3076  14.548  16.602  10.750  0.2958 -0.1948 -0.0172
  193loPI   GL1 3077  14.526  16.425  10.305 -0.0311 -0.1710  0.0938
  193loPI   GL2 3078  14.286  16.206  10.224  0.1149 -0.0685  0.3889
  193loPI   C1A 3079  14.623  16.164   9.869  0.0878  0.1513  0.1292
  193loPI   C2A 3080  14.686  16.151   9.336 -0.2521 -0.0082  0.0851
  193loPI   C3A 3081  14.657  16.187   8.873 -0.2666 -0.0489  0.2075
  193loPI   C4A 3082  14.551  16.140   8.490  0.3579  0.0541 -0.3229
  193loPI   C5A 3083  14.677  16.168   8.067 -0.0497  0.0894 -0.0347
  193loPI   C6A 3084  14.290  16.126   7.742  0.1701 -0.1014  0.4559
  193loPI   C1B 3085  14.180  16.255   9.768  0.3148  0.0897 -0.0029
  193loPI   C2B 3086  14.216  16.338   9.386  0.1506  0.0139  0.0806
  193loPI   C3B 3087  14.222  16.272   9.023  0.3139 -0.0584 -0.0504
  193loPI   C4B 3088  14.024  16.335   8.617  0.1350 -0.0361  0.2033
  194loPI    C1 3089   4.624   1.499  10.942 -0.0465 -0.0322  0.1439
  194loPI    C2 3090   4.233   1.449  11.012 -0.0213 -0.3295  0.0849
  194loPI    C3 3091   4.475   1.569  11.307 -0.1622 -0.1032  0.1110
  194loPI   PO4 3092   4.672   1.589  10.707 -0.0183  0.3322 -0.0951
  194loPI   GL1 3093   4.799   1.504  10.386  0.2163  0.3897 -0.0877
  194loPI   GL2 3094   4.881   1.250  10.218  0.1136  0.0835  0.1496
  194loPI   C1A 3095   4.978   1.851  10.131 -0.0177 -0.1270  0.2166
  194loPI   C2A 3096   5.029   1.860   9.693  0.1475 -0.1043 -0.0220
  194loPI   C3A 3097   5.091   1.883   9.226  0.3604 -0.0435  0.2270
  194loPI   C4A 3098   5.118   1.892   8.742 -0.2169 -0.0620  0.1955
  194loPI   C5A 3099   5.133   1.845   8.317 -0.2666 -0.2710  0.2949
  194loPI   C6A 3100   5.286   1.409   8.105 -0.0310  0.0680  0.0037
  194loPI   C1B 3101   4.916   1.419   9.845  0.1776 -0.1301  0.2867
  194loPI   C2B 3102   4.877   1.428   9.383  0.1654 -0.1244 -0.3365
  194loPI   C3B 3103   4.930   1.456   8.985 -0.0560 -0.1758  0.0679
  194loPI   C4B 3104   4.968   1.430   8.519  0.1956  0.0519  0.0612
  195loPI    C1 3105  10.153   8.365  10.476 -0.0149 -0.3273  0.1363
  195loPI    C2 3106  10.071   7.989  10.365  0.2439 -0.2842 -0.2175
  195loPI    C3 3107  10.451   8.110  10.398  0.1627 -0.0676 -0.0504
  195loPI   PO4 3108   9.917   8.462  10.367 -0.0074 -0.0441  0.3210
  195loPI   GL1 3109   9.663   8.327  10.005  0.2215 -0.0717  0.3258
  195loPI   GL2 3110   9.443   8.535  10.299  0.0464 -0.0451  0.4939
  195loPI   C1A 3111   9.571   8.387   9.625  0.0836 -0.1433 -0.1090
  195loPI   C2A 3112   9.385   8.415   9.202  0.0077  0.0629 -0.0862
  195loPI   C3A 3113   9.388   8.389   8.821 -0.0103  0.1382 -0.0145
  195loPI   C4A 3114   9.432   8.535   8.438  0.0940  0.2875 -0.2339
  195loPI   C5A 3115   9.372   8.528   8.043  0.1058 -0.2633  0.0267
  195loPI   C6A 3116   9.522   8.437   7.682  0.0827  0.0692  0.1443
  195loPI   C1B 3117   9.430   8.825   9.806  0.0310 -0.0167  0.1220
  195loPI   C2B 3118   9.332   8.861   9.409  0.3415 -0.1010 -0.3706
  195loPI   C3B 3119   9.381   8.971   9.105 -0.4406  0.0842  0.1363
  195loPI   C4B 3120   9.489   8.900   8.743 -0.0490 -0.0532  0.2170
  196loPI    C1 3121   3.574  16.385  10.557  0.1040  0.4216 -0.3110
  196loPI    C2 3122   3.897  16.401  10.792  0.0088 -0.0213 -0.1400
  196loPI    C3 3123   3.569  16.608  10.888  0.0547 -0.0049 -0.0163
  196loPI   PO4 3124   3.671  16.435  10.301  0.0155 -0.0089  0.0998
  196loPI   GL1 3125   3.928  16.514  10.039  0.1782  0.2946 -0.3471
  196loPI   GL2 3126   4.175  16.403   9.927 -0.0288  0.0442  0.2317
  196loPI   C1A 3127   3.742  16.622   9.646  0.1134  0.2372 -0.4609
  196loPI   C2A 3128   3.838  16.780   9.281 -0.1087 -0.1450 -0.0708
  196loPI   C3A 3129   3.858  16.804   8.905  0.1395 -0.0955  0.0470
  196loPI   C4A 3130   3.793  16.738   8.516  0.0472  0.2168  0.1901
  196loPI   C5A 3131   3.560  16.594   8.165 -0.0167  0.1691 -0.0512
  196loPI   C6A 3132   3.104  16.559   8.028  0.0466 -0.2650 -0.2572
  196loPI   C1B 3133   4.175  16.462   9.439  0.2952  0.2080  0.1546
  196loPI   C2B 3134   4.320  16.418   9.014  0.0702  0.0062 -0.0375
  196loPI   C3B 3135   4.211  16.496   8.600  0.0521  0.3060  0.2964
  196loPI   C4B 3136   4.305  16.370   8.198  0.3557  0.0371 -0.0512
  197loPI    C1 3137  13.686  12.278  10.328  0.0499  0.1274 -0.0010
  197loPI    C2 3138  13.924  11.998  10.485  0.0790  0.1659  0.0235
  197loPI    C3 3139  13.769  12.284  10.719 -0.1244  0.0450  0.0386
  197loPI   PO4 3140  13.515  12.124  10.148  0.0849 -0.2395  0.0233
  197loPI   GL1 3141  13.246  12.236   9.929 -0.3042 -0.1005  0.1467
  197loPI   GL2 3142  13.166  12.547   9.962 -0.1895 -0.1239 -0.2479
  197loPI   C1A 3143  13.308  12.280   9.402 -0.0450  0.3529 -0.0620
  197loPI   C2A 3144  13.371  12.367   8.999 -0.1896  0.0581 -0.1465
  197loPI   C3A 3145  13.252  12.405   8.521 -0.2258 -0.2510 -0.3116
  197loPI   C4A 3146  13.314  12.327   8.143  0.1291  0.1530 -0.0685
  197loPI   C5A 3147  13.434  11.980   7.840 -0.4421  0.0338 -0.1132
  197loPI   C6A 3148  13.658  11.752   7.583  0.1639  0.0870 -0.0840
  197loPI   C1B 3149  13.275  12.825   9.691 -0.1886  0.0287  0.2456
  197loPI   C2B 3150  13.350  12.822   9.224  0.1281 -0.2562  0.1881
  197loPI   C3B 3151  13.326  12.852   8.790  0.0947  0.1113 -0.1581
  197loPI   C4B 3152  13.326  12.822   8.299 -0.1098 -0.1361 -0.1107
  198loPI    C1 3153   8.165  10.992  10.861 -0.1020  0.0290  0.0149
  198loPI    C2 3154   7.909  10.685  10.857  0.0928 -0.1422  0.3024
  198loPI    C3 3155   7.876  10.969  11.136  0.0127  0.0147  0.1352
  198loPI   PO4 3156   8.103  11.140  10.732 -0.1606 -0.1092  0.2212
  198loPI   GL1 3157   8.077  11.323  10.433  0.0813  0.2678 -0.1555
  198loPI   GL2 3158   8.374  11.379  10.240  0.2272 -0.0028  0.1664
  198loPI   C1A 3159   7.951  11.182  10.027  0.1390  0.0410  0.0961
  198loPI   C2A 3160   7.939  11.214   9.580  0.1921 -0.0550  0.0828
  198loPI   C3A 3161   7.996  11.225   9.218  0.0551 -0.0457 -0.4695
  198loPI   C4A 3162   8.060  11.207   8.813  0.0619  0.0843 -0.0342
  198loPI   C5A 3163   8.100  11.329   8.340  0.1275  0.0635 -0.1643
  198loPI   C6A 3164   8.225  11.245   7.933  0.0934 -0.0364  0.2234
  198loPI   C1B 3165   8.306  11.557   9.817 -0.0642 -0.0240  0.0670
  198loPI   C2B 3166   8.378  11.582   9.348  0.0062  0.1490  0.3275
  198loPI   C3B 3167   8.470  11.536   8.904 -0.1138 -0.0218  0.1055
  198loPI   C4B 3168   8.566  11.447   8.396  0.0717 -0.1999  0.2037
  199loPI    C1 3169  11.613   1.352  10.713 -0.0082  0.2436  0.0489
  199loPI    C2 3170  11.578   1.717  10.554 -0.0582  0.2489  0.0721
  199loPI    C3 3171  11.473   1.654  10.935 -0.1574  0.1861  0.0346
  199loPI   PO4 3172  11.900   1.288  10.582 -0.0432 -0.3351  0.2056
  199loPI   GL1 3173  12.033   1.265  10.161  0.0861 -0.0682 -0.0586
  199loPI   GL2 3174  11.775   1.569  10.053 -0.0593  0.3916 -0.3697
  199loPI   C1A 3175  12.209   1.132   9.743  0.1161 -0.1663 -0.2505
  199loPI   C2A 3176  12.095   1.253   9.304 -0.0489  0.0354  0.1969
  199loPI   C3A 3177  12.224   1.185   8.874 -0.0456 -0.2790  0.0332
  199loPI   C4A 3178  12.345   1.393   8.565  0.1093 -0.2084  0.1155
  199loPI   C5A 3179  12.254   1.170   8.232  0.0194  0.1346  0.0656
  199loPI   C6A 3180  11.879   1.275   7.890 -0.2741  0.1601 -0.2082
  199loPI   C1B 3181  11.771   1.387   9.699  0.2461 -0.0148 -0.3572
  199loPI   C2B 3182  11.667   1.550   9.309 -0.1288  0.0764 -0.0342
  199loPI   C3B 3183  11.799   1.581   8.938  0.1680 -0.1131  0.2087
  199loPI   C4B 3184  11.795   1.358   8.514  0.0630  0.1628 -0.0379
  200loPI    C1 3185  17.899   0.520  10.943  0.0642  0.0560  0.2992
  200loPI    C2 3186  17.596   0.474  11.201 -0.1697 -0.2204 -0.0152
  200loPI    C3 3187  17.954   0.316  11.282 -0.1155  0.0702  0.3381
  200loPI   PO4 3188  17.852   0.398  10.598  0.0209  0.3067  0.2297
  200loPI   GL1 3189  17.712   0.219  10.238  0.1602  0.0203  0.2281
  200loPI   GL2 3190  17.446   0.126  10.129  0.1549  0.1411  0.0245
  200loPI   C1A 3191  17.906   0.082   9.867 -0.1618 -0.2123  0.0099
  200loPI   C2A 3192  17.896   0.069   9.411  0.1982 -0.2564  0.1273
  200loPI   C3A 3193  17.904  -0.068   8.956 -0.0377  0.0013 -0.3217
  200loPI   C4A 3194  17.857  -0.217   8.583 -0.1305 -0.1839  0.0265
  200loPI   C5A 3195  17.767  -0.266   8.079 -0.0270  0.0720 -0.1741
  200loPI   C6A 3196  17.495  -0.251   7.769 -0.2672  0.0090  0.2108
  200loPI   C1B 3197  17.448   0.087   9.703  0.2349  0.1428 -0.1061
  200loPI   C2B 3198  17.477   0.013   9.231 -0.0897 -0.0939 -0.1541
  200loPI   C3B 3199  17.405   0.073   8.785  0.2455 -0.2208 -0.0461
  200loPI   C4B 3200  17.571   0.091   8.432  0.0734  0.1003 -0.0974
  201loPI    C1 3201   4.209   5.044  10.828 -0.1900  0.0843  0.0818
  201loPI    C2 3202   4.420   5.324  11.020 -0.0974 -0.0519  0.1810
  201loPI    C3 3203   4.121   5.136  11.207 -0.1929  0.0164  0.0978
  201loPI   PO4 3204   4.131   5.052  10.627 -0.1283  0.1302  0.1060
  201loPI   GL1 3205   4.052   5.189  10.268 -0.2495 -0.0619 -0.1350
  201loPI   GL2 3206   3.946   5.421  10.244  0.1498  0.0517  0.0791
  201loPI   C1A 3207   4.011   5.181   9.820  0.0373 -0.2008 -0.0595
  201loPI   C2A 3208   4.081   5.284   9.358  0.2145 -0.5033  0.0124
  201loPI   C3A 3209   4.128   5.252   9.000 -0.0751 -0.0426 -0.1842
  201loPI   C4A 3210   4.297   5.225   8.633 -0.0348 -0.0627  0.0811
  201loPI   C5A 3211   4.400   4.921   8.415 -0.2114  0.1394  0.1554
  201loPI   C6A 3212   4.287   4.652   8.116 -0.0593 -0.1132  0.3389
  201loPI   C1B 3213   3.701   5.574   9.994 -0.3137 -0.1273  0.3126
  201loPI   C2B 3214   3.723   5.687   9.513  0.0532  0.0595  0.0462
  201loPI   C3B 3215   3.728   5.713   9.144  0.1985  0.1629 -0.1274
  201loPI   C4B 3216   3.754   5.550   8.753  0.2445  0.0320  0.4055
  202loPI    C1 3217  14.737  13.849  10.868  0.0560  0.0329  0.0643
  202loPI    C2 3218  14.448  13.824  11.144 -0.0965 -0.1140 -0.1055
  202loPI    C3 3219  14.708  14.129  11.152 -0.0950 -0.1207  0.2025
  202loPI   PO4 3220  14.650  13.867  10.647 -0.1141  0.1139  0.1106
  202loPI   GL1 3221  14.635  13.698  10.226 -0.0630 -0.2467  0.2471
  202loPI   GL2 3222  14.557  13.346  10.119 -0.3524 -0.4189 -0.0693
  202loPI   C1A 3223  14.530  13.767   9.791  0.2927  0.0226 -0.0299
  202loPI   C2A 3224  14.471  13.877   9.326 -0.3077 -0.1420  0.1757
  202loPI   C3A 3225  14.438  13.845   8.935  0.0420 -0.0248  0.1063
  202loPI   C4A 3226  14.356  13.806   8.540  0.3215  0.0647  0.0360
  202loPI   C5A 3227  14.137  13.854   8.090 -0.1277  0.0164 -0.2088
  202loPI   C6A 3228  14.234  13.710   7.685  0.0350  0.0262  0.1320
  202loPI   C1B 3229  14.567  13.254   9.662 -0.1687  0.0483  0.2343
  202loPI   C2B 3230  14.563  13.234   9.236  0.0960 -0.0737 -0.2785
  202loPI   C3B 3231  14.500  13.368   8.896 -0.1087  0.0450 -0.2407
  202loPI   C4B 3232  14.506  13.395   8.582  0.0207  0.0388  0.1984
  203loPI    C1 3233   0.047  11.085  10.759 -0.0900  0.2411  0.1535
  203loPI    C2 3234   0.280  10.903  11.029 -0.0314 -0.1211 -0.1332
  203loPI    C3 3235   0.269  11.303  11.011  0.0575 -0.0931  0.3190
  203loPI   PO4 3236   0.072  10.970  10.591 -0.0858  0.2082 -0.0187
  203loPI   GL1 3237   0.084  10.837  10.290 -0.2940  0.0956  0.2594
  203loPI   GL2 3238   0.170  10.999  10.052 -0.3807 -0.0572  0.1421
  203loPI   C1A 3239  -0.030  10.562   9.911 -0.1069 -0.1361 -0.1725
  203loPI   C2A 3240  -0.206  10.430   9.442  0.0859 -0.2573  0.0376
  203loPI   C3A 3241  -0.219  10.390   8.958 -0.0509 -0.2455 -0.3746
  203loPI   C4A 3242  -0.100  10.365   8.508 -0.1484 -0.0283  0.2672
  203loPI   C5A 3243  -0.056  10.569   8.160  0.1716 -0.0113 -0.1318
  203loPI   C6A 3244   0.308  10.802   8.119  0.1072 -0.1899 -0.0713
  203loPI   C1B 3245   0.187  11.257   9.709  0.1744 -0.1155 -0.0898
  203loPI   C2B 3246   0.237  11.213   9.247  0.0044 -0.0568 -0.0980
  203loPI   C3B 3247   0.149  11.221   8.857  0.2435  0.1115  0.1444
  203loPI   C4B 3248   0.216  11.141   8.494 -0.3070  0.0558  0.2320
  204loPI    C1 3249   8.910  17.034  10.720 -0.1581  0.0782  0.0643
  204loPI    C2 3250   8.624  16.974  10.994 -0.0879 -0.0675  0.1072
  204loPI    C3 3251   8.959  17.169  11.094 -0.0572 -0.1313  0.1290
  204loPI   PO4 3252   8.753  17.099  10.492  0.1849  0.0679 -0.0882
  204loPI   GL1 3253   8.712  17.243  10.104 -0.0535  0.1331 -0.0148
  204loPI   GL2 3254   8.487  17.507  10.271 -0.1423  0.1266  0.2697
  204loPI   C1A 3255   8.745  17.225   9.767  0.0914  0.0703  0.0701
  204loPI   C2A 3256   8.766  17.380   9.395  0.1748 -0.1258 -0.0001
  204loPI   C3A 3257   8.725  17.418   9.003 -0.1645 -0.2447  0.2483
  204loPI   C4A 3258   8.722  17.376   8.501  0.2624  0.0088 -0.1008
  204loPI   C5A 3259   8.856  17.325   8.033  0.0549 -0.0964  0.2791
  204loPI   C6A 3260   9.202  17.099   7.776  0.0143 -0.0867  0.1419
  204loPI   C1B 3261   8.500  17.718   9.956  0.0557 -0.3071  0.2024
  204loPI   C2B 3262   8.330  17.761   9.494  0.0090 -0.1513  0.0729
  204loPI   C3B 3263   8.291  17.767   9.082  0.2038 -0.3518 -0.0800
  204loPI   C4B 3264   8.447  17.722   8.693 -0.0902 -0.1986  0.1095
  205loPI    C1 3265  10.364  10.742  11.007  0.4328  0.1860 -0.0961
  205loPI    C2 3266  10.558  11.008  11.234  0.1163  0.0490  0.3470
  205loPI    C3 3267  10.295  10.757  11.400 -0.0965 -0.0831 -0.1706
  205loPI   PO4 3268  10.260  10.864  10.715 -0.1387 -0.0016  0.0974
  205loPI   GL1 3269  10.011  10.697  10.405  0.0253  0.2701 -0.1577
  205loPI   GL2 3270  10.293  10.810  10.179  0.1453  0.2625 -0.0028
  205loPI   C1A 3271   9.849  10.593   9.935 -0.1158 -0.1172  0.2535
  205loPI   C2A 3272   9.859  10.618   9.554 -0.1175 -0.1043  0.3181
  205loPI   C3A 3273   9.936  10.698   9.086  0.2045 -0.1088 -0.0611
  205loPI   C4A 3274   9.979  10.737   8.690  0.0472 -0.0322  0.2533
  205loPI   C5A 3275   9.734  10.780   8.328 -0.2267  0.1603 -0.2450
  205loPI   C6A 3276   9.479  10.698   8.033 -0.1701  0.3159  0.1355
  205loPI   C1B 3277  10.399  10.514   9.798 -0.1778  0.0891 -0.2606
  205loPI   C2B 3278  10.387  10.515   9.358  0.1060  0.0669  0.1356
  205loPI   C3B 3279  10.416  10.588   8.886  0.3457  0.0263  0.1743
  205loPI   C4B 3280  10.459  10.690   8.418  0.3052  0.3153  0.0178
  206loPI    C1 3281   4.392   7.362  11.057 -0.1808 -0.0117  0.0911
  206loPI    C2 3282   4.408   7.717  11.241 -0.1522  0.1573 -0.2292
  206loPI    C3 3283   4.142   7.442  11.359 -0.1926  0.2936  0.0040
  206loPI   PO4 3284   4.449   7.415  10.801 -0.1745  0.1305  0.0872
  206loPI   GL1 3285   4.611   7.607  10.457  0.2102  0.0938 -0.0357
  206loPI   GL2 3286   4.611   7.338  10.275 -0.0515  0.2403  0.1660
  206loPI   C1A 3287   4.943   7.666  10.168 -0.1031  0.1833  0.0282
  206loPI   C2A 3288   4.886   7.544   9.798  0.1346 -0.1617 -0.0284
  206loPI   C3A 3289   4.935   7.602   9.302  0.3198  0.0815  0.0073
  206loPI   C4A 3290   5.112   7.559   8.909  0.0174 -0.3039  0.0707
  206loPI   C5A 3291   5.344   7.512   8.623 -0.1702 -0.0736  0.1653
  206loPI   C6A 3292   5.582   7.940   8.378  0.0847  0.0927  0.2513
  206loPI   C1B 3293   4.427   7.646   9.974 -0.1302  0.1474  0.0225
  206loPI   C2B 3294   4.459   7.585   9.459 -0.1523 -0.2443 -0.2168
  206loPI   C3B 3295   4.463   7.592   9.053 -0.1457 -0.1711 -0.3947
  206loPI   C4B 3296   4.659   7.394   8.684 -0.3353 -0.1675 -0.2337
  207loPI    C1 3297   0.557  15.918  11.015 -0.0157  0.1597 -0.1822
  207loPI    C2 3298   0.466  16.170  11.313  0.0960 -0.0380  0.0226
  207loPI    C3 3299   0.716  15.865  11.378 -0.0273 -0.1957 -0.2260
  207loPI   PO4 3300   0.672  16.063  10.750 -0.1667  0.1915 -0.0199
  207loPI   GL1 3301   0.647  16.047  10.265  0.0263  0.0041  0.0475
  207loPI   GL2 3302   0.446  16.053  10.072  0.3740  0.0634 -0.3591
  207loPI   C1A 3303   0.831  15.922   9.851  0.0266 -0.0129  0.1835
  207loPI   C2A 3304   0.957  15.825   9.431  0.0062 -0.0872  0.1267
  207loPI   C3A 3305   0.915  15.775   9.013  0.0046 -0.0471  0.0424
  207loPI   C4A 3306   0.825  15.750   8.605 -0.3397  0.1457 -0.2482
  207loPI   C5A 3307   0.919  16.009   8.173 -0.3336 -0.2979  0.1224
  207loPI   C6A 3308   1.357  16.105   7.975 -0.3749  0.3722  0.1240
  207loPI   C1B 3309   0.403  16.063   9.695 -0.5169  0.0391  0.1088
  207loPI   C2B 3310   0.490  15.972   9.250  0.1191 -0.1115  0.0292
  207loPI   C3B 3311   0.432  15.955   8.837 -0.0673 -0.0602  0.0563
  207loPI   C4B 3312   0.304  15.896   8.367 -0.0546  0.0489 -0.1689
  208loPI    C1 3313   5.181   2.374  11.028  0.0556  0.0061  0.0131
  208loPI    C2 3314   4.954   2.107  10.834  0.0140  0.0882 -0.0517
  208loPI    C3 3315   4.784   2.420  11.016  0.0288 -0.1210  0.3318
  208loPI   PO4 3316   5.363   2.437  10.775  0.1257  0.2217  0.0080
  208loPI   GL1 3317   5.373   2.774  10.340  0.1051  0.0770 -0.0427
  208loPI   GL2 3318   5.620   2.498  10.309 -0.1187 -0.2611  0.0066
  208loPI   C1A 3319   5.297   2.935   9.982 -0.2257 -0.5311 -0.0607
  208loPI   C2A 3320   5.416   3.290   9.682  0.0477  0.1558  0.2276
  208loPI   C3A 3321   5.480   3.312   9.162  0.3796 -0.2426 -0.0282
  208loPI   C4A 3322   5.642   3.424   8.773 -0.1793  0.0200  0.0777
  208loPI   C5A 3323   5.679   3.386   8.309  0.0803  0.0892 -0.2073
  208loPI   C6A 3324   5.673   3.555   7.953  0.0849 -0.1121  0.0522
  208loPI   C1B 3325   5.614   2.570   9.847  0.1301 -0.0248  0.0111
  208loPI   C2B 3326   5.743   2.514   9.488 -0.0062 -0.0688  0.0411
  208loPI   C3B 3327   5.708   2.506   9.082 -0.0621 -0.1394 -0.3114
  208loPI   C4B 3328   5.840   2.592   8.674 -0.1079 -0.0329 -0.1438
  209loPI    C1 3329  17.475  11.855  10.834  0.0744 -0.0717  0.1066
  209loPI    C2 3330  17.188  11.610  10.968  0.0161 -0.1222 -0.1073
  209loPI    C3 3331  17.566  11.560  11.089 -0.0339 -0.1724  0.0299
  209loPI   PO4 3332  17.321  11.846  10.569 -0.0792 -0.0806  0.3657
  209loPI   GL1 3333  17.601  11.851  10.169 -0.1795  0.2735 -0.1310
  209loPI   GL2 3334  17.710  12.186  10.144 -0.1355 -0.1552  0.0164
  209loPI   C1A 3335  17.544  11.644   9.799  0.3111  0.0359  0.0138
  209loPI   C2A 3336  17.620  11.651   9.446 -0.2626 -0.2660 -0.1611
  209loPI   C3A 3337  17.451  11.608   9.055  0.2076  0.0359  0.0178
  209loPI   C4A 3338  17.413  11.518   8.640  0.5248  0.0389  0.3319
  209loPI   C5A 3339  17.186  11.803   8.279 -0.3911 -0.0961  0.2383
  209loPI   C6A 3340  16.933  12.039   8.061  0.0165  0.1235 -0.1194
  209loPI   C1B 3341  17.917  12.465   9.770 -0.0279  0.2275  0.0260
  209loPI   C2B 3342  17.955  12.472   9.420 -0.1515 -0.2046  0.1047
  209loPI   C3B 3343  17.884  12.393   9.025 -0.1410  0.1360 -0.1461
  209loPI   C4B 3344  17.902  12.349   8.561 -0.3081 -0.0689  0.0223
  210loPI    C1 3345  18.155   2.940  10.387 -0.0409 -0.0549 -0.0844
  210loPI    C2 3346  18.225   2.752  10.041 -0.2939 -0.1153 -0.1050
  210loPI    C3 3347  18.030   2.564  10.335 -0.0814 -0.0640  0.0720
  210loPI   PO4 3348  18.249   3.193  10.259 -0.0426 -0.2068  0.0274
  210loPI   GL1 3349  18.521   3.127   9.879  0.1214  0.0845 -0.0843
  210loPI   GL2 3350  18.440   2.909   9.632  0.1219  0.0733 -0.1216
  210loPI   C1A 3351  18.871   3.011   9.471 -0.0828  0.0409 -0.2083
  210loPI   C2A 3352  19.069   3.030   8.996  0.0522  0.1240 -0.0008
  210loPI   C3A 3353  19.210   2.949   8.508 -0.2119  0.1591 -0.0093
  210loPI   C4A 3354  19.193   3.051   8.133  0.1663  0.0266 -0.1088
  210loPI   C5A 3355  18.932   3.110   7.819  0.2387  0.1637  0.2712
  210loPI   C6A 3356  18.568   3.191   7.710 -0.2242 -0.1226  0.0655
  210loPI   C1B 3357  18.485   2.873   9.208 -0.3319 -0.1268 -0.2138
  210loPI   C2B 3358  18.624   2.954   8.857 -0.0622  0.0120  0.1952
  210loPI   C3B 3359  18.749   2.908   8.524 -0.0178  0.1318  0.0184
  210loPI   C4B 3360  18.539   2.840   8.209  0.1897  0.0346 -0.1339
  211loPI    C1 3361   2.750  11.905  10.803 -0.0677 -0.1800  0.0700
  211loPI    C2 3362   2.765  11.797  11.188 -0.3854  0.1987  0.1953
  211loPI    C3 3363   2.524  12.095  11.073 -0.0234  0.3340 -0.2416
  211loPI   PO4 3364   3.063  11.925  10.709  0.3160  0.1091  0.0394
  211loPI   GL1 3365   3.275  11.820  10.326  0.1235  0.2968 -0.3710
  211loPI   GL2 3366   3.422  12.063  10.339 -0.3783  0.0239 -0.0233
  211loPI   C1A 3367   3.440  11.776   9.858  0.1009  0.0676 -0.3615
  211loPI   C2A 3368   3.402  11.846   9.498  0.0679  0.1048 -0.0482
  211loPI   C3A 3369   3.204  12.200   9.264  0.1027  0.1053  0.4063
  211loPI   C4A 3370   3.416  12.411   8.893 -0.1617  0.0261 -0.0283
  211loPI   C5A 3371   3.572  12.139   8.518 -0.1053 -0.0154  0.1523
  211loPI   C6A 3372   3.538  11.982   8.090  0.1808 -0.0746  0.1817
  211loPI   C1B 3373   3.462  12.297   9.960 -0.1904 -0.2913  0.3352
  211loPI   C2B 3374   3.390  12.581   9.534 -0.1500 -0.1311 -0.0668
  211loPI   C3B 3375   3.224  12.713   9.234  0.2395 -0.2215 -0.0141
  211loPI   C4B 3376   2.998  13.036   9.302 -0.1820 -0.1124 -0.1997
  212loPI    C1 3377  16.289   9.119  10.498 -0.2042  0.0557  0.1005
  212loPI    C2 3378  16.152   8.855  10.765  0.0238 -0.0292  0.1347
  212loPI    C3 3379  16.453   9.100  10.862 -0.1177  0.1725  0.0681
  212loPI   PO4 3380  16.341   9.005  10.238 -0.0232 -0.0004 -0.2193
  212loPI   GL1 3381  16.499   9.015   9.901 -0.0578  0.4301  0.0047
  212loPI   GL2 3382  16.796   9.226  10.028  0.1701  0.2237 -0.1008
  212loPI   C1A 3383  16.476   9.143   9.483 -0.1463  0.2442 -0.1590
  212loPI   C2A 3384  16.519   9.192   9.077 -0.1768 -0.0758 -0.0981
  212loPI   C3A 3385  16.401   9.122   8.720  0.3654  0.0965  0.1270
  212loPI   C4A 3386  16.427   9.066   8.336 -0.1669 -0.3952 -0.2995
  212loPI   C5A 3387  16.474   9.127   7.864  0.0405 -0.1126 -0.2627
  212loPI   C6A 3388  16.389   9.179   7.462  0.0681  0.0886 -0.0693
  212loPI   C1B 3389  16.914   9.321   9.688  0.0360  0.0484  0.0885
  212loPI   C2B 3390  16.907   9.436   9.304 -0.1072 -0.0036 -0.0319
  212loPI   C3B 3391  16.838   9.408   8.787 -0.1433 -0.0436 -0.0196
  212loPI   C4B 3392  16.802   9.577   8.467 -0.2681  0.0956 -0.0318
  213loPI    C1 3393   0.431   0.994  10.581 -0.1125  0.2182  0.0914
  213loPI    C2 3394   0.722   1.013  10.855 -0.0418  0.1418  0.0222
  213loPI    C3 3395   0.367   0.857  10.952  0.0812 -0.1670 -0.0123
  213loPI   PO4 3396   0.370   0.932  10.404  0.0928  0.0914 -0.2562
  213loPI   GL1 3397   0.235   0.842  10.068  0.0929  0.0989 -0.1804
  213loPI   GL2 3398   0.356   0.549   9.988 -0.0236 -0.1846  0.3406
  213loPI   C1A 3399   0.263   1.018   9.705 -0.0312  0.0279  0.0192
  213loPI   C2A 3400   0.554   1.087   9.293  0.1966  0.1284  0.2023
  213loPI   C3A 3401   0.475   1.046   8.864 -0.1660 -0.3024 -0.2060
  213loPI   C4A 3402   0.606   1.256   8.434  0.0606 -0.0636 -0.0319
  213loPI   C5A 3403   0.655   1.040   8.053 -0.0460 -0.1164  0.1482
  213loPI   C6A 3404   0.827   1.064   7.625  0.4552  0.1994 -0.0300
  213loPI   C1B 3405   0.261   0.517   9.525 -0.0409 -0.1212 -0.2019
  213loPI   C2B 3406   0.416   0.618   9.118  0.2702  0.1872  0.3203
  213loPI   C3B 3407   0.345   0.432   8.682  0.0138  0.1487 -0.0915
  213loPI   C4B 3408   0.399   0.627   8.275  0.2488 -0.0497 -0.4209
  214loPI    C1 3409  12.045  17.298  10.893 -0.0162  0.0477 -0.0193
  214loPI    C2 3410  12.029  17.673  11.031 -0.2945  0.0442 -0.0362
  214loPI    C3 3411  11.991  17.365  11.283 -0.2362  0.0291 -0.0456
  214loPI   PO4 3412  12.233  17.316  10.671  0.1786 -0.1446  0.2510
  214loPI   GL1 3413  12.446  17.127  10.283  0.0540  0.0726  0.0091
  214loPI   GL2 3414  12.454  16.808  10.287  0.0152 -0.0541  0.0553
  214loPI   C1A 3415  12.232  17.138   9.913 -0.1691  0.1337  0.2791
  214loPI   C2A 3416  12.285  17.064   9.461  0.2676  0.2690  0.0385
  214loPI   C3A 3417  12.224  17.062   9.040 -0.1701 -0.0013 -0.0721
  214loPI   C4A 3418  12.303  17.201   8.629  0.0318  0.2492 -0.0447
  214loPI   C5A 3419  12.187  17.309   8.193 -0.0264 -0.0255  0.1673
  214loPI   C6A 3420  12.169  17.110   7.756  0.0306 -0.0491  0.0377
  214loPI   C1B 3421  12.386  16.607  10.038 -0.0478  0.1222 -0.5724
  214loPI   C2B 3422  12.343  16.598   9.602  0.2333  0.0022  0.0116
  214loPI   C3B 3423  12.320  16.560   9.215  0.1593 -0.3994 -0.2171
  214loPI   C4B 3424  12.258  16.646   8.774 -0.0931  0.0600  0.3126
  215loPI    C1 3425  11.268   9.741  10.598  0.0424 -0.0549 -0.0141
  215loPI    C2 3426  11.272   9.566  10.958  0.0574 -0.0420 -0.0080
  215loPI    C3 3427  11.602   9.566  10.731  0.1120  0.1384  0.0695
  215loPI   PO4 3428  11.102   9.644  10.490  0.0758 -0.0229 -0.1271
  215loPI   GL1 3429  11.146   9.584  10.066  0.3176 -0.0661  0.0252
  215loPI   GL2 3430  11.163   9.250   9.814 -0.1274  0.2077  0.2097
  215loPI   C1A 3431  10.972   9.832   9.694  0.0398 -0.0831 -0.0630
  215loPI   C2A 3432  10.933   9.878   9.235 -0.0449 -0.0693 -0.1353
  215loPI   C3A 3433  10.961   9.975   8.798 -0.2058 -0.1714  0.4093
  215loPI   C4A 3434  11.055   9.873   8.454  0.0600  0.1677  0.1546
  215loPI   C5A 3435  11.133  10.099   8.085  0.2927 -0.0676  0.0591
  215loPI   C6A 3436  11.176  10.421   7.827  0.2782  0.0063  0.1221
  215loPI   C1B 3437  11.055   9.431   9.415 -0.0282 -0.0092  0.1154
  215loPI   C2B 3438  11.075   9.479   8.974  0.2614 -0.0657 -0.1522
  215loPI   C3B 3439  11.153   9.384   8.504 -0.0862  0.3457  0.2014
  215loPI   C4B 3440  11.093   9.555   8.114  0.0088 -0.1801 -0.0320
  216loPI    C1 3441   1.467   6.922  11.035  0.2318 -0.0015  0.0391
  216loPI    C2 3442   1.340   6.708  10.722 -0.1487 -0.0032  0.1899
  216loPI    C3 3443   1.223   7.088  10.766  0.2330  0.1274  0.1167
  216loPI   PO4 3444   1.690   6.948  10.959 -0.2063 -0.0631 -0.0031
  216loPI   GL1 3445   1.789   6.922  10.505 -0.0782  0.0597  0.1006
  216loPI   GL2 3446   1.517   6.996  10.375 -0.3745 -0.2319  0.2135
  216loPI   C1A 3447   1.778   6.759  10.029  0.1471  0.0174 -0.1277
  216loPI   C2A 3448   1.690   6.677   9.626 -0.0909  0.0436  0.0398
  216loPI   C3A 3449   1.781   6.737   9.268 -0.0731 -0.0187 -0.0071
  216loPI   C4A 3450   1.820   6.870   8.882  0.2942 -0.0859 -0.1602
  216loPI   C5A 3451   1.895   6.799   8.417  0.0107 -0.2176  0.0639
  216loPI   C6A 3452   2.014   7.015   7.981  0.0668 -0.1145  0.2821
  216loPI   C1B 3453   1.465   7.081   9.889  0.0577  0.0497  0.0401
  216loPI   C2B 3454   1.553   7.104   9.482 -0.2427 -0.1625 -0.1583
  216loPI   C3B 3455   1.459   7.280   9.066  0.2082 -0.0515  0.1463
  216loPI   C4B 3456   1.593   7.221   8.717  0.1126  0.0842 -0.2708
  217loPI    C1 3457  15.449  16.080  10.732  0.1032 -0.0032  0.0808
  217loPI    C2 3458  15.501  15.783  10.995  0.2467 -0.0818 -0.0350
  217loPI    C3 3459  15.540  16.164  11.113  0.1710 -0.1121  0.0887
  217loPI   PO4 3460  15.618  16.044  10.461  0.0923 -0.0567 -0.0413
  217loPI   GL1 3461  15.987  15.861  10.204  0.1685  0.1448 -0.0904
  217loPI   GL2 3462  16.143  15.621   9.951  0.1118  0.0199  0.0850
  217loPI   C1A 3463  15.685  15.824   9.851  0.4142  0.1184  0.1128
  217loPI   C2A 3464  15.587  15.733   9.473  0.3694  0.0078 -0.1406
  217loPI   C3A 3465  15.561  15.803   9.079  0.0324 -0.0068  0.2946
  217loPI   C4A 3466  15.549  15.795   8.612 -0.0293 -0.2972 -0.0442
  217loPI   C5A 3467  15.365  15.829   8.229  0.0378  0.0417  0.0390
  217loPI   C6A 3468  15.188  15.786   7.787  0.3275 -0.0793 -0.1945
  217loPI   C1B 3469  16.109  15.591   9.527 -0.3489 -0.0638  0.1004
  217loPI   C2B 3470  16.022  15.494   9.039  0.3762 -0.2109 -0.2008
  217loPI   C3B 3471  15.990  15.494   8.586  0.1701  0.0434 -0.1025
  217loPI   C4B 3472  15.840  15.611   8.242 -0.2207  0.0538 -0.1041
  218loPI    C1 3473  14.975   6.909  10.171 -0.0152  0.4752 -0.0297
  218loPI    C2 3474  15.134   6.978   9.811  0.1653  0.1983 -0.0062
  218loPI    C3 3475  15.369   6.964  10.134  0.0697 -0.0253  0.0557
  218loPI   PO4 3476  14.697   7.106  10.098  0.3328  0.1740 -0.1544
  218loPI   GL1 3477  14.684   7.191   9.758  0.2164 -0.2670  0.1293
  218loPI   GL2 3478  14.555   7.028   9.478 -0.0518 -0.1408 -0.3650
  218loPI   C1A 3479  15.026   7.362   9.414  0.1965  0.1224 -0.1747
  218loPI   C2A 3480  15.085   7.366   8.998 -0.1464 -0.0120 -0.2472
  218loPI   C3A 3481  15.025   7.432   8.504  0.0989  0.3003  0.0710
  218loPI   C4A 3482  15.070   7.313   8.131 -0.0122  0.0238  0.0678
  218loPI   C5A 3483  14.971   7.319   7.711  0.0068 -0.2320  0.3059
  218loPI   C6A 3484  15.051   7.280   7.246  0.2688  0.2362 -0.0026
  218loPI   C1B 3485  14.588   7.097   9.027  0.0072 -0.2754  0.0473
  218loPI   C2B 3486  14.668   7.068   8.610 -0.1743 -0.1094  0.1119
  218loPI   C3B 3487  14.657   6.980   8.238  0.1145  0.0414  0.0186
  218loPI   C4B 3488  14.587   7.057   7.855 -0.0605 -0.1977 -0.0929
  219loPI    C1 3489   5.352   7.820  11.290  0.0145 -0.0902 -0.1127
  219loPI    C2 3490   4.965   7.736  11.347 -0.0168  0.1215 -0.0034
  219loPI    C3 3491   5.185   7.880  11.648  0.1454  0.0112 -0.0678
  219loPI   PO4 3492   5.381   7.874  11.000  0.3301 -0.1276 -0.0135
  219loPI   GL1 3493   5.675   7.907  10.699 -0.1172  0.2194  0.1556
  219loPI   GL2 3494   5.833   7.672  10.526  0.3398  0.2699 -0.0201
  219loPI   C1A 3495   5.440   7.894  10.298  0.0166  0.0400 -0.0196
  219loPI   C2A 3496   5.213   8.079  10.024 -0.0877 -0.1303 -0.1420
  219loPI   C3A 3497   5.166   8.338   9.630  0.0181 -0.0086  0.1314
  219loPI   C4A 3498   5.328   8.386   9.218 -0.0389  0.3946 -0.1221
  219loPI   C5A 3499   5.085   8.549   8.891  0.1865 -0.0768  0.0992
  219loPI   C6A 3500   4.837   8.409   8.553  0.3651 -0.0511 -0.0362
  219loPI   C1B 3501   5.868   7.656  10.045 -0.1708 -0.2259  0.2370
  219loPI   C2B 3502   5.907   7.656   9.624  0.0139  0.1319  0.0848
  219loPI   C3B 3503   5.855   7.669   9.255 -0.1279 -0.2458  0.2412
  219loPI   C4B 3504   5.878   7.840   8.826 -0.1549 -0.0663  0.1836
  220loPI    C1 3505  15.840  12.284  10.697  0.0420 -0.1222  0.0302
  220loPI    C2 3506  15.533  12.379  10.459 -0.0335 -0.0027  0.1731
  220loPI    C3 3507  15.516  12.464  10.849  0.1418 -0.0834  0.1991
  220loPI   PO4 3508  16.076  12.373  10.546 -0.0781  0.2649  0.0153
  220loPI   GL1 3509  16.271  12.739  10.413 -0.1752 -0.1584 -0.1878
  220loPI   GL2 3510  16.610  12.571  10.375 -0.1753 -0.0091 -0.1568
  220loPI   C1A 3511  16.324  12.940  10.047 -0.2397  0.1002  0.0789
  220loPI   C2A 3512  16.415  13.091   9.609  0.0287  0.2775  0.3106
  220loPI   C3A 3513  16.423  13.005   9.204 -0.0033  0.1294  0.0923
  220loPI   C4A 3514  16.395  12.899   8.750 -0.0857  0.0560  0.4153
  220loPI   C5A 3515  16.483  12.720   8.337  0.2480  0.0086  0.1672
  220loPI   C6A 3516  16.551  12.353   8.051 -0.2247 -0.1742 -0.0021
  220loPI   C1B 3517  16.622  12.450   9.979 -0.0164 -0.1718  0.1878
  220loPI   C2B 3518  16.587  12.578   9.530  0.0960  0.2814  0.0730
  220loPI   C3B 3519  16.525  12.575   9.118 -0.0742 -0.2537 -0.4758
  220loPI   C4B 3520  16.536  12.386   8.710 -0.0630 -0.0368  0.0956
  221loPI    C1 3521  18.314  14.764  10.356  0.4062 -0.0117  0.0303
  221loPI    C2 3522  18.107  15.100  10.289  0.0211 -0.2896 -0.2190
  221loPI    C3 3523  18.040  14.887  10.621  0.3617 -0.0572  0.0057
  221loPI   PO4 3524  18.554  14.871  10.410  0.0188 -0.3499 -0.2499
  221loPI   GL1 3525  18.839  14.856  10.128  0.0160  0.0522  0.0282
  221loPI   GL2 3526  18.618  14.600   9.939  0.1200 -0.0544 -0.1769
  221loPI   C1A 3527  19.000  14.985   9.714  0.1447  0.2059 -0.3696
  221loPI   C2A 3528  19.002  14.866   9.277  0.3585  0.0353  0.0185
  221loPI   C3A 3529  18.852  14.905   8.848  0.2202  0.1644  0.0580
  221loPI   C4A 3530  18.805  14.972   8.332 -0.1877  0.3159  0.0239
  221loPI   C5A 3531  18.512  15.223   8.111 -0.0720 -0.0849 -0.0558
  221loPI   C6A 3532  18.550  15.626   7.855  0.5485  0.0016 -0.0795
  221loPI   C1B 3533  18.479  14.660   9.477  0.1018  0.1757 -0.0071
  221loPI   C2B 3534  18.535  14.606   9.035 -0.1934  0.2348  0.1913
  221loPI   C3B 3535  18.411  14.577   8.592  0.0694  0.0232  0.2415
  221loPI   C4B 3536  18.333  14.716   8.207  0.0028  0.1358 -0.0465
  222loPI    C1 3537  16.741   3.757  10.112  0.0065  0.3509 -0.2221
  222loPI    C2 3538  16.811   4.105  10.296  0.1153  0.1144  0.1962
  222loPI    C3 3539  16.494   3.885  10.399 -0.1359  0.2335 -0.2913
  222loPI   PO4 3540  16.950   3.739  10.024 -0.1479  0.0622  0.0707
  222loPI   GL1 3541  17.015   3.715   9.598 -0.0458 -0.0841 -0.0622
  222loPI   GL2 3542  16.590   3.729   9.626  0.1277  0.1421  0.1677
  222loPI   C1A 3543  17.282   3.552   9.262  0.3022 -0.0789 -0.0786
  222loPI   C2A 3544  17.280   3.278   8.845 -0.0610 -0.0305  0.2944
  222loPI   C3A 3545  17.022   3.281   8.580 -0.1960  0.1266  0.0574
  222loPI   C4A 3546  16.716   3.150   8.173  0.0546 -0.2802 -0.1573
  222loPI   C5A 3547  16.689   2.914   7.879  0.0595  0.0070  0.0326
  222loPI   C6A 3548  16.816   2.470   7.786 -0.0801 -0.5139  0.1428
  222loPI   C1B 3549  16.628   3.630   9.206 -0.0739 -0.1704 -0.0837
  222loPI   C2B 3550  16.964   3.823   8.908 -0.1463 -0.1237 -0.0511
  222loPI   C3B 3551  17.193   3.781   8.533 -0.0871 -0.1377  0.0429
  222loPI   C4B 3552  17.216   3.483   8.160  0.4288 -0.0665 -0.1043
  223loPI    C1 3553  17.320  12.309  10.878  0.1245  0.0291 -0.2279
  223loPI    C2 3554  17.000  12.237  10.649  0.0867 -0.1714 -0.1139
  223loPI    C3 3555  17.040  12.053  11.002  0.2527 -0.0303 -0.0573
  223loPI   PO4 3556  17.492  12.309  10.591 -0.1092  0.2199  0.1708
  223loPI   GL1 3557  17.741  12.664  10.438 -0.0644 -0.0135 -0.1726
  223loPI   GL2 3558  18.016  12.935  10.389 -0.3428  0.0960  0.0045
  223loPI   C1A 3559  17.521  12.605   9.977  0.0000  0.2278  0.1412
  223loPI   C2A 3560  17.440  12.714   9.557 -0.0274  0.1585  0.1060
  223loPI   C3A 3561  17.416  12.706   9.138 -0.0874  0.2853  0.2186
  223loPI   C4A 3562  17.350  12.510   8.747 -0.1968  0.0702 -0.1549
  223loPI   C5A 3563  17.312  12.654   8.328 -0.1003  0.3475 -0.3204
  223loPI   C6A 3564  17.502  12.855   8.035  0.2107 -0.3055  0.0497
  223loPI   C1B 3565  18.276  12.867   9.996  0.1498  0.1991  0.0998
  223loPI   C2B 3566  18.308  12.819   9.584  0.2057 -0.0988 -0.0621
  223loPI   C3B 3567  18.369  12.804   9.139 -0.0610 -0.0919  0.1881
  223loPI   C4B 3568  18.271  12.798   8.740 -0.0164 -0.2145  0.0010
  224loPI    C1 3569   8.762  11.090  10.798  0.0974 -0.2140  0.0129
  224loPI    C2 3570   8.649  10.827  11.078 -0.2105 -0.1177 -0.0165
  224loPI    C3 3571   8.582  11.218  11.131  0.3640 -0.0233  0.0868
  224loPI   PO4 3572   8.599  11.015  10.627 -0.0569 -0.1937 -0.2682
  224loPI   GL1 3573   8.445  10.809  10.313  0.0677 -0.2412  0.0476
  224loPI   GL2 3574   8.150  10.808  10.335 -0.2757  0.2084 -0.2240
  224loPI   C1A 3575   8.416  11.012  10.007 -0.1120 -0.0594 -0.1172
  224loPI   C2A 3576   8.392  11.075   9.600  0.0666  0.0306  0.2716
  224loPI   C3A 3577   8.483  11.084   9.166  0.2828  0.0439  0.0092
  224loPI   C4A 3578   8.497  11.018   8.789 -0.3182 -0.0785 -0.0758
  224loPI   C5A 3579   8.557  10.975   8.324  0.2297  0.2321  0.0077
  224loPI   C6A 3580   8.495  10.824   7.938  0.4405  0.2041 -0.0180
  224loPI   C1B 3581   8.050  10.733   9.816  0.1132 -0.0607  0.2452
  224loPI   C2B 3582   8.088  10.699   9.409  0.0271  0.0909 -0.0342
  224loPI   C3B 3583   8.145  10.739   8.956 -0.2621  0.0786 -0.0264
  224loPI   C4B 3584   8.140  10.829   8.500 -0.0097  0.3635 -0.0090
  225loPI    C1 3585  14.259   2.160  10.483 -0.0025  0.0471  0.1609
  225loPI    C2 3586  14.428   2.195  10.844  0.2900  0.1663  0.0160
  225loPI    C3 3587  14.130   2.440  10.739  0.0144 -0.0494  0.2760
  225loPI   PO4 3588  14.303   1.946  10.357  0.1104 -0.1073  0.0040
  225loPI   GL1 3589  14.127   1.861  10.024 -0.1162 -0.0759 -0.0693
  225loPI   GL2 3590  14.379   1.643   9.962 -0.1639  0.1012 -0.1560
  225loPI   C1A 3591  13.849   1.906   9.650 -0.0020 -0.0405  0.2557
  225loPI   C2A 3592  13.975   1.846   9.216  0.0168 -0.4146  0.2595
  225loPI   C3A 3593  14.202   1.808   8.773 -0.2144  0.1388  0.0086
  225loPI   C4A 3594  14.102   1.895   8.359  0.1645 -0.0797  0.4644
  225loPI   C5A 3595  13.821   2.029   8.017 -0.1439 -0.0015  0.1273
  225loPI   C6A 3596  13.616   1.922   7.623  0.0329 -0.1147 -0.0126
  225loPI   C1B 3597  14.447   1.359   9.606  0.1694  0.1217 -0.0292
  225loPI   C2B 3598  14.639   1.123   9.330  0.0972  0.4312 -0.0823
  225loPI   C3B 3599  14.755   1.173   8.940 -0.1586 -0.1747 -0.2453
  225loPI   C4B 3600  14.628   1.060   8.483 -0.1094  0.0730 -0.0280
  226loPI    C1 3601  15.228   8.734  10.193 -0.0431  0.0883 -0.1407
  226loPI    C2 3602  15.106   9.113  10.230 -0.0685  0.0688 -0.0218
  226loPI    C3 3603  14.908   8.819  10.417 -0.0032  0.0057 -0.0514
  226loPI   PO4 3604  15.480   8.748  10.141  0.0184  0.2458  0.3679
  226loPI   GL1 3605  15.666   9.058   9.823  0.0268 -0.1594  0.2272
  226loPI   GL2 3606  15.332   9.119   9.787 -0.1482  0.0561  0.4045
  226loPI   C1A 3607  15.592   8.994   9.332  0.1503 -0.2485 -0.1748
  226loPI   C2A 3608  15.617   9.023   8.864  0.0648  0.0318 -0.0506
  226loPI   C3A 3609  15.539   8.928   8.549 -0.0931  0.0266 -0.5277
  226loPI   C4A 3610  15.565   9.043   8.176 -0.3445  0.2429  0.0333
  226loPI   C5A 3611  15.714   9.046   7.824  0.3874  0.1733 -0.0303
  226loPI   C6A 3612  15.840   9.350   7.515 -0.1706 -0.0163 -0.0412
  226loPI   C1B 3613  15.109   9.175   9.517 -0.0438  0.0501  0.2193
  226loPI   C2B 3614  15.181   9.066   9.049  0.0636  0.0713  0.0747
  226loPI   C3B 3615  15.114   9.107   8.589  0.3361 -0.5250 -0.1271
  226loPI   C4B 3616  15.118   9.288   8.116 -0.0897  0.0470 -0.0684
  227loPI    C1 3617   2.581   9.651  10.943 -0.2378 -0.0115 -0.0435
  227loPI    C2 3618   2.203   9.626  11.073 -0.1436 -0.1512  0.2088
  227loPI    C3 3619   2.507   9.558  11.325  0.0532  0.0525  0.0305
  227loPI   PO4 3620   2.582   9.578  10.738  0.1421 -0.0436 -0.0578
  227loPI   GL1 3621   2.476   9.267  10.463  0.1481  0.2112  0.1023
  227loPI   GL2 3622   2.296   8.967  10.424  0.0975 -0.0164 -0.0587
  227loPI   C1A 3623   2.428   9.397  10.039  0.0085 -0.2231  0.3686
  227loPI   C2A 3624   2.449   9.554   9.605 -0.1880 -0.1494 -0.0845
  227loPI   C3A 3625   2.712   9.550   9.174  0.2885 -0.2310 -0.0622
  227loPI   C4A 3626   2.791   9.729   8.802 -0.4799  0.0047  0.3598
  227loPI   C5A 3627   2.815   9.890   8.407 -0.0877  0.0873 -0.2680
  227loPI   C6A 3628   2.731  10.018   8.026  0.3258 -0.2068  0.0749
  227loPI   C1B 3629   2.256   8.924   9.986 -0.0490 -0.1008 -0.0689
  227loPI   C2B 3630   2.339   9.081   9.572  0.1898 -0.1561  0.2113
  227loPI   C3B 3631   2.391   9.091   9.125  0.0086  0.2282 -0.3423
  227loPI   C4B 3632   2.510   9.175   8.754 -0.1895  0.0870 -0.0188
  228loPI    C1 3633  14.877   0.159  10.439  0.0866  0.0937  0.1003
  228loPI    C2 3634  15.143  -0.027  10.673  0.1062  0.0661  0.0564
  228loPI    C3 3635  14.781   0.066  10.816  0.0811 -0.0442  0.0651
  228loPI   PO4 3636  14.810  -0.102  10.245  0.1852 -0.0722 -0.2217
  228loPI   GL1 3637  14.772  -0.287   9.867  0.2182 -0.0928 -0.1054
  228loPI   GL2 3638  14.396  -0.242   9.965 -0.2531  0.0547 -0.0847
  228loPI   C1A 3639  14.680  -0.290   9.424 -0.0526  0.1157 -0.1075
  228loPI   C2A 3640  14.731  -0.359   8.934 -0.1439 -0.3236 -0.0421
  228loPI   C3A 3641  14.736  -0.390   8.463 -0.0134  0.0611  0.0193
  228loPI   C4A 3642  14.841  -0.649   8.074  0.1377 -0.1158  0.2440
  228loPI   C5A 3643  14.823  -1.064   7.779  0.0758  0.0651 -0.1114
  228loPI   C6A 3644  14.824  -1.379   7.425  0.0776 -0.0000  0.0431
  228loPI   C1B 3645  14.238  -0.058   9.644  0.1565  0.1420 -0.4062
  228loPI   C2B 3646  14.337  -0.117   9.148  0.0796  0.0304 -0.0471
  228loPI   C3B 3647  14.324  -0.081   8.711  0.0515 -0.1515 -0.1766
  228loPI   C4B 3648  14.193  -0.044   8.378  0.1611 -0.1609  0.1595
  229loPI    C1 3649   7.364   7.937  10.854 -0.0894 -0.0863 -0.0283
  229loPI    C2 3650   7.688   7.800  11.044 -0.1541 -0.1232  0.0561
  229loPI    C3 3651   7.324   7.735  11.197 -0.2091 -0.1815 -0.0976
  229loPI   PO4 3652   7.535   8.038  10.575 -0.0571 -0.2718  0.1612
  229loPI   GL1 3653   7.662   8.366  10.323  0.0139 -0.0451 -0.3579
  229loPI   GL2 3654   7.339   8.342  10.245 -0.2969  0.2318  0.0530
  229loPI   C1A 3655   8.022   8.370  10.054  0.3026 -0.2499 -0.2834
  229loPI   C2A 3656   8.089   8.309   9.706 -0.1969 -0.4254  0.1464
  229loPI   C3A 3657   8.165   8.397   9.200  0.1547 -0.0249 -0.1459
  229loPI   C4A 3658   8.020   8.352   8.789 -0.0270 -0.2130  0.0838
  229loPI   C5A 3659   7.998   8.274   8.295  0.0129  0.0671 -0.0222
  229loPI   C6A 3660   8.030   7.948   7.916 -0.0500  0.1269 -0.0658
  229loPI   C1B 3661   7.523   8.462   9.846  0.1158 -0.0795  0.0237
  229loPI   C2B 3662   7.650   8.456   9.528 -0.1219 -0.1414 -0.0245
  229loPI   C3B 3663   7.661   8.522   9.081  0.0945 -0.3602 -0.0427
  229loPI   C4B 3664   7.587   8.537   8.659 -0.1545 -0.0608 -0.2171
  230loPI    C1 3665  14.027   8.824  10.299  0.0716  0.1380 -0.1038
  230loPI    C2 3666  13.825   8.675  10.610 -0.1740  0.2097 -0.2259
  230loPI    C3 3667  14.218   8.745  10.641 -0.1628  0.0543  0.0098
  230loPI   PO4 3668  13.963   8.653  10.094 -0.4052 -0.1793  0.1799
  230loPI   GL1 3669  14.080   8.553   9.718  0.4093 -0.1637 -0.2320
  230loPI   GL2 3670  14.372   8.540   9.641 -0.2958  0.4946  0.2819
  230loPI   C1A 3671  13.840   8.747   9.309 -0.0366  0.3170  0.1389
  230loPI   C2A 3672  13.928   8.783   8.797 -0.2577  0.2298 -0.0365
  230loPI   C3A 3673  13.912   8.722   8.314  0.0255  0.1329  0.0492
  230loPI   C4A 3674  13.799   8.709   7.958  0.1388 -0.2982 -0.0778
  230loPI   C5A 3675  13.805   8.595   7.473  0.0423 -0.0251  0.0761
  230loPI   C6A 3676  13.860   8.478   7.067  0.0878 -0.1765  0.1845
  230loPI   C1B 3677  14.315   8.524   9.156  0.2353  0.2143 -0.2366
  230loPI   C2B 3678  14.365   8.563   8.654  0.1353  0.1669 -0.0650
  230loPI   C3B 3679  14.335   8.583   8.162 -0.1067 -0.1129  0.1300
  230loPI   C4B 3680  14.224   8.838   7.757  0.1920 -0.0373  0.1777
  231loPI    C1 3681  10.363  14.584  10.875  0.1264 -0.0130  0.0203
  231loPI    C2 3682  10.000  14.531  10.716  0.0734 -0.0290  0.1461
  231loPI    C3 3683  10.060  14.462  11.106  0.1717  0.1388  0.1616
  231loPI   PO4 3684  10.541  14.501  10.678  0.1088  0.2072  0.1617
  231loPI   GL1 3685  10.311  14.441  10.302  0.2037 -0.1013  0.1181
  231loPI   GL2 3686  10.290  14.713  10.295 -0.1891 -0.5037  0.0478
  231loPI   C1A 3687  10.360  14.474   9.780  0.1696  0.2157 -0.1791
  231loPI   C2A 3688  10.285  14.556   9.364 -0.2578  0.1266  0.1842
  231loPI   C3A 3689  10.247  14.577   8.997  0.1209  0.2641 -0.1213
  231loPI   C4A 3690  10.363  14.435   8.531 -0.1782 -0.1501 -0.2412
  231loPI   C5A 3691  10.375  14.213   8.181  0.1195 -0.0809  0.2220
  231loPI   C6A 3692  10.447  13.837   8.052  0.3737  0.1231  0.3530
  231loPI   C1B 3693  10.252  14.912   9.941 -0.1409  0.0172  0.0652
  231loPI   C2B 3694  10.257  15.028   9.493  0.2841  0.0210 -0.0224
  231loPI   C3B 3695  10.300  15.047   8.973  0.0201  0.0131 -0.4119
  231loPI   C4B 3696  10.256  15.010   8.524  0.1516  0.0291  0.3010
  232loPI    C1 3697  13.338  13.798  11.038 -0.1851  0.0330 -0.1648
  232loPI    C2 3698  13.306  13.399  11.044  0.1502  0.0044  0.0290
  232loPI    C3 3699  13.580  13.580  11.271 -0.0272  0.3507 -0.0264
  232loPI   PO4 3700  13.349  13.841  10.704  0.0461  0.0609 -0.0129
  232loPI   GL1 3701  13.278  13.724  10.250  0.0432  0.2824 -0.1066
  232loPI   GL2 3702  13.008  13.847  10.124  0.1787  0.1698 -0.1890
  232loPI   C1A 3703  13.598  13.588  10.019  0.0708 -0.0543  0.2693
  232loPI   C2A 3704  13.563  13.577   9.733 -0.2180 -0.1551 -0.0208
  232loPI   C3A 3705  13.547  13.608   9.347 -0.3301 -0.1867  0.0409
  232loPI   C4A 3706  13.551  13.690   8.918 -0.0136  0.2612  0.2145
  232loPI   C5A 3707  13.592  13.592   8.438  0.2813  0.0427  0.1142
  232loPI   C6A 3708  13.760  13.580   8.011  0.1144 -0.1964  0.0308
  232loPI   C1B 3709  13.106  13.812   9.781 -0.0529  0.2741 -0.2952
  232loPI   C2B 3710  13.129  13.813   9.362  0.1963 -0.1563 -0.3307
  232loPI   C3B 3711  13.058  13.755   8.934  0.2303  0.1875  0.0849
  232loPI   C4B 3712  13.189  13.829   8.610 -0.0849 -0.0294 -0.1593
  233loPI    C1 3713   8.475   3.077  10.634  0.0332  0.0672 -0.1381
  233loPI    C2 3714   8.576   3.298  10.316  0.0800  0.0276 -0.1507
  233loPI    C3 3715   8.485   3.476  10.662 -0.1292  0.0789 -0.2304
  233loPI   PO4 3716   8.255   2.905  10.494 -0.1534 -0.0200 -0.0065
  233loPI   GL1 3717   8.217   2.996  10.062  0.0130  0.2106 -0.1712
  233loPI   GL2 3718   8.089   2.668   9.970 -0.1815  0.0193  0.2104
  233loPI   C1A 3719   8.274   3.010   9.602 -0.0087 -0.0395 -0.0793
  233loPI   C2A 3720   8.370   3.039   9.165  0.0069  0.3262 -0.0181
  233loPI   C3A 3721   8.274   2.984   8.727 -0.0805  0.3822 -0.1438
  233loPI   C4A 3722   8.386   2.977   8.256  0.0216  0.0481  0.1115
  233loPI   C5A 3723   8.760   3.070   8.071  0.3200 -0.1788  0.2944
  233loPI   C6A 3724   9.161   3.082   7.816 -0.2580  0.2148  0.0316
  233loPI   C1B 3725   8.144   2.482   9.474  0.0057 -0.0582 -0.0650
  233loPI   C2B 3726   8.100   2.479   9.005 -0.1000 -0.3389 -0.0508
  233loPI   C3B 3727   8.097   2.475   8.628 -0.0682 -0.1608  0.0426
  233loPI   C4B 3728   8.024   2.647   8.226  0.0919 -0.0719 -0.1999
  234loPI    C1 3729   1.109  12.708  10.775  0.3255  0.0063  0.2961
  234loPI    C2 3730   1.186  12.503  11.109 -0.0543 -0.0667  0.3433
  234loPI    C3 3731   0.817  12.504  10.956  0.0796  0.0985  0.0115
  234loPI   PO4 3732   1.336  12.711  10.648  0.1881  0.2728 -0.0467
  234loPI   GL1 3733   1.433  12.464  10.321 -0.0553  0.2756  0.0254
  234loPI   GL2 3734   1.165  12.524  10.239 -0.0551 -0.3748 -0.2159
  234loPI   C1A 3735   1.693  12.560   9.980 -0.2340 -0.1810  0.0697
  234loPI   C2A 3736   1.851  12.658   9.659 -0.3743  0.0501  0.0378
  234loPI   C3A 3737   1.770  12.645   9.209 -0.1196 -0.0912 -0.1055
  234loPI   C4A 3738   1.889  12.532   8.750  0.2050  0.2028  0.1353
  234loPI   C5A 3739   1.891  12.266   8.405  0.0820 -0.1653 -0.2372
  234loPI   C6A 3740   1.531  12.416   8.258  0.2108 -0.2970  0.1263
  234loPI   C1B 3741   1.243  12.561   9.809 -0.1443 -0.0380 -0.2569
  234loPI   C2B 3742   1.308  12.628   9.338 -0.0073  0.2270 -0.1823
  234loPI   C3B 3743   1.413  12.744   8.879  0.0566  0.3698 -0.0059
  234loPI   C4B 3744   1.591  12.858   8.484  0.2279 -0.0500 -0.2644
  235loPI    C1 3745  10.011   4.501  10.167  0.0152 -0.0121 -0.1418
  235loPI    C2 3746  10.261   4.685  10.419  0.0158  0.0405 -0.1808
  235loPI    C3 3747  10.404   4.430  10.146  0.0037 -0.1070 -0.0508
  235loPI   PO4 3748   9.929   4.793  10.044  0.0361  0.2915  0.1425
  235loPI   GL1 3749   9.581   5.011   9.998  0.0471  0.0292 -0.1505
  235loPI   GL2 3750   9.559   5.350   9.886  0.2126  0.0200  0.1799
  235loPI   C1A 3751   9.585   5.005   9.556 -0.1767  0.1717  0.1050
  235loPI   C2A 3752   9.724   4.975   9.152 -0.2074 -0.0730  0.0836
  235loPI   C3A 3753   9.698   4.940   8.774  0.3842  0.0005  0.0887
  235loPI   C4A 3754   9.587   4.968   8.321  0.0073 -0.1153  0.3838
  235loPI   C5A 3755   9.813   4.882   7.980  0.4262 -0.2357 -0.0342
  235loPI   C6A 3756   9.987   4.502   7.784  0.0310 -0.1309 -0.1104
  235loPI   C1B 3757   9.576   5.511   9.469  0.0051 -0.0131 -0.1000
  235loPI   C2B 3758   9.511   5.540   9.107  0.1210  0.0984  0.1262
  235loPI   C3B 3759   9.548   5.538   8.660 -0.1072  0.1609  0.0837
  235loPI   C4B 3760   9.704   5.508   8.322  0.0155 -0.2049  0.0613
  236loPI    C1 3761   6.496  13.500  10.779 -0.0530  0.1155  0.4367
  236loPI    C2 3762   6.124  13.406  10.666  0.0524 -0.0052  0.1842
  236loPI    C3 3763   6.222  13.401  11.053 -0.2337  0.1212  0.2607
  236loPI   PO4 3764   6.679  13.302  10.620  0.1303  0.0101 -0.3401
  236loPI   GL1 3765   6.970  13.075  10.312  0.0969  0.2238 -0.3375
  236loPI   GL2 3766   7.217  13.049  10.207 -0.1724 -0.0369 -0.0210
  236loPI   C1A 3767   6.753  13.065   9.877 -0.0796  0.1260  0.0530
  236loPI   C2A 3768   6.831  13.108   9.459 -0.0518 -0.0259  0.1045
  236loPI   C3A 3769   6.897  13.103   9.001  0.3777  0.2032 -0.1189
  236loPI   C4A 3770   6.878  13.178   8.640 -0.1142  0.2518 -0.1598
  236loPI   C5A 3771   6.724  12.949   8.261  0.1951 -0.1245  0.0616
  236loPI   C6A 3772   6.683  12.811   7.867 -0.0609 -0.0879 -0.0317
  236loPI   C1B 3773   7.219  13.079   9.773  0.1247  0.0415  0.0499
  236loPI   C2B 3774   7.320  12.884   9.456 -0.1217 -0.2838 -0.0914
  236loPI   C3B 3775   7.377  12.936   9.000 -0.0282 -0.1027  0.1925
  236loPI   C4B 3776   7.354  12.960   8.504  0.2503  0.0593  0.1082
  237loPI    C1 3777  11.533  15.361  11.235 -0.0556 -0.2293 -0.0231
  237loPI    C2 3778  11.827  15.174  11.431 -0.0390 -0.1567  0.0220
  237loPI    C3 3779  11.850  15.568  11.364 -0.2532 -0.0999  0.2661
  237loPI   PO4 3780  11.506  15.154  10.962  0.1485  0.0445  0.1759
  237loPI   GL1 3781  11.736  15.221  10.529 -0.2702  0.1792 -0.1070
  237loPI   GL2 3782  11.492  15.018  10.524 -0.1322 -0.1870  0.2045
  237loPI   C1A 3783  11.893  15.409  10.170  0.2612 -0.5659 -0.2078
  237loPI   C2A 3784  11.952  15.335   9.757  0.2376  0.1010 -0.1310
  237loPI   C3A 3785  12.057  15.222   9.317  0.0531  0.0799  0.0450
  237loPI   C4A 3786  11.982  15.280   8.937  0.1301  0.0541  0.0359
  237loPI   C5A 3787  12.057  15.114   8.572 -0.3770  0.0166 -0.0718
  237loPI   C6A 3788  12.174  14.610   8.409 -0.0256  0.0582 -0.0143
  237loPI   C1B 3789  11.551  15.048  10.027 -0.0341  0.0769 -0.2293
  237loPI   C2B 3790  11.660  14.944   9.613  0.0703 -0.0851 -0.0936
  237loPI   C3B 3791  11.593  14.976   9.093  0.2653 -0.1829  0.0659
  237loPI   C4B 3792  11.561  14.824   8.652  0.0657  0.1030 -0.3352
  238loPI    C1 3793   3.247   2.207  11.037  0.1080 -0.1555  0.1735
  238loPI    C2 3794   2.992   2.145  11.339 -0.1697 -0.0848 -0.0425
  238loPI    C3 3795   2.907   2.417  11.057  0.1611 -0.0383 -0.1011
  238loPI   PO4 3796   3.278   2.002  10.878  0.3069 -0.1694  0.0010
  238loPI   GL1 3797   3.378   1.761  10.460 -0.0952  0.1551 -0.0512
  238loPI   GL2 3798   3.674   1.967  10.437  0.1051 -0.0051  0.0614
  238loPI   C1A 3799   3.558   1.545  10.055  0.0232 -0.3729  0.0465
  238loPI   C2A 3800   3.576   1.591   9.643 -0.1108  0.0093  0.0086
  238loPI   C3A 3801   3.636   1.651   9.187  0.2935  0.2254  0.0899
  238loPI   C4A 3802   3.679   1.774   8.821 -0.0660  0.3729  0.1653
  238loPI   C5A 3803   3.667   1.685   8.442  0.1442  0.2096 -0.0257
  238loPI   C6A 3804   3.748   1.317   8.279  0.0850 -0.0659  0.0214
  238loPI   C1B 3805   3.670   2.020  10.015  0.0650 -0.3091  0.1689
  238loPI   C2B 3806   3.701   2.032   9.576  0.0880  0.0233  0.1694
  238loPI   C3B 3807   3.772   2.121   9.142 -0.0383 -0.1116  0.1502
  238loPI   C4B 3808   3.882   2.218   8.628  0.1747 -0.1448  0.1547
  239loPI    C1 3809   9.807  17.338  10.487 -0.1462  0.1001  0.0525
  239loPI    C2 3810   9.611  17.667  10.371  0.2286  0.2528 -0.1662
  239loPI    C3 3811  10.009  17.673  10.405  0.2347 -0.1641 -0.1139
  239loPI   PO4 3812   9.629  17.121  10.365  0.2922  0.2449  0.1488
  239loPI   GL1 3813   9.642  16.962   9.954  0.2398  0.0537  0.1695
  239loPI   GL2 3814   9.658  16.676   9.877  0.0184  0.0461  0.1262
  239loPI   C1A 3815   9.957  17.080   9.609  0.1960 -0.0725  0.0319
  239loPI   C2A 3816  10.055  17.292   9.266  0.1279  0.1679  0.2188
  239loPI   C3A 3817  10.027  17.054   8.832 -0.1735  0.0187 -0.1576
  239loPI   C4A 3818   9.928  17.116   8.344 -0.3404  0.1266 -0.0861
  239loPI   C5A 3819   9.555  17.335   8.085  0.2205 -0.0628 -0.0617
  239loPI   C6A 3820   9.307  17.625   7.901 -0.0595  0.3558  0.1401
  239loPI   C1B 3821   9.571  16.827   9.483  0.0751  0.1222  0.2942
  239loPI   C2B 3822   9.574  17.097   9.057 -0.0635 -0.0719 -0.2218
  239loPI   C3B 3823   9.521  16.896   8.770  0.0359 -0.2121  0.0338
  239loPI   C4B 3824   9.494  16.922   8.419  0.2322 -0.1742  0.1464
  240loPI    C1 3825   7.404   6.322  10.678  0.0024 -0.3286 -0.2695
  240loPI    C2 3826   7.290   6.576  10.391  0.1359 -0.0657 -0.0939
  240loPI    C3 3827   7.049   6.275  10.499 -0.1042  0.0932 -0.1789
  240loPI   PO4 3828   7.625   6.265  10.611  0.0518  0.1902 -0.1618
  240loPI   GL1 3829   7.697   6.043  10.243  0.0553  0.0035  0.1052
  240loPI   GL2 3830   7.367   6.175  10.107  0.1725 -0.2903 -0.0283
  240loPI   C1A 3831   7.965   6.009   9.917  0.1082  0.0527 -0.2905
  240loPI   C2A 3832   8.076   6.020   9.505 -0.1063 -0.1009  0.0448
  240loPI   C3A 3833   8.048   6.008   9.073  0.1817  0.2795 -0.1014
  240loPI   C4A 3834   8.183   6.247   8.788  0.0687 -0.3670  0.3543
  240loPI   C5A 3835   8.032   6.513   8.526  0.2473  0.0724  0.0695
  240loPI   C6A 3836   7.563   6.369   8.397 -0.2719 -0.1886 -0.0408
  240loPI   C1B 3837   7.186   6.324   9.658  0.0230  0.1874 -0.5186
  240loPI   C2B 3838   7.090   6.686   9.562 -0.0159  0.4491 -0.1328
  240loPI   C3B 3839   6.960   6.968   9.337  0.0335 -0.2018 -0.2060
  240loPI   C4B 3840   6.796   7.372   9.159 -0.1851 -0.1844  0.2450
  241loPI    C1 3841  14.521   9.089  10.781 -0.1587 -0.1042  0.1153
  241loPI    C2 3842  14.356   9.421  10.932  0.0157 -0.0061  0.0921
  241loPI    C3 3843  14.228   9.062  11.053 -0.1695  0.0688  0.1220
  241loPI   PO4 3844  14.490   9.131  10.548 -0.1238  0.1529  0.1698
  241loPI   GL1 3845  14.526   9.142  10.132  0.0412  0.0076  0.0406
  241loPI   GL2 3846  14.349   9.017   9.843  0.0836  0.0938 -0.0526
  241loPI   C1A 3847  14.632   9.352   9.645 -0.2485  0.0108  0.1417
  241loPI   C2A 3848  14.679   9.281   9.160 -0.0591  0.0329  0.0308
  241loPI   C3A 3849  14.686   9.359   8.688 -0.2049 -0.2363 -0.2548
  241loPI   C4A 3850  14.627   9.458   8.239 -0.0449  0.1565 -0.1782
  241loPI   C5A 3851  14.721   9.447   7.740  0.1649 -0.0848  0.1416
  241loPI   C6A 3852  14.816   9.320   7.282  0.0821 -0.0265  0.2157
  241loPI   C1B 3853  14.189   9.099   9.418  0.0331 -0.0776  0.0759
  241loPI   C2B 3854  14.280   9.034   9.059 -0.1025  0.2506 -0.0541
  241loPI   C3B 3855  14.293   9.049   8.614  0.1090 -0.2032  0.2243
  241loPI   C4B 3856  14.289   9.089   8.134  0.0725  0.0978 -0.1023
  242loPI    C1 3857   6.648   6.029  10.757 -0.0915  0.2186  0.1943
  242loPI    C2 3858   6.962   6.050  11.005 -0.0040  0.0188  0.1028
  242loPI    C3 3859   6.597   6.151  11.134  0.0183 -0.2109  0.3548
  242loPI   PO4 3860   6.737   5.831  10.554  0.0545 -0.0863 -0.3364
  242loPI   GL1 3861   6.897   5.801  10.206  0.0007  0.1029  0.1438
  242loPI   GL2 3862   6.754   5.590   9.961 -0.1038 -0.1124 -0.0490
  242loPI   C1A 3863   7.129   5.829   9.756 -0.1046  0.0152 -0.0010
  242loPI   C2A 3864   7.082   5.932   9.352 -0.1178  0.0948 -0.0988
  242loPI   C3A 3865   7.132   5.928   8.884 -0.0147  0.1383 -0.3065
  242loPI   C4A 3866   7.252   6.019   8.470 -0.3029 -0.2447 -0.2549
  242loPI   C5A 3867   7.524   5.835   8.138 -0.0433 -0.1937 -0.2852
  242loPI   C6A 3868   7.853   5.804   7.836  0.1016  0.0668 -0.0376
  242loPI   C1B 3869   6.811   5.467   9.532 -0.1622  0.0336  0.0289
  242loPI   C2B 3870   6.868   5.469   9.130  0.2244  0.1021  0.2059
  242loPI   C3B 3871   6.784   5.562   8.679 -0.0446 -0.1998  0.1430
  242loPI   C4B 3872   7.098   5.571   8.313  0.0417 -0.0923 -0.1617
  243loPI    C1 3873   7.774  12.938  11.057  0.1435 -0.1063 -0.0294
  243loPI    C2 3874   7.793  13.053  11.439  0.0417 -0.0843 -0.0308
  243loPI    C3 3875   7.631  12.700  11.344 -0.0148 -0.0503 -0.0612
  243loPI   PO4 3876   7.936  13.022  10.925  0.0695 -0.1943 -0.0650
  243loPI   GL1 3877   7.953  12.956  10.461  0.5447  0.0892  0.1332
  243loPI   GL2 3878   7.667  12.776  10.271  0.0166  0.1518 -0.0062
  243loPI   C1A 3879   8.138  13.066  10.065  0.1753  0.0609  0.1316
  243loPI   C2A 3880   8.214  13.049   9.702 -0.4722 -0.1088  0.0639
  243loPI   C3A 3881   8.205  13.049   9.304  0.3569 -0.0654 -0.0369
  243loPI   C4A 3882   8.349  13.084   8.924 -0.2424 -0.2023  0.0592
  243loPI   C5A 3883   8.296  13.128   8.523 -0.2210 -0.1029  0.0527
  243loPI   C6A 3884   8.646  13.007   8.239  0.4194  0.1773  0.1351
  243loPI   C1B 3885   7.749  12.769   9.832  0.0627 -0.3221  0.0729
  243loPI   C2B 3886   7.812  12.774   9.378  0.0576  0.1966 -0.2938
  243loPI   C3B 3887   7.859  12.795   8.917  0.1243 -0.2515  0.1366
  243loPI   C4B 3888   7.869  12.750   8.477  0.1840  0.1189 -0.1196
  244loPI    C1 3889  16.789   6.873  10.036 -0.1312  0.4197 -0.1886
  244loPI    C2 3890  16.450   6.818  10.240  0.0661 -0.0069  0.0366
  244loPI    C3 3891  16.706   7.104  10.352 -0.1646  0.2442 -0.0674
  244loPI   PO4 3892  16.730   6.920   9.769  0.1591 -0.1107 -0.0412
  244loPI   GL1 3893  16.615   7.233   9.488  0.3677  0.0248  0.0154
  244loPI   GL2 3894  16.416   7.194   9.350 -0.1496 -0.2005 -0.0097
  244loPI   C1A 3895  16.820   7.644   9.274 -0.3041  0.2956  0.1518
  244loPI   C2A 3896  16.937   7.678   8.897 -0.0042 -0.4491 -0.2711
  244loPI   C3A 3897  16.773   7.625   8.551  0.1018 -0.1020 -0.5133
  244loPI   C4A 3898  16.868   7.636   8.242  0.3427 -0.0600  0.1072
  244loPI   C5A 3899  16.715   7.688   7.804 -0.0460  0.0848  0.0203
  244loPI   C6A 3900  16.597   7.926   7.451 -0.0227 -0.1780 -0.1809
  244loPI   C1B 3901  16.518   7.359   8.971 -0.2706 -0.0882  0.2208
  244loPI   C2B 3902  16.392   7.309   8.495 -0.0906 -0.0008  0.1294
  244loPI   C3B 3903  16.459   7.223   8.031 -0.2885  0.2248 -0.2356
  244loPI   C4B 3904  16.775   7.236   7.594  0.1832  0.2057  0.1852
  245loPI    C1 3905  10.581   6.153  10.698 -0.1915 -0.0346  0.1234
  245loPI    C2 3906  10.527   6.546  10.753 -0.0054  0.0195 -0.0661
  245loPI    C3 3907  10.555   6.302  11.068 -0.0631  0.1660  0.0537
  245loPI   PO4 3908  10.546   6.161  10.467 -0.0087  0.0213 -0.1951
  245loPI   GL1 3909  10.531   6.049  10.103  0.2498 -0.0098 -0.4671
  245loPI   GL2 3910  10.276   6.323  10.072 -0.1064 -0.0040 -0.0733
  245loPI   C1A 3911  10.827   5.913   9.739  0.1888 -0.1363  0.0294
  245loPI   C2A 3912  10.725   5.948   9.344  0.0483  0.0899 -0.0114
  245loPI   C3A 3913  10.851   6.032   8.914  0.0314 -0.1564 -0.0433
  245loPI   C4A 3914  10.932   5.935   8.415  0.0171 -0.0287 -0.1624
  245loPI   C5A 3915  11.255   5.715   8.161 -0.0475  0.1710  0.4304
  245loPI   C6A 3916  11.218   5.682   7.680  0.2843  0.0270  0.1029
  245loPI   C1B 3917  10.264   6.129   9.691 -0.1328 -0.0382 -0.1466
  245loPI   C2B 3918  10.290   6.193   9.263  0.0052 -0.1183 -0.0952
  245loPI   C3B 3919  10.337   6.157   8.892 -0.0581  0.1659 -0.2802
  245loPI   C4B 3920  10.434   6.177   8.489  0.0008 -0.1075  0.1872
  246loPI    C1 3921  16.824  13.709  10.832  0.0066  0.0612  0.0674
  246loPI    C2 3922  16.536  13.516  11.031 -0.0262 -0.0007 -0.0395
  246loPI    C3 3923  16.815  13.720  11.232 -0.1429  0.0578  0.0649
  246loPI   PO4 3924  16.883  13.516  10.616  0.1231  0.2427  0.1659
  246loPI   GL1 3925  17.062  13.533  10.198  0.0822  0.0143  0.3422
  246loPI   GL2 3926  16.853  13.741  10.127 -0.1503  0.1659 -0.1396
  246loPI   C1A 3927  16.912  13.412   9.731 -0.0931  0.0127 -0.0801
  246loPI   C2A 3928  16.820  13.369   9.313 -0.2875  0.0680  0.0381
  246loPI   C3A 3929  16.829  13.245   8.930 -0.0862  0.3079 -0.1396
  246loPI   C4A 3930  16.543  13.361   8.564 -0.0444 -0.0829 -0.1493
  246loPI   C5A 3931  16.417  13.454   8.118 -0.1397  0.2022  0.2058
  246loPI   C6A 3932  16.552  13.847   7.970  0.0718  0.2585 -0.3257
  246loPI   C1B 3933  16.785  13.944   9.746  0.2219  0.2108 -0.4349
  246loPI   C2B 3934  16.789  13.861   9.375 -0.0306 -0.1442 -0.1229
  246loPI   C3B 3935  16.734  13.722   8.919 -0.1912 -0.2746  0.0298
  246loPI   C4B 3936  16.560  13.852   8.443  0.1784 -0.3059 -0.2759
  247loPI    C1 3937   3.259   3.670  10.626 -0.0719  0.0520 -0.1282
  247loPI    C2 3938   3.573   3.912  10.681  0.0868 -0.1721 -0.0281
  247loPI    C3 3939   3.207   4.028  10.796  0.1990 -0.0782  0.2414
  247loPI   PO4 3940   3.277   3.530  10.414  0.1481  0.0115  0.1547
  247loPI   GL1 3941   3.482   3.466  10.069  0.0651  0.0095 -0.0376
  247loPI   GL2 3942   3.640   3.720  10.142 -0.1472 -0.1904 -0.1710
  247loPI   C1A 3943   3.623   3.401   9.762 -0.0500  0.0449 -0.1863
  247loPI   C2A 3944   3.752   3.463   9.326  0.0579 -0.0564 -0.1405
  247loPI   C3A 3945   3.744   3.470   8.877  0.0164  0.0962  0.1816
  247loPI   C4A 3946   3.805   3.536   8.441 -0.0216 -0.0571 -0.0639
  247loPI   C5A 3947   3.661   3.749   8.121  0.0231 -0.0556 -0.0640
  247loPI   C6A 3948   3.375   3.922   7.859  0.1307  0.0339  0.2250
  247loPI   C1B 3949   3.486   3.900   9.687  0.2099 -0.2253  0.1367
  247loPI   C2B 3950   3.462   3.885   9.275  0.1547 -0.0474 -0.0844
  247loPI   C3B 3951   3.397   3.852   8.926 -0.2055 -0.0819  0.2362
  247loPI   C4B 3952   3.522   3.938   8.582  0.0219 -0.1604 -0.0175
  248loPI    C1 3953   7.318  16.732  10.807  0.1544  0.0492  0.0597
  248loPI    C2 3954   6.944  16.746  10.948  0.0647 -0.0156 -0.1675
  248loPI    C3 3955   7.197  16.466  11.081  0.0986  0.1569  0.1403
  248loPI   PO4 3956   7.326  16.680  10.531  0.1018  0.3739 -0.1265
  248loPI   GL1 3957   7.460  16.663  10.103  0.3530  0.1092 -0.3162
  248loPI   GL2 3958   7.697  16.511  10.042  0.0100 -0.2779  0.2222
  248loPI   C1A 3959   7.325  16.822   9.648 -0.0719 -0.2516  0.0466
  248loPI   C2A 3960   7.120  16.988   9.351 -0.1560 -0.1016  0.0479
  248loPI   C3A 3961   7.069  16.884   8.908 -0.0850  0.1781  0.0353
  248loPI   C4A 3962   7.022  16.841   8.396  0.1202 -0.1491  0.2865
  248loPI   C5A 3963   7.062  16.467   8.086 -0.2461 -0.3836  0.0502
  248loPI   C6A 3964   6.915  16.269   7.806 -0.1753  0.2526  0.1677
  248loPI   C1B 3965   7.919  16.603   9.638 -0.1144  0.1219 -0.1859
  248loPI   C2B 3966   7.997  16.715   9.254  0.2998 -0.3362 -0.1640
  248loPI   C3B 3967   7.993  16.769   8.909 -0.0583 -0.0012 -0.2519
  248loPI   C4B 3968   7.966  16.718   8.495  0.0593 -0.0620  0.0349
  249loPI    C1 3969   4.916   1.131  10.749 -0.0101 -0.0647  0.1485
  249loPI    C2 3970   4.962   0.777  10.570  0.0972  0.0749 -0.1064
  249loPI    C3 3971   4.981   0.804  10.969  0.0585 -0.2089 -0.0831
  249loPI   PO4 3972   5.108   1.266  10.736  0.0995  0.0292 -0.2854
  249loPI   GL1 3973   5.233   1.748  10.622 -0.0914  0.0646  0.1495
  249loPI   GL2 3974   5.291   1.535  10.340 -0.0802 -0.1528 -0.0505
  249loPI   C1A 3975   5.434   1.989  10.195 -0.1652 -0.3041  0.1574
  249loPI   C2A 3976   5.488   2.017   9.778  0.0301  0.0590 -0.3527
  249loPI   C3A 3977   5.614   2.000   9.386 -0.0412 -0.1294  0.0771
  249loPI   C4A 3978   5.635   2.009   8.941  0.0011 -0.2354 -0.0684
  249loPI   C5A 3979   5.641   2.046   8.513  0.1313 -0.0413 -0.1928
  249loPI   C6A 3980   5.699   2.287   8.210  0.0916 -0.2787  0.1940
  249loPI   C1B 3981   5.383   1.522   9.941  0.0091 -0.1163  0.1070
  249loPI   C2B 3982   5.407   1.557   9.523  0.0398  0.2270  0.1932
  249loPI   C3B 3983   5.456   1.537   9.069 -0.0235  0.2783 -0.2359
  249loPI   C4B 3984   5.451   1.571   8.613  0.0524 -0.2554  0.1338
  250loPI    C1 3985  15.470   9.277  10.594 -0.1356  0.0350 -0.0857
  250loPI    C2 3986  15.408   8.892  10.683  0.0523  0.0197 -0.0159
  250loPI    C3 3987  15.677   9.104  10.890 -0.1603  0.2315  0.0487
  250loPI   PO4 3988  15.533   9.347  10.286 -0.0421 -0.1783  0.0808
  250loPI   GL1 3989  15.631   9.582   9.876 -0.3372 -0.2093  0.1913
  250loPI   GL2 3990  15.917   9.799   9.864 -0.1645  0.2589 -0.0085
  250loPI   C1A 3991  15.628   9.459   9.454 -0.3586  0.2953  0.0328
  250loPI   C2A 3992  15.517   9.472   9.112  0.1533  0.0741  0.0647
  250loPI   C3A 3993  15.515   9.458   8.672  0.1228  0.1140 -0.3222
  250loPI   C4A 3994  15.534   9.572   8.276 -0.3324 -0.1842  0.0629
  250loPI   C5A 3995  15.496   9.540   7.852  0.2433  0.0858 -0.3308
  250loPI   C6A 3996  15.233   9.280   7.625 -0.4678  0.1890  0.1971
  250loPI   C1B 3997  16.019   9.853   9.464  0.0427 -0.0051 -0.0266
  250loPI   C2B 3998  15.852   9.776   9.005 -0.0865 -0.1384  0.0476
  250loPI   C3B 3999  15.818   9.873   8.728 -0.2038  0.2455  0.0011
  250loPI   C4B 4000  15.966   9.881   8.387  0.2032 -0.1136 -0.1364
  251loPI    C1 4001  11.308   0.173  10.737  0.0775 -0.1863  0.3229
  251loPI    C2 4002  11.149  -0.093  10.483  0.0243  0.1371  0.0097
  251loPI    C3 4003  11.169  -0.176  10.874 -0.4237 -0.1312 -0.0184
  251loPI   PO4 4004  11.372   0.336  10.603  0.0047  0.5303 -0.0247
  251loPI   GL1 4005  11.541   0.412  10.187 -0.2092 -0.1068 -0.0268
  251loPI   GL2 4006  11.546   0.162  10.147  0.2566  0.0544  0.0600
  251loPI   C1A 4007  11.546   0.514   9.701  0.1395 -0.0052  0.1400
  251loPI   C2A 4008  11.472   0.514   9.268  0.2923 -0.4494  0.2722
  251loPI   C3A 4009  11.401   0.561   8.894  0.2436  0.0665 -0.1963
  251loPI   C4A 4010  11.500   0.384   8.515 -0.2334  0.1682  0.1744
  251loPI   C5A 4011  11.452   0.246   8.072 -0.0232  0.3845 -0.2960
  251loPI   C6A 4012  11.278  -0.104   7.983 -0.1677  0.0928 -0.0243
  251loPI   C1B 4013  11.630  -0.075   9.806  0.1559  0.1371 -0.0949
  251loPI   C2B 4014  11.623  -0.035   9.328 -0.5553  0.1056 -0.5019
  251loPI   C3B 4015  11.569   0.018   8.951 -0.2456 -0.1795 -0.2282
  251loPI   C4B 4016  11.399  -0.069   8.494 -0.0025 -0.0514  0.2436
  252loPI    C1 4017  10.998  10.598  11.013  0.0542 -0.0037 -0.1546
  252loPI    C2 4018  10.727  10.523  11.297  0.0087  0.0943 -0.1716
  252loPI    C3 4019  11.114  10.455  11.367 -0.0322 -0.1721 -0.1933
  252loPI   PO4 4020  10.788  10.582  10.796  0.0983  0.3754  0.0249
  252loPI   GL1 4021  10.735  10.688  10.454 -0.1947  0.2588  0.3373
  252loPI   GL2 4022  10.750  10.942  10.377  0.0554 -0.0640 -0.3412
  252loPI   C1A 4023  10.847  10.345  10.126 -0.1192 -0.1232  0.1606
  252loPI   C2A 4024  10.909  10.382   9.629  0.0746 -0.0546  0.0710
  252loPI   C3A 4025  10.886  10.374   9.251 -0.1179  0.0753  0.4599
  252loPI   C4A 4026  10.868  10.511   8.762 -0.1577 -0.0837 -0.0306
  252loPI   C5A 4027  10.853  10.393   8.394 -0.2706  0.1689  0.0466
  252loPI   C6A 4028  10.645  10.185   8.122 -0.2031 -0.0860 -0.1127
  252loPI   C1B 4029  10.729  10.895   9.979  0.1309 -0.2175 -0.1899
  252loPI   C2B 4030  10.729  10.861   9.597  0.0959 -0.1817  0.3135
  252loPI   C3B 4031  10.769  10.889   9.169  0.0263  0.0225  0.0211
  252loPI   C4B 4032  10.770  10.960   8.718 -0.1217 -0.0990  0.1380
  253loPI    C1 4033  14.382  14.788  10.853  0.1730 -0.1503  0.0492
  253loPI    C2 4034  14.605  14.909  11.162  0.0392  0.1447  0.0338
  253loPI    C3 4035  14.429  14.550  11.170  0.3437 -0.0050  0.1344
  253loPI   PO4 4036  14.536  14.809  10.554 -0.0526 -0.0174 -0.2678
  253loPI   GL1 4037  14.471  14.873  10.172  0.2157  0.0001  0.0238
  253loPI   GL2 4038  14.364  15.124  10.181 -0.0992 -0.1080  0.0198
  253loPI   C1A 4039  14.311  14.785   9.721  0.1436 -0.0604  0.0992
  253loPI   C2A 4040  14.341  14.917   9.312  0.1603  0.2959 -0.1332
  253loPI   C3A 4041  14.312  14.860   8.765 -0.0247 -0.0857  0.0044
  253loPI   C4A 4042  14.159  14.811   8.297  0.2039 -0.1679 -0.0936
  253loPI   C5A 4043  13.938  15.097   8.046 -0.5268  0.2220 -0.1775
  253loPI   C6A 4044  14.109  15.353   7.791 -0.0371 -0.2630 -0.0206
  253loPI   C1B 4045  14.366  15.275   9.858 -0.2062  0.1026  0.0290
  253loPI   C2B 4046  14.393  15.381   9.422 -0.1365 -0.1367 -0.1434
  253loPI   C3B 4047  14.286  15.305   8.980  0.1023  0.1844  0.0018
  253loPI   C4B 4048  14.173  15.316   8.535 -0.1709  0.0364  0.1219
  254loPI    C1 4049  13.667   5.377  10.089 -0.0827  0.0373  0.1902
  254loPI    C2 4050  13.426   5.478  10.392  0.1195  0.0690  0.3426
  254loPI    C3 4051  13.741   5.240  10.458  0.1298  0.0260  0.1449
  254loPI   PO4 4052  13.560   5.457   9.880  0.0418  0.0691  0.0233
  254loPI   GL1 4053  13.595   5.678   9.521  0.1303  0.1654  0.0889
  254loPI   GL2 4054  13.341   5.587   9.484 -0.1820  0.1782  0.3272
  254loPI   C1A 4055  13.849   5.369   9.303 -0.0785 -0.1501  0.1436
  254loPI   C2A 4056  13.905   5.356   8.886 -0.2716 -0.0008  0.1166
  254loPI   C3A 4057  14.018   5.323   8.377  0.1629 -0.1007  0.3703
  254loPI   C4A 4058  14.403   5.192   8.299 -0.1266  0.0681  0.0872
  254loPI   C5A 4059  14.780   4.986   8.422  0.2653 -0.0328  0.4987
  254loPI   C6A 4060  15.174   4.823   8.615 -0.1644  0.0664 -0.1391
  254loPI   C1B 4061  13.422   5.508   9.030  0.0563 -0.3038 -0.2450
  254loPI   C2B 4062  13.492   5.503   8.657  0.3786 -0.1498 -0.2688
  254loPI   C3B 4063  13.523   5.576   8.259 -0.0493  0.2028  0.0954
  254loPI   C4B 4064  13.535   5.510   7.828 -0.2119 -0.2552 -0.1642
  255loPI    C1 4065  13.936   5.830   9.873  0.2995  0.1102  0.2381
  255loPI    C2 4066  14.161   5.608  10.119  0.1068  0.0158  0.3317
  255loPI    C3 4067  14.094   5.486   9.744  0.2992  0.0983  0.2690
  255loPI   PO4 4068  13.997   6.181   9.924 -0.0873 -0.0239 -0.1824
  255loPI   GL1 4069  13.962   6.453   9.567  0.0320 -0.2094 -0.2212
  255loPI   GL2 4070  14.265   6.581   9.437 -0.0541  0.0910 -0.0257
  255loPI   C1A 4071  13.875   6.308   9.093 -0.1249  0.0077 -0.0175
  255loPI   C2A 4072  13.857   6.381   8.558 -0.1969 -0.2200 -0.1559
  255loPI   C3A 4073  13.851   6.391   8.180 -0.0694  0.2711  0.0271
  255loPI   C4A 4074  13.800   6.302   7.709 -0.3289  0.2734 -0.0934
  255loPI   C5A 4075  13.802   6.210   7.369 -0.1615 -0.2465 -0.0626
  255loPI   C6A 4076  14.056   5.831   7.139  0.0125 -0.4038 -0.1217
  255loPI   C1B 4077  14.246   6.653   9.007  0.1088  0.2933  0.1978
  255loPI   C2B 4078  14.229   6.716   8.550  0.0503 -0.1101  0.0871
  255loPI   C3B 4079  14.297   6.637   8.127  0.0007 -0.2278 -0.1358
  255loPI   C4B 4080  14.412   6.666   7.656  0.2280 -0.1709 -0.0850
  256loPI    C1 4081   8.703  17.962  11.090 -0.0180  0.0708 -0.0017
  256loPI    C2 4082   9.044  17.823  11.249 -0.1117  0.0266  0.1638
  256loPI    C3 4083   8.712  17.601  11.263 -0.1902  0.1427  0.1609
  256loPI   PO4 4084   8.726  17.984  10.825  0.0561  0.2460  0.2482
  256loPI   GL1 4085   8.779  18.177  10.355 -0.3772  0.1930 -0.0857
  256loPI   GL2 4086   8.926  18.455  10.260 -0.2793 -0.3080 -0.2306
  256loPI   C1A 4087   8.599  18.253   9.871 -0.1115  0.0660  0.1348
  256loPI   C2A 4088   8.574  18.285   9.350  0.0064 -0.0246  0.0803
  256loPI   C3A 4089   8.599  18.161   8.960  0.0572 -0.0525 -0.0643
  256loPI   C4A 4090   8.585  18.089   8.416  0.1690 -0.1748 -0.0209
  256loPI   C5A 4091   8.508  17.723   8.166 -0.2714 -0.2924 -0.1683
  256loPI   C6A 4092   8.405  17.583   7.780  0.2255 -0.1593 -0.1176
  256loPI   C1B 4093   9.114  18.367   9.942  0.0325 -0.2521  0.2673
  256loPI   C2B 4094   9.058  18.340   9.489 -0.1381 -0.2280  0.0914
  256loPI   C3B 4095   9.046  18.394   9.055  0.2428  0.1065  0.0607
  256loPI   C4B 4096   9.040  18.324   8.588 -0.4427  0.1044  0.1404
  257loPI    C1 4097  10.416   2.190  10.566 -0.0373  0.5736 -0.0243
  257loPI    C2 4098  10.072   2.064  10.725 -0.0378  0.4247 -0.1403
  257loPI    C3 4099  10.383   2.148  10.962  0.2220 -0.5628 -0.0880
  257loPI   PO4 4100  10.492   2.016  10.394 -0.0520  0.3271  0.1008
  257loPI   GL1 4101  10.422   1.767  10.009  0.0039 -0.2619 -0.3057
  257loPI   GL2 4102  10.544   1.536   9.750  0.1333  0.2399 -0.2471
  257loPI   C1A 4103  10.344   1.928   9.600 -0.0192  0.2638  0.0447
  257loPI   C2A 4104  10.343   1.958   9.095 -0.0962 -0.2207 -0.0682
  257loPI   C3A 4105  10.338   1.962   8.623 -0.0927  0.0916  0.0710
  257loPI   C4A 4106  10.112   2.063   8.193  0.1284  0.3445  0.1401
  257loPI   C5A 4107  10.220   2.094   7.773  0.0998 -0.0843  0.0692
  257loPI   C6A 4108  10.444   2.353   7.563 -0.1396 -0.1790 -0.2103
  257loPI   C1B 4109  10.620   1.606   9.302 -0.1605  0.0826  0.1934
  257loPI   C2B 4110  10.589   1.609   8.850 -0.1044  0.1437  0.1427
  257loPI   C3B 4111  10.788   1.286   8.531  0.0789 -0.0687 -0.1709
  257loPI   C4B 4112  10.893   1.141   8.171 -0.1283  0.1459  0.1803
  258loPI    C1 4113   1.730   2.398  10.691  0.1041 -0.1338  0.1121
  258loPI    C2 4114   1.686   2.133  10.987  0.1505 -0.0348  0.2083
  258loPI    C3 4115   1.926   2.449  11.036 -0.2956  0.3035  0.2852
  258loPI   PO4 4116   1.727   2.295  10.482  0.2108 -0.0270  0.1640
  258loPI   GL1 4117   1.839   2.151  10.221 -0.1307  0.2425 -0.1031
  258loPI   GL2 4118   2.179   2.164  10.238 -0.0512 -0.2607 -0.2535
  258loPI   C1A 4119   1.798   2.191   9.767  0.2013  0.0644 -0.1632
  258loPI   C2A 4120   1.782   2.188   9.335  0.2602  0.1134  0.0981
  258loPI   C3A 4121   1.952   2.272   8.953 -0.0088 -0.2150 -0.1191
  258loPI   C4A 4122   1.959   2.287   8.451 -0.0854 -0.0148  0.0281
  258loPI   C5A 4123   2.122   2.357   8.085  0.1635 -0.0699  0.0246
  258loPI   C6A 4124   2.474   2.550   7.923 -0.3918 -0.0607 -0.1645
  258loPI   C1B 4125   2.325   2.210   9.792 -0.2875  0.1835 -0.2376
  258loPI   C2B 4126   2.371   2.226   9.307  0.2512 -0.1261  0.0431
  258loPI   C3B 4127   2.429   2.341   8.900 -0.0500  0.0841 -0.0771
  258loPI   C4B 4128   2.504   2.273   8.511 -0.0479  0.1289 -0.0654
  259loPI    C1 4129   3.987   9.892  10.760 -0.2969  0.0988  0.1079
  259loPI    C2 4130   3.996  10.211  11.001 -0.1561  0.3092 -0.1696
  259loPI    C3 4131   3.736   9.916  11.070 -0.0715  0.3319  0.2778
  259loPI   PO4 4132   3.999  10.139  10.476  0.2852  0.1818  0.2104
  259loPI   GL1 4133   3.732  10.135   9.999 -0.1866 -0.0432 -0.1805
  259loPI   GL2 4134   4.041  10.110   9.836  0.1207  0.0142 -0.0436
  259loPI   C1A 4135   3.663  10.171   9.596  0.1686  0.0448 -0.1630
  259loPI   C2A 4136   3.609  10.296   9.145  0.0199  0.0902 -0.0378
  259loPI   C3A 4137   3.673  10.498   8.753 -0.1799  0.4542  0.2570
  259loPI   C4A 4138   3.822  10.756   8.396 -0.0833 -0.1840 -0.0362
  259loPI   C5A 4139   3.902  10.955   8.037  0.1124 -0.1652  0.2214
  259loPI   C6A 4140   3.803  11.283   7.761 -0.0584  0.0313 -0.0401
  259loPI   C1B 4141   4.102  10.235   9.418 -0.2858  0.0480  0.0784
  259loPI   C2B 4142   4.150  10.279   8.938 -0.1419 -0.1420  0.3520
  259loPI   C3B 4143   4.056  10.314   8.459 -0.1877 -0.3907 -0.1443
  259loPI   C4B 4144   3.697  10.338   8.123 -0.2305  0.4000 -0.0747
  260loPI    C1 4145   2.114  17.719  10.801  0.0348  0.0359 -0.0155
  260loPI    C2 4146   1.900  17.423  10.636  0.2624 -0.2449  0.1832
  260loPI    C3 4147   2.296  17.382  10.684  0.2809  0.0516  0.3061
  260loPI   PO4 4148   1.944  17.955  10.646  0.0366 -0.2528 -0.0396
  260loPI   GL1 4149   1.771  17.899  10.188  0.1083  0.1266  0.2821
  260loPI   GL2 4150   1.920  18.270  10.049  0.0319  0.0072  0.0485
  260loPI   C1A 4151   1.864  17.821   9.722 -0.0498  0.1574  0.1902
  260loPI   C2A 4152   1.802  17.885   9.307 -0.1825 -0.2189  0.1823
  260loPI   C3A 4153   1.616  17.919   8.919 -0.1748 -0.0258  0.0107
  260loPI   C4A 4154   1.425  17.829   8.498  0.1206 -0.0246  0.1687
  260loPI   C5A 4155   1.204  17.974   8.129 -0.1271 -0.0812 -0.2224
  260loPI   C6A 4156   0.772  17.793   7.826  0.0009 -0.2716 -0.1560
  260loPI   C1B 4157   1.980  18.292   9.488 -0.3600  0.3610 -0.0651
  260loPI   C2B 4158   2.301  18.326   9.105 -0.0895  0.1991  0.0778
  260loPI   C3B 4159   2.568  18.453   8.780  0.0798 -0.0694 -0.4375
  260loPI   C4B 4160   2.576  18.542   8.378 -0.0684  0.1210  0.1745
  261loPI    C1 4161   7.935  18.240  10.773 -0.1863  0.0358 -0.2098
  261loPI    C2 4162   7.555  18.342  10.843 -0.1761 -0.0663  0.0034
  261loPI    C3 4163   7.725  18.047  11.054  0.0213 -0.0221 -0.0915
  261loPI   PO4 4164   7.938  18.277  10.465 -0.3986  0.0687  0.1175
  261loPI   GL1 4165   8.195  18.183  10.151 -0.0355  0.0987 -0.1982
  261loPI   GL2 4166   8.010  17.912  10.100  0.1869 -0.1734  0.2118
  261loPI   C1A 4167   8.118  18.193   9.717 -0.0202  0.0200 -0.0789
  261loPI   C2A 4168   8.014  18.155   9.294 -0.4770  0.1059 -0.2901
  261loPI   C3A 4169   8.036  18.192   8.886  0.1557 -0.0175 -0.1869
  261loPI   C4A 4170   8.150  18.106   8.618  0.2699 -0.2613 -0.0862
  261loPI   C5A 4171   8.161  18.135   8.177 -0.2587  0.0640 -0.1058
  261loPI   C6A 4172   8.415  18.131   7.772 -0.0499  0.0524 -0.0703
  261loPI   C1B 4173   7.871  17.709   9.722  0.0995 -0.0884  0.5542
  261loPI   C2B 4174   7.771  17.601   9.288  0.4108  0.0386 -0.0158
  261loPI   C3B 4175   7.858  17.669   8.807 -0.4164  0.1539  0.1777
  261loPI   C4B 4176   7.968  17.691   8.364 -0.3988 -0.0892  0.1174
  262loPI    C1 4177  13.131   9.717  10.379  0.0964  0.4232  0.2989
  262loPI    C2 4178  13.007   9.700  10.758 -0.2732 -0.1056  0.1649
  262loPI    C3 4179  13.231   9.405  10.607 -0.1424  0.0934 -0.0360
  262loPI   PO4 4180  13.153   9.869  10.336  0.2320  0.2403 -0.1789
  262loPI   GL1 4181  13.358   9.913   9.984 -0.0341 -0.0576  0.2862
  262loPI   GL2 4182  13.215  10.002   9.759  0.1892 -0.1238  0.0358
  262loPI   C1A 4183  13.281   9.596   9.569 -0.0752  0.2037 -0.1636
  262loPI   C2A 4184  12.874   9.592   9.415  0.0890 -0.0635  0.1641
  262loPI   C3A 4185  12.860   9.561   9.051  0.2002 -0.1066 -0.1376
  262loPI   C4A 4186  12.834   9.672   8.564 -0.0423 -0.5522  0.2384
  262loPI   C5A 4187  12.839   9.644   8.091 -0.1662 -0.1522  0.2910
  262loPI   C6A 4188  12.968   9.625   7.638  0.1709  0.0249  0.0028
  262loPI   C1B 4189  13.167  10.004   9.296  0.0517 -0.0965 -0.0419
  262loPI   C2B 4190  13.198   9.946   8.864 -0.0053 -0.1599 -0.0024
  262loPI   C3B 4191  13.195   9.920   8.363  0.0461  0.1448 -0.1142
  262loPI   C4B 4192  13.297   9.935   7.921  0.1320 -0.0841  0.0290
  263loPI    C1 4193  11.790   3.144   9.533  0.2446 -0.3200  0.0403
  263loPI    C2 4194  11.968   2.914   9.809  0.0418 -0.0568  0.3982
  263loPI    C3 4195  11.589   3.033   9.861  0.0278  0.0662  0.0436
  263loPI   PO4 4196  11.994   3.381   9.492  0.2393  0.0670  0.1391
  263loPI   GL1 4197  12.232   3.210   9.220  0.0300 -0.0939 -0.0862
  263loPI   GL2 4198  12.436   3.463   9.256 -0.2163  0.2760 -0.1781
  263loPI   C1A 4199  12.363   3.081   8.809 -0.2008  0.2358 -0.4066
  263loPI   C2A 4200  12.409   2.575   8.685  0.1326  0.3266 -0.0525
  263loPI   C3A 4201  12.273   2.263   8.383  0.1084 -0.0697  0.1947
  263loPI   C4A 4202  12.280   2.076   7.987  0.0373  0.0103  0.0327
  263loPI   C5A 4203  12.123   1.771   7.656 -0.0065 -0.0677  0.0989
  263loPI   C6A 4204  11.969   1.772   7.311 -0.1747  0.0676  0.0450
  263loPI   C1B 4205  12.823   3.318   9.047 -0.1384  0.0739  0.1266
  263loPI   C2B 4206  12.876   3.243   8.623 -0.1483 -0.1879  0.3228
  263loPI   C3B 4207  13.056   3.307   8.256  0.1736  0.1208  0.0319
  263loPI   C4B 4208  13.149   3.459   7.896 -0.1554  0.0610 -0.1121
  264loPI    C1 4209   0.527   4.564  10.767 -0.0225  0.1377  0.0692
  264loPI    C2 4210   0.641   4.377  11.102  0.0882  0.0293 -0.0279
  264loPI    C3 4211   0.870   4.665  10.946  0.1275 -0.0457 -0.1097
  264loPI   PO4 4212   0.404   4.367  10.639 -0.2112  0.1079  0.1650
  264loPI   GL1 4213   0.438   4.358  10.231 -0.1381 -0.1249  0.0500
  264loPI   GL2 4214   0.523   4.456  10.000  0.1989 -0.1632 -0.0385
  264loPI   C1A 4215   0.369   4.047   9.786 -0.1842  0.0342  0.2295
  264loPI   C2A 4216   0.514   3.947   9.293  0.2502  0.2102 -0.1914
  264loPI   C3A 4217   0.558   3.885   8.874  0.0668  0.5674  0.0735
  264loPI   C4A 4218   0.429   3.911   8.520  0.3240 -0.1302  0.0601
  264loPI   C5A 4219   0.507   3.926   8.133  0.3628 -0.0719 -0.1668
  264loPI   C6A 4220   0.702   4.308   7.880  0.0173 -0.2873  0.1435
  264loPI   C1B 4221   0.643   4.375   9.546  0.2341  0.3180  0.0464
  264loPI   C2B 4222   0.734   4.385   9.170 -0.1920  0.0371  0.0671
  264loPI   C3B 4223   0.791   4.450   8.805 -0.3192 -0.4731 -0.1599
  264loPI   C4B 4224   0.715   4.446   8.345 -0.0978  0.0017  0.2608
  265loPI    C1 4225  11.290   3.376   9.985  0.0694 -0.1901  0.0810
  265loPI    C2 4226  11.390   3.577  10.317 -0.2162 -0.0745  0.1005
  265loPI    C3 4227  11.418   3.178  10.308  0.2534 -0.0474  0.0974
  265loPI   PO4 4228  11.411   3.489   9.715 -0.2053 -0.1763  0.0662
  265loPI   GL1 4229  11.338   3.340   9.293  0.2379 -0.0635 -0.1232
  265loPI   GL2 4230  11.576   3.487   9.155  0.1236  0.2738  0.0629
  265loPI   C1A 4231  11.553   3.059   8.880  0.1188 -0.0994 -0.1597
  265loPI   C2A 4232  11.497   2.836   8.462  0.0955 -0.2167  0.1035
  265loPI   C3A 4233  11.753   2.745   8.098 -0.1026  0.0548 -0.0007
  265loPI   C4A 4234  11.773   2.846   7.719  0.1038 -0.2147  0.0381
  265loPI   C5A 4235  11.716   2.971   7.240 -0.0553 -0.0883 -0.1070
  265loPI   C6A 4236  11.316   2.958   7.080 -0.0079 -0.0890 -0.1099
  265loPI   C1B 4237  11.570   3.708   8.725 -0.1691 -0.1138  0.1336
  265loPI   C2B 4238  11.708   3.773   8.317  0.0366  0.2227  0.0057
  265loPI   C3B 4239  11.767   3.619   7.897 -0.3661  0.1335 -0.2344
  265loPI   C4B 4240  11.684   3.348   7.569  0.2002  0.0119  0.0943
  266loPI    C1 4241   8.344  16.679  10.619 -0.0870  0.0138  0.0385
  266loPI    C2 4242   8.267  17.071  10.628  0.0223  0.0365  0.0027
  266loPI    C3 4243   8.125  16.833  10.916 -0.0470  0.1014  0.0228
  266loPI   PO4 4244   8.287  16.607  10.339  0.2361 -0.1038  0.1063
  266loPI   GL1 4245   8.303  16.794   9.978 -0.0919  0.5813 -0.6236
  266loPI   GL2 4246   8.277  17.078  10.121  0.1871 -0.1172  0.0569
  266loPI   C1A 4247   8.428  16.888   9.487  0.2268  0.1351  0.1629
  266loPI   C2A 4248   8.475  16.896   9.042 -0.0493  0.2580 -0.1353
  266loPI   C3A 4249   8.449  16.905   8.613 -0.0259  0.2116 -0.2865
  266loPI   C4A 4250   8.388  17.184   8.162 -0.1116 -0.0378 -0.1012
  266loPI   C5A 4251   8.343  17.095   7.709  0.1421  0.1235 -0.2021
  266loPI   C6A 4252   8.558  16.831   7.418 -0.4098 -0.0283 -0.0894
  266loPI   C1B 4253   8.203  17.246   9.784 -0.0417  0.2315  0.0168
  266loPI   C2B 4254   8.123  17.293   9.255  0.0554 -0.2822  0.1874
  266loPI   C3B 4255   8.229  17.299   8.829 -0.0780  0.3200  0.0206
  266loPI   C4B 4256   7.950  17.201   8.424  0.2682  0.4108  0.2055
  267loPI    C1 4257   7.696   7.337  10.611 -0.0550 -0.0922  0.1734
  267loPI    C2 4258   7.633   7.335  11.006  0.0559 -0.0743  0.1914
  267loPI    C3 4259   7.984   7.212  10.859  0.0550  0.0245  0.1056
  267loPI   PO4 4260   7.687   7.594  10.535 -0.0987  0.0649  0.4217
  267loPI   GL1 4261   7.823   7.890  10.212 -0.3718 -0.0533 -0.1688
  267loPI   GL2 4262   7.799   7.467  10.103 -0.0526 -0.1145  0.3902
  267loPI   C1A 4263   7.742   7.994   9.742  0.0534  0.1773  0.1132
  267loPI   C2A 4264   7.659   7.989   9.277 -0.1610  0.3331  0.0132
  267loPI   C3A 4265   7.598   7.991   8.784 -0.0456 -0.4149 -0.2301
  267loPI   C4A 4266   7.659   7.811   8.325  0.1696  0.2102  0.0366
  267loPI   C5A 4267   7.782   7.517   7.993 -0.0709 -0.1977 -0.0545
  267loPI   C6A 4268   7.830   7.306   7.664 -0.0018  0.0589 -0.0419
  267loPI   C1B 4269   7.851   7.455   9.708  0.0105 -0.2551 -0.0821
  267loPI   C2B 4270   7.745   7.509   9.309  0.0909 -0.0931  0.2575
  267loPI   C3B 4271   7.711   7.393   8.880 -0.3084  0.2097 -0.1067
  267loPI   C4B 4272   7.523   7.387   8.514  0.1802  0.4792  0.1484
  268loPI    C1 4273  15.627   8.440  10.789 -0.0184 -0.2209 -0.0781
  268loPI    C2 4274  15.857   8.571  11.090 -0.1378 -0.0107 -0.0761
  268loPI    C3 4275  15.555   8.320  11.163  0.0028 -0.1770 -0.0598
  268loPI   PO4 4276  15.787   8.579  10.567 -0.0824  0.0919 -0.1719
  268loPI   GL1 4277  15.899   8.479  10.100  0.0816  0.1033 -0.2515
  268loPI   GL2 4278  16.071   8.684   9.961  0.0177  0.4935 -0.2008
  268loPI   C1A 4279  15.822   8.372   9.712  0.2742 -0.2532 -0.1307
  268loPI   C2A 4280  15.771   8.419   9.228 -0.0002  0.1411  0.0888
  268loPI   C3A 4281  15.733   8.465   8.820  0.0551  0.1994  0.1052
  268loPI   C4A 4282  15.718   8.487   8.332  0.0933  0.0471  0.1304
  268loPI   C5A 4283  15.703   8.582   7.868 -0.2018 -0.0248 -0.1147
  268loPI   C6A 4284  16.099   8.697   7.667 -0.1380  0.0167 -0.2022
  268loPI   C1B 4285  16.074   8.878   9.458 -0.1333  0.0587 -0.0767
  268loPI   C2B 4286  16.086   8.761   9.039  0.1100  0.1332 -0.1511
  268loPI   C3B 4287  16.072   8.774   8.602 -0.1956  0.0446  0.0143
  268loPI   C4B 4288  16.052   8.833   8.207 -0.2901  0.0639 -0.1227
  269loPI    C1 4289  14.169  11.539  10.260  0.1162  0.0703  0.1272
  269loPI    C2 4290  14.492  11.427  10.468  0.1198  0.1582  0.1694
  269loPI    C3 4291  14.187  11.606  10.654  0.0137  0.0064  0.1433
  269loPI   PO4 4292  14.250  11.619  10.045 -0.0772  0.2138 -0.0792
  269loPI   GL1 4293  14.368  11.758   9.720  0.0684 -0.0813  0.1702
  269loPI   GL2 4294  14.328  11.506   9.569 -0.0486 -0.0815 -0.0733
  269loPI   C1A 4295  14.268  12.009   9.361  0.2270  0.1547 -0.1110
  269loPI   C2A 4296  14.316  12.024   8.996  0.0718  0.0362  0.1265
  269loPI   C3A 4297  14.288  11.936   8.646 -0.3786  0.0037  0.1899
  269loPI   C4A 4298  14.357  11.926   8.256 -0.1031  0.0182  0.0027
  269loPI   C5A 4299  14.153  12.035   7.788 -0.1242  0.1081 -0.1546
  269loPI   C6A 4300  13.768  12.296   7.601  0.3516 -0.3088  0.2031
  269loPI   C1B 4301  14.349  11.373   9.154 -0.2064 -0.0818 -0.0114
  269loPI   C2B 4302  14.363  11.441   8.697  0.0485 -0.0853  0.1174
  269loPI   C3B 4303  14.416  11.431   8.254  0.2477  0.0819 -0.1715
  269loPI   C4B 4304  14.281  11.497   7.884 -0.1253 -0.1672 -0.3093
  270loPI    C1 4305   3.469  15.545  10.391 -0.1762  0.1918 -0.0425
  270loPI    C2 4306   3.576  15.904  10.530  0.0529  0.1141 -0.0133
  270loPI    C3 4307   3.565  15.590  10.777 -0.0164  0.0738 -0.0674
  270loPI   PO4 4308   3.262  15.667  10.201 -0.0519  0.1682 -0.1291
  270loPI   GL1 4309   3.107  15.969   9.909  0.0363  0.1361  0.2795
  270loPI   GL2 4310   2.916  15.675   9.816  0.1124 -0.2558 -0.0990
  270loPI   C1A 4311   3.288  15.979   9.488 -0.2849  0.0715  0.4391
  270loPI   C2A 4312   3.119  16.011   9.082  0.1351  0.0251  0.2055
  270loPI   C3A 4313   3.131  16.400   8.856  0.1853  0.0442  0.2232
  270loPI   C4A 4314   3.253  16.594   8.536  0.4560 -0.0546 -0.1129
  270loPI   C5A 4315   3.355  17.026   8.189  0.1983  0.0435  0.1727
  270loPI   C6A 4316   3.656  17.351   7.916  0.0456  0.0758  0.0269
  270loPI   C1B 4317   2.868  15.294   9.661 -0.0848 -0.0580  0.2125
  270loPI   C2B 4318   2.923  15.027   9.246  0.0654 -0.1256  0.0920
  270loPI   C3B 4319   3.161  15.044   8.860 -0.0824  0.2497 -0.0028
  270loPI   C4B 4320   3.363  14.791   8.596 -0.0726  0.2473  0.3372
  271loPI    C1 4321  12.568   8.785  10.381  0.0371 -0.1122  0.0794
  271loPI    C2 4322  12.212   8.682  10.532 -0.0770  0.0665 -0.0635
  271loPI    C3 4323  12.513   8.782  10.777 -0.2220  0.2301  0.0506
  271loPI   PO4 4324  12.500   8.775  10.158  0.2972 -0.1294  0.2344
  271loPI   GL1 4325  12.446   9.077   9.950 -0.0538 -0.1803  0.0694
  271loPI   GL2 4326  12.532   9.347   9.865 -0.0380 -0.1252  0.1793
  271loPI   C1A 4327  12.113   8.992   9.627 -0.0945  0.1346  0.0658
  271loPI   C2A 4328  12.063   9.139   9.181 -0.0667  0.1902  0.0541
  271loPI   C3A 4329  12.023   8.980   8.754  0.0529  0.1278  0.1061
  271loPI   C4A 4330  12.110   9.035   8.395  0.0693  0.1460  0.1366
  271loPI   C5A 4331  11.991   8.955   7.953  0.2090  0.1776  0.4378
  271loPI   C6A 4332  11.707   8.972   7.623 -0.2942  0.1461  0.0271
  271loPI   C1B 4333  12.450   9.378   9.431 -0.2276  0.1821  0.1129
  271loPI   C2B 4334  12.433   9.344   8.924  0.2276  0.1013  0.1532
  271loPI   C3B 4335  12.465   9.286   8.610  0.0996 -0.0341  0.0762
  271loPI   C4B 4336  12.461   9.193   8.132 -0.1619 -0.1022 -0.0976
  272loPI    C1 4337   1.779  10.004  10.717 -0.1164 -0.3974  0.0271
  272loPI    C2 4338   1.944  10.036  11.080 -0.1165 -0.1610  0.0076
  272loPI    C3 4339   1.619  10.252  10.987 -0.1047 -0.2051 -0.1398
  272loPI   PO4 4340   1.927   9.746  10.676  0.3675 -0.3524  0.2591
  272loPI   GL1 4341   2.340   9.846  10.373 -0.0247 -0.0448 -0.1988
  272loPI   GL2 4342   2.090   9.833  10.196  0.2233 -0.0635  0.1004
  272loPI   C1A 4343   2.621   9.871   9.957  0.2511 -0.0382  0.3510
  272loPI   C2A 4344   2.702  10.065   9.563 -0.3606  0.0070 -0.0550
  272loPI   C3A 4345   2.734  10.180   9.148  0.2484 -0.0307 -0.1135
  272loPI   C4A 4346   2.695  10.304   8.724 -0.0956 -0.3159  0.1086
  272loPI   C5A 4347   2.770  10.438   8.389  0.0978 -0.0048  0.0627
  272loPI   C6A 4348   2.880  10.700   8.019  0.0432  0.4061 -0.0910
  272loPI   C1B 4349   2.137   9.930   9.753  0.2735  0.0354  0.0485
  272loPI   C2B 4350   2.352   9.933   9.259  0.4672  0.6060 -0.3246
  272loPI   C3B 4351   2.228  10.121   8.822  0.2604  0.0461  0.1134
  272loPI   C4B 4352   2.193  10.463   8.677  0.1080  0.0814 -0.0681
  273loPI    C1 4353  10.247   7.072  10.815  0.1661 -0.1031 -0.0481
  273loPI    C2 4354  10.402   6.869  11.123  0.0108  0.0326  0.1212
  273loPI    C3 4355  10.047   7.050  11.161  0.1356  0.3159 -0.0348
  273loPI   PO4 4356  10.386   6.949  10.520 -0.0978  0.4255  0.3221
  273loPI   GL1 4357  10.272   6.822  10.051  0.0428 -0.1771 -0.2468
  273loPI   GL2 4358  10.258   7.133  10.025 -0.3186  0.2771 -0.0505
  273loPI   C1A 4359  10.171   6.684   9.645  0.0598  0.1538 -0.1754
  273loPI   C2A 4360  10.215   6.751   9.121 -0.1049 -0.0448  0.3516
  273loPI   C3A 4361  10.297   6.801   8.668  0.0653 -0.4378 -0.0248
  273loPI   C4A 4362  10.397   6.668   8.239  0.1963  0.1540 -0.0757
  273loPI   C5A 4363  10.447   6.230   7.974  0.0731 -0.0526  0.2571
  273loPI   C6A 4364  10.787   6.024   7.842 -0.1184  0.0530 -0.3821
  273loPI   C1B 4365  10.170   7.185   9.657  0.0992 -0.1282  0.0400
  273loPI   C2B 4366  10.225   7.252   9.163  0.0616  0.0817  0.1747
  273loPI   C3B 4367  10.190   7.348   8.766  0.0059  0.0429  0.0978
  273loPI   C4B 4368   9.970   7.351   8.393 -0.0123  0.1459 -0.2390
  274loPI    C1 4369  15.996  10.098  10.789 -0.1938 -0.2618 -0.0626
  274loPI    C2 4370  16.370  10.034  10.914 -0.0971 -0.0512 -0.2380
  274loPI    C3 4371  16.064   9.862  11.105  0.0757 -0.0800  0.0187
  274loPI   PO4 4372  15.983  10.265  10.482 -0.2613 -0.0767  0.2666
  274loPI   GL1 4373  16.210  10.245  10.148  0.1716 -0.1252  0.2565
  274loPI   GL2 4374  16.392  10.518  10.148  0.3195 -0.1967 -0.0671
  274loPI   C1A 4375  16.415  10.123   9.812 -0.0577  0.2198 -0.0577
  274loPI   C2A 4376  16.369  10.174   9.347 -0.0243  0.0227 -0.0430
  274loPI   C3A 4377  16.304  10.122   8.913  0.1248 -0.1337  0.1189
  274loPI   C4A 4378  16.300  10.130   8.541 -0.2040  0.0977  0.1538
  274loPI   C5A 4379  16.631   9.959   8.243 -0.2176  0.3028 -0.0675
  274loPI   C6A 4380  17.029   9.848   8.112  0.2872 -0.1985 -0.1210
  274loPI   C1B 4381  16.341  10.626   9.728 -0.0510 -0.2360  0.3889
  274loPI   C2B 4382  16.177  10.774   9.477  0.1540 -0.0534 -0.1228
  274loPI   C3B 4383  16.239  10.685   9.112 -0.0817 -0.0070  0.1056
  274loPI   C4B 4384  16.257  10.622   8.656  0.3189 -0.0933 -0.2104
  275loPI    C1 4385   6.958  11.195  10.955 -0.3384  0.0163  0.0842
  275loPI    C2 4386   6.689  11.249  11.245 -0.0471  0.0651  0.3510
  275loPI    C3 4387   7.044  11.433  11.265  0.1069 -0.2027  0.1382
  275loPI   PO4 4388   6.812  11.257  10.753 -0.0761 -0.1298 -0.1752
  275loPI   GL1 4389   6.577  11.276  10.358  0.1889 -0.1961 -0.0959
  275loPI   GL2 4390   6.697  11.020  10.323 -0.1867  0.2059 -0.0186
  275loPI   C1A 4391   6.517  11.276   9.895  0.0779 -0.2374 -0.2170
  275loPI   C2A 4392   6.519  11.233   9.559  0.0397  0.0161 -0.0623
  275loPI   C3A 4393   6.644  11.225   9.189  0.0085 -0.4654  0.1746
  275loPI   C4A 4394   6.703  11.298   8.629  0.1633 -0.0291 -0.2541
  275loPI   C5A 4395   6.676  11.009   8.310  0.0493  0.1521 -0.1003
  275loPI   C6A 4396   6.599  10.613   8.125 -0.2796 -0.0620 -0.0772
  275loPI   C1B 4397   6.944  11.064   9.950 -0.2693 -0.1048  0.1052
  275loPI   C2B 4398   7.082  11.037   9.589  0.3997  0.1906 -0.0833
  275loPI   C3B 4399   7.236  11.070   9.096  0.1053 -0.1015 -0.1686
  275loPI   C4B 4400   7.133  11.050   8.635 -0.1568  0.1755 -0.0506
  276loPI    C1 4401   8.187   1.990  10.730 -0.1009  0.0824  0.0752
  276loPI    C2 4402   7.866   2.149  10.907 -0.1749 -0.0330  0.0453
  276loPI    C3 4403   8.103   1.898  11.110  0.0369  0.2436  0.1462
  276loPI   PO4 4404   8.061   1.901  10.468  0.0272  0.1452 -0.1052
  276loPI   GL1 4405   8.085   1.755  10.166  0.2248  0.0140  0.1116
  276loPI   GL2 4406   8.298   1.732   9.939 -0.0338  0.0935  0.2643
  276loPI   C1A 4407   7.730   1.666   9.936  0.2768  0.0997 -0.4072
  276loPI   C2A 4408   7.714   1.606   9.480  0.2266  0.0994 -0.0702
  276loPI   C3A 4409   7.838   1.561   9.061  0.1125 -0.0088 -0.1009
  276loPI   C4A 4410   7.771   1.587   8.761 -0.0572 -0.0762 -0.1017
  276loPI   C5A 4411   7.797   1.553   8.250  0.2265 -0.3506 -0.0513
  276loPI   C6A 4412   7.665   1.490   7.923 -0.1643 -0.0426 -0.0816
  276loPI   C1B 4413   8.284   1.714   9.593 -0.4055  0.4749  0.0846
  276loPI   C2B 4414   8.292   1.813   9.240  0.1397  0.0836  0.1521
  276loPI   C3B 4415   8.309   1.631   8.872 -0.0224 -0.1465 -0.0619
  276loPI   C4B 4416   8.225   1.667   8.461  0.0943  0.0303  0.0500
  277loPI    C1 4417  12.520  17.860  10.863 -0.1565  0.0878 -0.0314
  277loPI    C2 4418  12.486  18.258  10.846  0.0381  0.1078  0.0299
  277loPI    C3 4419  12.342  18.058  11.161 -0.3818  0.0914 -0.1653
  277loPI   PO4 4420  12.375  17.795  10.661 -0.0831  0.0324 -0.1592
  277loPI   GL1 4421  12.142  17.941  10.268  0.2048  0.2065 -0.1424
  277loPI   GL2 4422  12.284  17.570  10.140 -0.0512 -0.0247  0.0218
  277loPI   C1A 4423  12.095  18.100   9.868  0.1662  0.5689  0.0372
  277loPI   C2A 4424  12.101  18.134   9.398 -0.3239 -0.1971 -0.2015
  277loPI   C3A 4425  12.032  18.169   8.984 -0.0396  0.1414 -0.1092
  277loPI   C4A 4426  11.888  18.218   8.508 -0.2320  0.0083  0.2361
  277loPI   C5A 4427  11.797  18.171   8.156  0.1087  0.0486  0.0630
  277loPI   C6A 4428  11.999  17.813   7.866  0.0693  0.0322  0.0505
  277loPI   C1B 4429  12.230  17.615   9.697  0.1238  0.2704  0.0506
  277loPI   C2B 4430  12.187  17.588   9.278  0.3049  0.1730  0.1650
  277loPI   C3B 4431  12.123  17.661   8.851  0.0723  0.2424  0.3582
  277loPI   C4B 4432  11.995  17.760   8.385 -0.0485  0.3547  0.1720
  278loPI    C1 4433  11.723  10.029  10.826  0.1448 -0.3447 -0.0252
  278loPI    C2 4434  12.105  10.142  10.784  0.1054 -0.0980  0.2525
  278loPI    C3 4435  11.913  10.209  11.129 -0.2200 -0.1292  0.0810
  278loPI   PO4 4436  11.608  10.148  10.611 -0.2354 -0.6007 -0.1126
  278loPI   GL1 4437  11.410  10.087  10.295 -0.1235 -0.2458  0.1965
  278loPI   GL2 4438  11.554   9.878  10.198 -0.4081  0.1217  0.2743
  278loPI   C1A 4439  11.280  10.172   9.924 -0.1875  0.0976  0.0426
  278loPI   C2A 4440  11.352  10.183   9.477 -0.0334 -0.0777  0.0410
  278loPI   C3A 4441  11.341  10.271   9.026  0.0813 -0.0407 -0.0482
  278loPI   C4A 4442  11.490  10.256   8.591  0.0957 -0.1293  0.5370
  278loPI   C5A 4443  11.633  10.204   8.164  0.0881 -0.0300  0.0728
  278loPI   C6A 4444  11.546  10.129   7.736 -0.0831  0.0214 -0.1911
  278loPI   C1B 4445  11.802   9.988   9.812  0.0844  0.1381 -0.1015
  278loPI   C2B 4446  11.804  10.041   9.394  0.1347 -0.2250  0.1835
  278loPI   C3B 4447  11.840  10.075   8.995 -0.1816 -0.0202 -0.2698
  278loPI   C4B 4448  11.917  10.047   8.559 -0.3416 -0.1310  0.2591
  279loPI    C1 4449   5.684  12.941  10.996 -0.1289 -0.0719 -0.1734
  279loPI    C2 4450   5.654  13.138  10.649 -0.1028  0.1943 -0.0267
  279loPI    C3 4451   5.744  13.336  10.985 -0.2566 -0.0404  0.1563
  279loPI   PO4 4452   5.652  12.618  10.841  0.2875  0.2394  0.0408
  279loPI   GL1 4453   5.707  12.691  10.414  0.0405  0.0085 -0.0476
  279loPI   GL2 4454   6.001  12.481  10.444 -0.2414  0.0843 -0.1396
  279loPI   C1A 4455   5.691  13.001  10.194  0.2494  0.0816  0.3710
  279loPI   C2A 4456   5.601  12.921   9.774  0.2491 -0.0631  0.0078
  279loPI   C3A 4457   5.626  12.639   9.431 -0.0814 -0.0275 -0.2584
  279loPI   C4A 4458   5.566  12.563   9.056  0.0370  0.0141  0.1234
  279loPI   C5A 4459   5.728  12.795   8.674 -0.0409 -0.0762 -0.1460
  279loPI   C6A 4460   6.124  12.771   8.404 -0.2578 -0.1836 -0.1275
  279loPI   C1B 4461   5.799  12.478   9.964 -0.0331 -0.0498  0.0901
  279loPI   C2B 4462   6.016  12.436   9.618 -0.1647 -0.1450 -0.1964
  279loPI   C3B 4463   6.028  12.462   9.175  0.0127 -0.0658  0.0206
  279loPI   C4B 4464   6.130  12.483   8.760 -0.1499  0.0431 -0.3904
  280loPI    C1 4465  17.290  15.683  10.267  0.0336  0.0693  0.0259
  280loPI    C2 4466  16.967  15.634  10.497 -0.0920  0.1441 -0.1328
  280loPI    C3 4467  17.330  15.652  10.664 -0.1712  0.0875  0.0488
  280loPI   PO4 4468  17.274  15.882  10.124  0.2525  0.1292  0.0544
  280loPI   GL1 4469  17.254  15.969   9.771  0.1236  0.1176  0.2788
  280loPI   GL2 4470  17.013  15.790   9.584 -0.0226  0.1448  0.0283
  280loPI   C1A 4471  17.412  15.919   9.350  0.1200  0.3499  0.2550
  280loPI   C2A 4472  17.334  16.025   8.876 -0.1636  0.1209  0.2207
  280loPI   C3A 4473  17.329  15.953   8.443 -0.2285 -0.1566  0.1157
  280loPI   C4A 4474  17.511  15.799   8.126  0.0855  0.1989 -0.0273
  280loPI   C5A 4475  17.386  15.547   7.752  0.0319 -0.1859  0.2077
  280loPI   C6A 4476  17.066  15.250   7.670 -0.0643  0.0887 -0.0723
  280loPI   C1B 4477  16.929  15.654   9.223  0.1695 -0.1959  0.4009
  280loPI   C2B 4478  16.837  15.649   8.730  0.2308 -0.1261 -0.0232
  280loPI   C3B 4479  16.905  15.763   8.407 -0.1681  0.1009  0.2066
  280loPI   C4B 4480  17.067  15.973   7.999  0.0624 -0.0137 -0.0690
  281loPI    C1 4481   2.827   0.711  10.659  0.1233 -0.0157  0.0585
  281loPI    C2 4482   2.929   0.789  11.037  0.1225  0.2756  0.0016
  281loPI    C3 4483   2.794   0.426  10.937  0.2144  0.1673  0.2599
  281loPI   PO4 4484   3.053   0.774  10.539  0.1776 -0.3335  0.1563
  281loPI   GL1 4485   3.075   0.826  10.158  0.1197  0.0284 -0.1081
  281loPI   GL2 4486   2.970   0.539  10.002  0.0659  0.0297  0.0661
  281loPI   C1A 4487   2.815   1.027   9.810  0.3422  0.0090  0.2605
  281loPI   C2A 4488   2.891   1.080   9.379  0.0169  0.1399  0.0055
  281loPI   C3A 4489   2.884   1.053   8.943 -0.0411  0.0079  0.1602
  281loPI   C4A 4490   2.993   1.189   8.531 -0.3301 -0.0567 -0.2224
  281loPI   C5A 4491   3.317   1.023   8.300  0.1553  0.1257 -0.1640
  281loPI   C6A 4492   3.704   0.841   8.097  0.2056  0.1359  0.2438
  281loPI   C1B 4493   3.226   0.555   9.731  0.3644  0.0497 -0.1989
  281loPI   C2B 4494   3.188   0.610   9.263  0.0633 -0.1995  0.0516
  281loPI   C3B 4495   3.191   0.645   8.779 -0.1510 -0.1822 -0.0125
  281loPI   C4B 4496   3.419   0.504   8.383  0.1070 -0.1587 -0.1342
  282loPI    C1 4497   1.750   3.178  10.695  0.0011 -0.0487 -0.1213
  282loPI    C2 4498   1.953   3.002  10.992 -0.3267  0.2266  0.2772
  282loPI    C3 4499   1.589   2.870  10.892 -0.2588  0.1988  0.0604
  282loPI   PO4 4500   1.885   3.228  10.441  0.1865 -0.0333  0.1882
  282loPI   GL1 4501   1.976   2.966  10.036 -0.2990 -0.0919 -0.0136
  282loPI   GL2 4502   1.822   2.698  10.013 -0.1245 -0.0045 -0.0749
  282loPI   C1A 4503   2.162   3.094   9.714 -0.0324 -0.0227  0.5014
  282loPI   C2A 4504   2.511   3.198   9.511  0.0589  0.0598  0.0261
  282loPI   C3A 4505   2.723   3.279   9.093  0.0861  0.1709  0.1917
  282loPI   C4A 4506   2.818   3.283   8.666 -0.1011  0.0895 -0.0890
  282loPI   C5A 4507   2.672   3.325   8.256  0.2553 -0.2843  0.0314
  282loPI   C6A 4508   2.392   3.715   8.028 -0.0553 -0.0677  0.0422
  282loPI   C1B 4509   1.944   2.654   9.626 -0.0504  0.2516 -0.1214
  282loPI   C2B 4510   2.058   2.648   9.237  0.0020 -0.1961 -0.0190
  282loPI   C3B 4511   2.106   2.696   8.787  0.0701 -0.3673 -0.2296
  282loPI   C4B 4512   2.233   2.741   8.374  0.0452 -0.1504 -0.1819
  283loPI    C1 4513   0.823  14.264  11.123  0.0162 -0.0793 -0.0284
  283loPI    C2 4514   0.609  14.524  11.339  0.0010 -0.0072 -0.1294
  283loPI    C3 4515   0.541  14.131  11.374 -0.1413  0.0149 -0.1539
  283loPI   PO4 4516   0.862  14.315  10.814 -0.2691  0.0323  0.2262
  283loPI   GL1 4517   0.928  14.237  10.333  0.0144  0.2643 -0.1986
  283loPI   GL2 4518   1.151  14.063  10.361 -0.3671 -0.0573  0.1026
  283loPI   C1A 4519   0.755  14.508   9.930 -0.0379  0.1739 -0.0902
  283loPI   C2A 4520   0.680  14.441   9.535 -0.1589  0.0960  0.3349
  283loPI   C3A 4521   0.682  14.359   9.094  0.0958 -0.1458 -0.3947
  283loPI   C4A 4522   0.626  14.360   8.603  0.0560 -0.0226 -0.0449
  283loPI   C5A 4523   0.437  14.420   8.329 -0.2072  0.0253  0.1426
  283loPI   C6A 4524   0.564  14.234   7.950 -0.1048  0.2121  0.0479
  283loPI   C1B 4525   1.300  13.848  10.022 -0.0296  0.3756  0.0914
  283loPI   C2B 4526   1.312  13.867   9.574 -0.1565  0.1601 -0.3022
  283loPI   C3B 4527   1.180  13.833   9.177  0.3729  0.1469 -0.1679
  283loPI   C4B 4528   1.218  13.720   8.791 -0.2853 -0.1257 -0.0137
  284loPI    C1 4529   9.882   6.823  10.513 -0.3589 -0.2132 -0.2593
  284loPI    C2 4530  10.149   6.531  10.453  0.1360  0.1526  0.0779
  284loPI    C3 4531  10.009   6.601  10.821  0.1979  0.4825  0.0418
  284loPI   PO4 4532   9.892   6.975  10.315  0.0408 -0.0457 -0.0918
  284loPI   GL1 4533   9.711   7.209   9.982  0.0471  0.2266 -0.2357
  284loPI   GL2 4534   9.728   6.911   9.731 -0.1387  0.0437  0.1491
  284loPI   C1A 4535   9.656   7.387   9.563 -0.0764 -0.0113 -0.0023
  284loPI   C2A 4536   9.784   7.473   9.171  0.1229 -0.1460  0.1973
  284loPI   C3A 4537   9.671   7.492   8.734  0.0690  0.3766  0.0964
  284loPI   C4A 4538   9.479   7.464   8.343  0.0443 -0.0866  0.0580
  284loPI   C5A 4539   9.491   7.570   7.957  0.0950  0.2382  0.2389
  284loPI   C6A 4540   9.650   7.406   7.575 -0.3517  0.1710 -0.0545
  284loPI   C1B 4541   9.834   6.986   9.367  0.1761 -0.0433 -0.2543
  284loPI   C2B 4542   9.799   6.950   8.892  0.1402 -0.0547 -0.1434
  284loPI   C3B 4543   9.848   6.897   8.499  0.0269  0.1006  0.1979
  284loPI   C4B 4544   9.703   7.115   8.044 -0.1555  0.0552  0.1349
  285loPI    C1 4545   2.731   6.041  10.858  0.0908  0.2681 -0.0625
  285loPI    C2 4546   2.742   5.690  11.049 -0.1778  0.0806 -0.3820
  285loPI    C3 4547   3.036   5.955  11.102 -0.0375 -0.1375 -0.0378
  285loPI   PO4 4548   2.479   6.132  10.876 -0.2042 -0.0778 -0.0663
  285loPI   GL1 4549   2.329   6.372  10.492  0.2659  0.0307  0.2478
  285loPI   GL2 4550   2.061   6.537  10.354 -0.0415  0.1412  0.1732
  285loPI   C1A 4551   2.518   6.449  10.118 -0.4649 -0.0640 -0.1668
  285loPI   C2A 4552   2.614   6.393   9.718 -0.2609  0.0543  0.0182
  285loPI   C3A 4553   2.575   6.478   9.263  0.1467  0.1539 -0.0325
  285loPI   C4A 4554   2.665   6.439   8.824 -0.0941 -0.1031 -0.2138
  285loPI   C5A 4555   2.745   6.717   8.494 -0.1709  0.0103 -0.1514
  285loPI   C6A 4556   2.870   7.091   8.390  0.1443 -0.1884  0.1540
  285loPI   C1B 4557   2.060   6.352   9.877 -0.0622  0.1693  0.1614
  285loPI   C2B 4558   2.080   6.336   9.402  0.2162 -0.0962 -0.1984
  285loPI   C3B 4559   2.124   6.462   8.999  0.3195  0.1654  0.1334
  285loPI   C4B 4560   2.261   6.494   8.507 -0.2236  0.1572 -0.2872
  286loPI    C1 4561   5.477  16.925  10.324 -0.1074  0.3388 -0.2209
  286loPI    C2 4562   5.572  16.990  10.708 -0.1355  0.1974 -0.1893
  286loPI    C3 4563   5.189  16.994  10.593 -0.1468 -0.0270 -0.1639
  286loPI   PO4 4564   5.691  16.987  10.224 -0.1271 -0.0696  0.0619
  286loPI   GL1 4565   6.050  17.191  10.072  0.0337 -0.1323 -0.0758
  286loPI   GL2 4566   6.194  16.926   9.906 -0.0381 -0.1121  0.2222
  286loPI   C1A 4567   5.878  17.273   9.650 -0.1292 -0.3261  0.1884
  286loPI   C2A 4568   5.814  17.327   9.261 -0.1867  0.2549  0.2397
  286loPI   C3A 4569   5.833  17.296   8.811  0.1083  0.0122  0.0638
  286loPI   C4A 4570   5.944  17.142   8.339 -0.0931 -0.0557  0.1479
  286loPI   C5A 4571   6.249  16.890   8.185 -0.1396  0.0127 -0.0165
  286loPI   C6A 4572   6.602  16.975   8.159  0.4363 -0.1870  0.0513
  286loPI   C1B 4573   6.186  16.830   9.441  0.1281 -0.1245 -0.0751
  286loPI   C2B 4574   6.303  16.507   9.052 -0.2305  0.2169 -0.1376
  286loPI   C3B 4575   6.621  16.337   8.816 -0.0415 -0.0221  0.2992
  286loPI   C4B 4576   6.979  16.369   8.629 -0.0599 -0.2288 -0.1904
  287loPI    C1 4577   7.238   8.411  10.847 -0.0925  0.2058 -0.2247
  287loPI    C2 4578   7.263   8.631  11.180  0.2080  0.0478 -0.1399
  287loPI    C3 4579   7.475   8.293  11.146 -0.1740 -0.1822 -0.3067
  287loPI   PO4 4580   6.963   8.425  10.746 -0.1259 -0.1943 -0.0167
  287loPI   GL1 4581   6.858   8.553  10.463 -0.0072  0.0248 -0.1515
  287loPI   GL2 4582   6.572   8.826  10.621  0.0419 -0.1817  0.0544
  287loPI   C1A 4583   6.909   8.513  10.048  0.0722  0.2122  0.4090
  287loPI   C2A 4584   7.095   8.581   9.654  0.2670  0.0147 -0.0663
  287loPI   C3A 4585   7.144   8.649   9.215 -0.0547 -0.2329 -0.1973
  287loPI   C4A 4586   7.134   8.661   8.822  0.3601  0.1156  0.0185
  287loPI   C5A 4587   7.188   8.908   8.441 -0.1755  0.1647  0.3608
  287loPI   C6A 4588   6.986   8.992   8.108  0.3744 -0.2156  0.1859
  287loPI   C1B 4589   6.518   8.806  10.122  0.0954 -0.2111 -0.4197
  287loPI   C2B 4590   6.536   8.812   9.636  0.0918  0.0782 -0.1894
  287loPI   C3B 4591   6.609   8.827   9.241  0.1120 -0.0943  0.1604
  287loPI   C4B 4592   6.561   8.923   8.816 -0.0027  0.5146  0.0306
  288loPI    C1 4593  14.945  15.861  10.703 -0.0929  0.1711  0.0493
  288loPI    C2 4594  14.642  15.739  10.934 -0.0525 -0.0394 -0.0062
  288loPI    C3 4595  14.599  16.062  10.702 -0.2280 -0.0578 -0.0010
  288loPI   PO4 4596  15.073  15.620  10.604 -0.0138  0.0543 -0.0165
  288loPI   GL1 4597  15.138  15.517  10.224  0.2186 -0.0474  0.2662
  288loPI   GL2 4598  15.336  15.789  10.193  0.0321 -0.4034 -0.0334
  288loPI   C1A 4599  15.289  15.454   9.814  0.3153  0.3085 -0.1228
  288loPI   C2A 4600  15.164  15.418   9.409 -0.2248 -0.2250 -0.3002
  288loPI   C3A 4601  15.123  15.491   9.038 -0.2239  0.0057 -0.1065
  288loPI   C4A 4602  15.099  15.541   8.632 -0.3328  0.0353 -0.0016
  288loPI   C5A 4603  14.969  15.596   8.222  0.0778 -0.0201  0.1758
  288loPI   C6A 4604  14.520  15.679   8.234 -0.0755  0.1279 -0.3240
  288loPI   C1B 4605  15.124  15.966   9.846  0.0945  0.0715 -0.4135
  288loPI   C2B 4606  15.190  15.966   9.360  0.1093  0.0888  0.0523
  288loPI   C3B 4607  15.113  16.039   8.966  0.1013 -0.0193  0.0627
  288loPI   C4B 4608  15.029  16.064   8.494  0.0402  0.0030  0.4399
  289loPI    C1 4609   1.360  14.765  10.715  0.0156 -0.0511  0.1496
  289loPI    C2 4610   1.406  14.950  11.067  0.0566 -0.0334  0.1350
  289loPI    C3 4611   1.679  14.686  10.942 -0.1137 -0.2725  0.2582
  289loPI   PO4 4612   1.321  15.011  10.503 -0.2734  0.0223 -0.0078
  289loPI   GL1 4613   0.923  15.207  10.277  0.0418 -0.1130  0.0474
  289loPI   GL2 4614   0.981  15.479  10.037  0.1104 -0.2143  0.0750
  289loPI   C1A 4615   1.118  14.888   9.939 -0.0958 -0.0706  0.1061
  289loPI   C2A 4616   1.149  14.796   9.519 -0.1369 -0.0333  0.2004
  289loPI   C3A 4617   1.143  14.762   9.063  0.3007  0.0763  0.0045
  289loPI   C4A 4618   1.021  14.711   8.601  0.0760 -0.2637 -0.0781
  289loPI   C5A 4619   0.908  14.534   8.198  0.3941 -0.3538 -0.1414
  289loPI   C6A 4620   0.960  14.591   7.645  0.5647  0.1471  0.1194
  289loPI   C1B 4621   1.100  15.319   9.616  0.2051  0.3337  0.0301
  289loPI   C2B 4622   1.140  15.254   9.207  0.1554 -0.2532  0.1235
  289loPI   C3B 4623   0.915  15.204   8.916  0.1453  0.0511 -0.0963
  289loPI   C4B 4624   0.917  15.173   8.477 -0.0219  0.0924  0.2216
  290loPI    C1 4625   5.226   9.062  10.955  0.0312 -0.1118 -0.0391
  290loPI    C2 4626   4.923   9.230  11.154  0.1667  0.0751  0.0115
  290loPI    C3 4627   5.287   9.215  11.319  0.2381  0.0632 -0.1448
  290loPI   PO4 4628   5.191   9.121  10.713  0.2919  0.1286  0.0898
  290loPI   GL1 4629   5.275   8.969  10.332 -0.1567  0.0585 -0.2662
  290loPI   GL2 4630   5.623   8.918  10.414 -0.1477 -0.2018  0.2682
  290loPI   C1A 4631   5.480   8.635   9.925 -0.0868 -0.0908  0.0130
  290loPI   C2A 4632   5.654   8.632   9.544 -0.1306 -0.0445 -0.0272
  290loPI   C3A 4633   5.682   8.739   9.102 -0.2409  0.1981 -0.2504
  290loPI   C4A 4634   5.609   8.799   8.639  0.0128  0.1592 -0.0744
  290loPI   C5A 4635   5.347   8.472   8.436  0.1779 -0.2383  0.1302
  290loPI   C6A 4636   5.088   8.320   8.025 -0.0961 -0.0325 -0.1494
  290loPI   C1B 4637   5.611   9.207  10.070  0.4693 -0.0780 -0.1069
  290loPI   C2B 4638   5.585   9.139   9.662  0.2027 -0.2375 -0.0072
  290loPI   C3B 4639   5.589   9.224   9.176  0.1313  0.2677 -0.1372
  290loPI   C4B 4640   5.675   9.308   8.724 -0.0345 -0.0553  0.1628
  291loPI    C1 4641   7.116  17.744  10.563 -0.2109  0.2987 -0.1096
  291loPI    C2 4642   6.897  17.654  10.241 -0.1782  0.0725 -0.0705
  291loPI    C3 4643   6.759  17.569  10.606 -0.0328 -0.0592 -0.0451
  291loPI   PO4 4644   7.222  17.947  10.575  0.0903  0.0293 -0.0671
  291loPI   GL1 4645   7.466  18.224  10.302  0.0465  0.3563 -0.4002
  291loPI   GL2 4646   7.334  18.477  10.137 -0.0683  0.3043  0.2013
  291loPI   C1A 4647   7.646  18.148   9.928 -0.2187 -0.3776 -0.2311
  291loPI   C2A 4648   7.538  18.058   9.458 -0.0932 -0.0017 -0.0587
  291loPI   C3A 4649   7.589  18.014   9.064  0.0221  0.0973 -0.0344
  291loPI   C4A 4650   7.597  18.015   8.597 -0.1154 -0.0912  0.4503
  291loPI   C5A 4651   7.695  18.010   8.094 -0.1197 -0.0733  0.0740
  291loPI   C6A 4652   7.935  17.955   7.720  0.1748  0.5010  0.3653
  291loPI   C1B 4653   7.313  18.495   9.667  0.0491 -0.1511 -0.0101
  291loPI   C2B 4654   7.232  18.461   9.352 -0.1141  0.1687 -0.0309
  291loPI   C3B 4655   7.270  18.351   8.919  0.2359  0.0775 -0.2618
  291loPI   C4B 4656   7.244  18.437   8.544  0.0558 -0.1910 -0.2418
  292loPI    C1 4657   8.045   6.542  10.707 -0.3118  0.0792  0.0570
  292loPI    C2 4658   8.145   6.756  11.030  0.1037  0.2337 -0.1666
  292loPI    C3 4659   7.997   6.387  11.073  0.1501  0.2540  0.1989
  292loPI   PO4 4660   8.257   6.631  10.553  0.3469  0.3224 -0.0009
  292loPI   GL1 4661   8.449   6.818  10.212 -0.1601 -0.0142 -0.0230
  292loPI   GL2 4662   8.390   6.495  10.093 -0.2060  0.0359  0.1106
  292loPI   C1A 4663   8.349   6.857   9.694  0.1101  0.4737  0.0062
  292loPI   C2A 4664   8.479   6.859   9.219 -0.1947  0.4020  0.1318
  292loPI   C3A 4665   8.393   6.876   8.741  0.1490  0.0519  0.2589
  292loPI   C4A 4666   8.369   6.895   8.317 -0.1227  0.1907  0.2529
  292loPI   C5A 4667   8.199   7.079   7.894 -0.1212  0.3409 -0.0179
  292loPI   C6A 4668   7.932   6.819   7.627  0.1484  0.2071  0.0325
  292loPI   C1B 4669   8.445   6.298   9.717  0.0063 -0.1145  0.2204
  292loPI   C2B 4670   8.385   6.347   9.307 -0.0709  0.1565  0.0345
  292loPI   C3B 4671   8.646   6.379   8.952  0.0512  0.0072 -0.2517
  292loPI   C4B 4672   8.577   6.459   8.517  0.1500  0.0311 -0.0909
  293loPI    C1 4673   2.190  15.173  10.783  0.1016 -0.1716  0.1249
  293loPI    C2 4674   2.536  15.278  10.954  0.0962 -0.1165  0.1021
  293loPI    C3 4675   2.221  15.524  10.971  0.0325 -0.2037  0.1966
  293loPI   PO4 4676   2.297  15.149  10.571 -0.2331 -0.3530 -0.1913
  293loPI   GL1 4677   2.221  15.089  10.202  0.0480 -0.2383  0.3595
  293loPI   GL2 4678   2.388  15.429  10.052 -0.0852  0.2679 -0.0659
  293loPI   C1A 4679   2.033  14.949   9.850  0.0076  0.2892  0.1114
  293loPI   C2A 4680   2.084  14.877   9.450 -0.0369  0.1553  0.3479
  293loPI   C3A 4681   1.947  14.792   8.976 -0.0176 -0.2438  0.0100
  293loPI   C4A 4682   2.002  14.555   8.578 -0.2482 -0.0602 -0.3451
  293loPI   C5A 4683   1.928  14.269   8.270 -0.1492  0.1863  0.1858
  293loPI   C6A 4684   1.721  14.062   7.910  0.2368 -0.0792 -0.0043
  293loPI   C1B 4685   2.341  15.301   9.618 -0.1058  0.3309 -0.0552
  293loPI   C2B 4686   2.453  15.165   9.212  0.1707 -0.0277 -0.2321
  293loPI   C3B 4687   2.337  15.054   8.732  0.1877  0.0590 -0.1498
  293loPI   C4B 4688   2.203  15.175   8.308  0.1399 -0.3228  0.1524
  294loPI    C1 4689   6.428  13.967  10.906  0.0184 -0.1989  0.0038
  294loPI    C2 4690   6.653  14.156  11.177  0.0131 -0.0210 -0.1145
  294loPI    C3 4691   6.734  13.777  11.079 -0.0101 -0.1005  0.1650
  294loPI   PO4 4692   6.484  14.067  10.689 -0.3029 -0.2323  0.0110
  294loPI   GL1 4693   6.597  13.960  10.276  0.1690  0.1423 -0.0612
  294loPI   GL2 4694   6.516  13.650  10.287  0.0168 -0.0289  0.0514
  294loPI   C1A 4695   6.811  14.023   9.896  0.2013 -0.0087 -0.0289
  294loPI   C2A 4696   7.021  14.001   9.486 -0.2339  0.1559 -0.0173
  294loPI   C3A 4697   7.261  13.883   9.095  0.1853  0.2658  0.2975
  294loPI   C4A 4698   7.222  14.030   8.650 -0.3146 -0.1427  0.1815
  294loPI   C5A 4699   7.208  13.929   8.261  0.0300  0.0525 -0.2095
  294loPI   C6A 4700   7.234  14.171   7.933 -0.2022 -0.0740  0.0535
  294loPI   C1B 4701   6.317  13.789   9.863 -0.0651 -0.0694  0.0622
  294loPI   C2B 4702   6.117  13.675   9.525 -0.0787 -0.2048  0.1371
  294loPI   C3B 4703   5.849  13.428   9.266 -0.2892  0.0758  0.1573
  294loPI   C4B 4704   5.827  13.318   8.784 -0.2033  0.0881  0.0659
  295loPI    C1 4705  13.416   7.784  10.022  0.2792 -0.0249 -0.1432
  295loPI    C2 4706  13.076   7.575  10.042  0.1459  0.2125  0.1784
  295loPI    C3 4707  13.324   7.582  10.355  0.4346  0.0681 -0.0423
  295loPI   PO4 4708  13.273   8.060   9.986  0.0683  0.2109 -0.2061
  295loPI   GL1 4709  13.198   8.029   9.594  0.2446  0.0564  0.2041
  295loPI   GL2 4710  13.208   7.696   9.486  0.0465  0.0190 -0.0016
  295loPI   C1A 4711  13.149   8.163   9.086  0.2080 -0.0644 -0.1678
  295loPI   C2A 4712  13.147   8.082   8.670 -0.0791  0.0993  0.0685
  295loPI   C3A 4713  13.117   8.026   8.215  0.1222  0.3168  0.0473
  295loPI   C4A 4714  13.046   8.023   7.774 -0.0728  0.2732 -0.0605
  295loPI   C5A 4715  13.313   7.852   7.426  0.2971 -0.1055 -0.0473
  295loPI   C6A 4716  13.758   7.981   7.411  0.0747  0.0118  0.1897
  295loPI   C1B 4717  13.147   7.650   9.009 -0.2196  0.1610  0.1613
  295loPI   C2B 4718  13.194   7.554   8.546 -0.3525 -0.2501  0.1106
  295loPI   C3B 4719  13.198   7.515   8.128  0.1079  0.2966 -0.1075
  295loPI   C4B 4720  13.161   7.492   7.703  0.2479  0.0446  0.2173
  296loPI    C1 4721  11.495  17.409  10.951 -0.1658  0.0533 -0.0730
  296loPI    C2 4722  11.576  17.800  10.922 -0.1144  0.0508  0.0299
  296loPI    C3 4723  11.601  17.616  11.277 -0.1414 -0.0455 -0.0178
  296loPI   PO4 4724  11.519  17.312  10.694  0.0310 -0.0262  0.1358
  296loPI   GL1 4725  11.491  17.388  10.264 -0.4564 -0.0172  0.0101
  296loPI   GL2 4726  11.209  17.404  10.172  0.0856  0.0426 -0.2734
  296loPI   C1A 4727  11.748  17.353   9.887 -0.3891 -0.1118  0.1411
  296loPI   C2A 4728  11.800  17.351   9.432  0.0539 -0.2476  0.1732
  296loPI   C3A 4729  11.742  17.277   8.931 -0.0134 -0.0660 -0.2744
  296loPI   C4A 4730  11.841  17.327   8.509 -0.0148 -0.1582  0.2037
  296loPI   C5A 4731  11.691  17.492   8.132  0.0403 -0.0536  0.1741
  296loPI   C6A 4732  11.528  17.731   7.781  0.2019 -0.1198 -0.1195
  296loPI   C1B 4733  11.225  17.485   9.709  0.3436 -0.0792  0.0017
  296loPI   C2B 4734  11.317  17.508   9.165  0.0782  0.1078 -0.0679
  296loPI   C3B 4735  11.163  17.362   8.793 -0.1374 -0.0856  0.2237
  296loPI   C4B 4736  11.357  17.249   8.398  0.1242 -0.0247  0.0952
  297loPI    C1 4737   1.683   0.762  10.530 -0.0495  0.2285  0.0437
  297loPI    C2 4738   1.907   0.746  10.861 -0.2257 -0.1736  0.1503
  297loPI    C3 4739   1.842   0.414  10.648  0.0605  0.1173 -0.4139
  297loPI   PO4 4740   1.774   0.899  10.306 -0.1588  0.0348 -0.1027
  297loPI   GL1 4741   1.740   0.938   9.937 -0.0347 -0.0126 -0.0005
  297loPI   GL2 4742   1.783   0.687   9.765 -0.0379  0.1529  0.0263
  297loPI   C1A 4743   1.536   1.238   9.561 -0.1422 -0.0520 -0.2369
  297loPI   C2A 4744   1.547   1.258   9.117  0.1555 -0.3884  0.1422
  297loPI   C3A 4745   1.527   1.319   8.588 -0.0893  0.2926 -0.2520
  297loPI   C4A 4746   1.666   1.326   8.124  0.1946 -0.1953 -0.2102
  297loPI   C5A 4747   1.408   1.466   7.785 -0.0554 -0.0991  0.3132
  297loPI   C6A 4748   1.301   1.208   7.424 -0.0395  0.0791  0.2586
  297loPI   C1B 4749   1.874   0.857   9.373  0.0654  0.0710  0.3992
  297loPI   C2B 4750   1.900   0.882   8.958 -0.0737 -0.0333 -0.0111
  297loPI   C3B 4751   1.952   0.876   8.468 -0.0684  0.0132  0.1874
  297loPI   C4B 4752   2.037   1.016   8.019 -0.0635 -0.1446  0.1916
  298loPI    C1 4753  14.741   1.819  10.229 -0.1143  0.1528  0.0701
  298loPI    C2 4754  14.864   1.496  10.028 -0.0245  0.1765  0.0865
  298loPI    C3 4755  14.633   1.454  10.352  0.0599  0.1237  0.1404
  298loPI   PO4 4756  14.737   1.996   9.991 -0.2743  0.0101 -0.1558
  298loPI   GL1 4757  14.751   1.845   9.568 -0.1406  0.1744 -0.0214
  298loPI   GL2 4758  14.455   1.865   9.534  0.0208  0.0590  0.0611
  298loPI   C1A 4759  14.935   1.488   9.437  0.3309  0.1992 -0.1170
  298loPI   C2A 4760  15.115   1.481   8.998 -0.0989 -0.1216 -0.1578
  298loPI   C3A 4761  14.984   1.495   8.535 -0.2244  0.2163 -0.0928
  298loPI   C4A 4762  15.062   1.252   8.289 -0.2544  0.0555 -0.1191
  298loPI   C5A 4763  15.223   1.036   7.928  0.3559 -0.0906  0.0125
  298loPI   C6A 4764  15.302   0.614   7.731  0.0813  0.1033  0.1127
  298loPI   C1B 4765  14.603   1.707   9.140  0.1079  0.1599 -0.0264
  298loPI   C2B 4766  14.682   1.852   8.715  0.3087 -0.1606 -0.0167
  298loPI   C3B 4767  14.627   2.118   8.323  0.4965 -0.1862  0.2377
  298loPI   C4B 4768  14.368   1.985   7.918  0.1821 -0.0334  0.1205
  299loPI    C1 4769  14.855   4.687  10.063  0.0785  0.1433  0.0395
  299loPI    C2 4770  14.757   4.455  10.373  0.0201 -0.0178 -0.0980
  299loPI    C3 4771  15.123   4.616  10.352 -0.0494  0.1833  0.1688
  299loPI   PO4 4772  14.797   4.569   9.876 -0.2363  0.3326 -0.0632
  299loPI   GL1 4773  14.668   4.376   9.521  0.0870 -0.0744 -0.1250
  299loPI   GL2 4774  14.536   4.652   9.267  0.1318  0.1545  0.2439
  299loPI   C1A 4775  14.584   4.175   9.045  0.0131 -0.1729  0.1399
  299loPI   C2A 4776  14.754   3.966   8.712  0.2617 -0.0716 -0.1213
  299loPI   C3A 4777  15.047   3.981   8.291  0.1328 -0.2093 -0.3214
  299loPI   C4A 4778  15.234   4.086   7.934  0.0848  0.0358 -0.2540
  299loPI   C5A 4779  15.384   4.428   7.606 -0.0086  0.0844  0.1019
  299loPI   C6A 4780  15.802   4.553   7.496  0.3794 -0.0333 -0.0120
  299loPI   C1B 4781  14.759   4.673   8.925 -0.1154 -0.1261 -0.0515
  299loPI   C2B 4782  14.876   4.428   8.662  0.0074  0.1401  0.0426
  299loPI   C3B 4783  14.972   4.550   8.185  0.2613  0.2319  0.2122
  299loPI   C4B 4784  14.757   4.233   7.906 -0.2138 -0.0001  0.2526
  300loPI    C1 4785  15.418  11.894  10.625  0.0951  0.2206 -0.1512
  300loPI    C2 4786  15.124  12.156  10.694 -0.0359  0.0844 -0.1871
  300loPI    C3 4787  15.104  11.788  10.848  0.1953  0.1255 -0.0542
  300loPI   PO4 4788  15.446  11.912  10.313  0.0666 -0.0905  0.1229
  300loPI   GL1 4789  15.732  12.044  10.087 -0.0222  0.0468  0.1381
  300loPI   GL2 4790  15.583  12.311   9.928  0.0321  0.0976 -0.0493
  300loPI   C1A 4791  15.648  11.837   9.628 -0.0382  0.0098 -0.1437
  300loPI   C2A 4792  15.640  11.798   9.214  0.0864  0.1593 -0.1488
  300loPI   C3A 4793  15.566  11.877   8.759 -0.0430  0.1268 -0.2025
  300loPI   C4A 4794  15.644  11.995   8.364  0.1216 -0.1194 -0.0197
  300loPI   C5A 4795  15.438  12.091   8.059 -0.2274 -0.0024  0.2036
  300loPI   C6A 4796  15.198  12.439   7.831 -0.1763  0.1951 -0.1253
  300loPI   C1B 4797  15.603  12.423   9.494 -0.1472  0.0772  0.2098
  300loPI   C2B 4798  15.652  12.358   9.120 -0.0815 -0.1809  0.0326
  300loPI   C3B 4799  15.615  12.392   8.710  0.0290 -0.0841  0.0785
  300loPI   C4B 4800  15.557  12.505   8.291  0.0755 -0.0433 -0.0241
  301loPI    C1 4801  12.503  14.610  10.949 -0.1003  0.0941 -0.2305
  301loPI    C2 4802  12.211  14.338  10.973 -0.1364  0.1665  0.2377
  301loPI    C3 4803  12.484  14.365  11.264  0.1663  0.2969 -0.0517
  301loPI   PO4 4804  12.618  14.475  10.677  0.3136  0.0574 -0.2029
  301loPI   GL1 4805  12.597  14.256  10.373 -0.0977 -0.1462 -0.1022
  301loPI   GL2 4806  12.255  14.281  10.479  0.1674  0.1297  0.0154
  301loPI   C1A 4807  12.684  14.185   9.986  0.1611 -0.2008 -0.0198
  301loPI   C2A 4808  12.677  14.048   9.599 -0.1585 -0.0554  0.0203
  301loPI   C3A 4809  12.668  13.579   9.420 -0.2787  0.1451 -0.2200
  301loPI   C4A 4810  12.683  13.508   9.113  0.0417  0.2082 -0.1488
  301loPI   C5A 4811  12.619  13.486   8.671  0.1565  0.0132 -0.1640
  301loPI   C6A 4812  12.740  13.737   8.392  0.1562  0.0376 -0.2778
  301loPI   C1B 4813  12.177  14.090  10.095 -0.2135 -0.0390  0.1007
  301loPI   C2B 4814  12.194  14.242   9.607 -0.2862 -0.0571 -0.0021
  301loPI   C3B 4815  12.227  14.208   9.208 -0.0381 -0.0477  0.0350
  301loPI   C4B 4816  12.060  14.233   8.838  0.3704 -0.2678 -0.0402
  302loPI    C1 4817   4.243  15.163  10.810 -0.1018 -0.1416  0.0922
  302loPI    C2 4818   4.007  15.436  10.983  0.1449 -0.0149  0.2353
  302loPI    C3 4819   4.383  15.387  11.111  0.2533 -0.0935 -0.1024
  302loPI   PO4 4820   4.323  15.193  10.620 -0.1878  0.0561  0.0185
  302loPI   GL1 4821   4.448  15.246  10.293 -0.1432  0.0258  0.2952
  302loPI   GL2 4822   4.189  15.188  10.089  0.1836 -0.1118 -0.2266
  302loPI   C1A 4823   4.714  15.386   9.980 -0.2620  0.3527  0.1553
  302loPI   C2A 4824   4.518  15.344   9.584 -0.1304  0.1630  0.1318
  302loPI   C3A 4825   4.312  15.438   9.175  0.0781 -0.0412 -0.2527
  302loPI   C4A 4826   4.123  15.425   8.781 -0.0345 -0.2685 -0.0596
  302loPI   C5A 4827   4.069  15.466   8.379 -0.3359 -0.2784  0.2046
  302loPI   C6A 4828   4.347  15.495   8.005 -0.0572 -0.1431 -0.0453
  302loPI   C1B 4829   4.030  15.301   9.720 -0.0261 -0.1239  0.1854
  302loPI   C2B 4830   3.783  15.156   9.366 -0.4713  0.0963  0.2942
  302loPI   C3B 4831   3.657  15.229   8.919  0.1405 -0.0639  0.2462
  302loPI   C4B 4832   3.623  15.187   8.421 -0.0666 -0.2886  0.0265
  303loPI    C1 4833   8.657   2.457  10.816 -0.1248 -0.4752  0.0089
  303loPI    C2 4834   8.363   2.299  11.038 -0.2985 -0.1101  0.0453
  303loPI    C3 4835   8.349   2.685  10.932  0.1187 -0.1142 -0.0408
  303loPI   PO4 4836   8.696   2.191  10.672  0.3368 -0.1623  0.0312
  303loPI   GL1 4837   8.711   2.066  10.242 -0.2250 -0.1284 -0.0976
  303loPI   GL2 4838   8.393   2.163  10.079  0.1191 -0.3051  0.1468
  303loPI   C1A 4839   8.761   1.813   9.872 -0.1999 -0.0794  0.0025
  303loPI   C2A 4840   8.793   1.744   9.407  0.1396 -0.1981  0.1092
  303loPI   C3A 4841   8.777   1.754   8.993  0.0011  0.0517 -0.1139
  303loPI   C4A 4842   8.747   1.753   8.561  0.2479  0.3063 -0.0547
  303loPI   C5A 4843   8.620   1.716   8.110 -0.1961  0.2211  0.1021
  303loPI   C6A 4844   8.198   1.715   7.963  0.1373 -0.1968 -0.2778
  303loPI   C1B 4845   8.466   2.153   9.661 -0.0453 -0.1355  0.2523
  303loPI   C2B 4846   8.553   2.203   9.209 -0.2636  0.3638 -0.0861
  303loPI   C3B 4847   8.476   2.106   8.766 -0.2004 -0.1033  0.1719
  303loPI   C4B 4848   8.491   2.131   8.326  0.2298 -0.0970  0.0554
  304loPI    C1 4849   6.439  10.294  10.865  0.1349  0.0738  0.1825
  304loPI    C2 4850   6.664  10.057  11.095  0.0639 -0.0023  0.1740
  304loPI    C3 4851   6.292   9.947  10.999  0.0497  0.0876  0.1255
  304loPI   PO4 4852   6.678  10.299  10.614  0.1075 -0.2227 -0.0734
  304loPI   GL1 4853   6.778  10.500  10.292 -0.2615 -0.0590  0.2769
  304loPI   GL2 4854   6.982  10.183  10.291  0.1313  0.2482  0.2233
  304loPI   C1A 4855   6.683  10.662   9.869 -0.1484 -0.1760  0.0800
  304loPI   C2A 4856   6.698  10.746   9.388  0.0642 -0.2187 -0.1542
  304loPI   C3A 4857   6.813  10.784   8.947 -0.3584 -0.1029 -0.0879
  304loPI   C4A 4858   6.895  10.578   8.519 -0.1864 -0.2328  0.1032
  304loPI   C5A 4859   7.051  10.222   8.204 -0.0127 -0.0447 -0.1092
  304loPI   C6A 4860   6.906   9.911   8.020 -0.1471  0.1502  0.0381
  304loPI   C1B 4861   6.746  10.118   9.962  0.2602 -0.1762 -0.3187
  304loPI   C2B 4862   6.723  10.189   9.564  0.0792  0.0987 -0.0145
  304loPI   C3B 4863   6.823  10.158   9.191  0.0435 -0.2230  0.1256
  304loPI   C4B 4864   6.844  10.316   8.892  0.1837 -0.0202  0.0542
  305loPI    C1 4865   6.396  15.920  10.757  0.0940  0.0662 -0.0199
  305loPI    C2 4866   6.744  15.747  10.850  0.0642  0.0787  0.1179
  305loPI    C3 4867   6.530  15.929  11.134 -0.1649 -0.1265  0.0802
  305loPI   PO4 4868   6.268  15.689  10.595 -0.0467  0.2296 -0.0813
  305loPI   GL1 4869   6.224  15.332  10.225 -0.1435 -0.1540  0.1414
  305loPI   GL2 4870   6.270  15.036  10.239  0.1969 -0.1754  0.0219
  305loPI   C1A 4871   6.212  15.346   9.721 -0.1267  0.0450  0.1387
  305loPI   C2A 4872   6.128  15.089   9.300 -0.0179 -0.4075  0.1911
  305loPI   C3A 4873   5.862  14.914   8.996  0.2488 -0.3272  0.0059
  305loPI   C4A 4874   5.953  14.885   8.644  0.0605  0.1544  0.1568
  305loPI   C5A 4875   6.262  14.682   8.319 -0.1816 -0.0104  0.0217
  305loPI   C6A 4876   6.449  14.500   7.989  0.0873  0.1268  0.0813
  305loPI   C1B 4877   6.427  14.840   9.807  0.0500  0.0508 -0.0666
  305loPI   C2B 4878   6.255  14.639   9.467 -0.1926  0.1292  0.0041
  305loPI   C3B 4879   6.181  14.541   9.070  0.0490 -0.1538 -0.1541
  305loPI   C4B 4880   6.192  14.388   8.751  0.0221  0.2510  0.1544
  306loPI    C1 4881  15.554   7.694  10.565 -0.1503 -0.1282  0.0892
  306loPI    C2 4882  15.916   7.608  10.711 -0.0429  0.0521 -0.0661
  306loPI    C3 4883  15.732   7.947  10.818 -0.1369 -0.0065 -0.0404
  306loPI   PO4 4884  15.584   7.659  10.284  0.1808  0.1318 -0.0406
  306loPI   GL1 4885  15.649   7.390   9.929  0.2829 -0.2215 -0.0353
  306loPI   GL2 4886  15.857   7.321   9.661 -0.0345 -0.1328 -0.1956
  306loPI   C1A 4887  15.445   7.528   9.549  0.0774  0.1184 -0.2209
  306loPI   C2A 4888  15.457   7.716   9.174 -0.2685 -0.1755  0.0961
  306loPI   C3A 4889  15.510   7.651   8.752 -0.2032  0.2970 -0.5523
  306loPI   C4A 4890  15.398   7.686   8.337 -0.0168 -0.0571 -0.1566
  306loPI   C5A 4891  15.438   7.586   7.908  0.1599 -0.4437 -0.0365
  306loPI   C6A 4892  15.449   7.373   7.552 -0.2126 -0.0865  0.2763
  306loPI   C1B 4893  15.916   7.359   9.151  0.3076 -0.1000  0.2441
  306loPI   C2B 4894  15.980   7.479   8.764 -0.1329  0.1123 -0.0709
  306loPI   C3B 4895  15.896   7.507   8.324  0.1067 -0.2667  0.2422
  306loPI   C4B 4896  15.915   7.353   7.876 -0.1219  0.3883 -0.2534
  307loPI    C1 4897   9.297  14.369  10.802 -0.2256 -0.2394 -0.0112
  307loPI    C2 4898   9.125  14.674  10.996 -0.0473 -0.1233 -0.0337
  307loPI    C3 4899   9.194  14.330  11.187 -0.0039 -0.0581  0.0691
  307loPI   PO4 4900   9.460  14.521  10.631  0.0698  0.0931 -0.1167
  307loPI   GL1 4901   9.553  14.597  10.306  0.0402 -0.2222 -0.2578
  307loPI   GL2 4902   9.814  14.666  10.223 -0.1527  0.0102  0.1728
  307loPI   C1A 4903   9.463  14.387   9.953 -0.5065 -0.2032  0.3356
  307loPI   C2A 4904   9.472  14.386   9.545  0.2057 -0.0465 -0.3185
  307loPI   C3A 4905   9.367  14.465   9.046  0.2763  0.0930 -0.2509
  307loPI   C4A 4906   9.381  14.478   8.648  0.2637 -0.0377 -0.0025
  307loPI   C5A 4907   9.459  14.264   8.230  0.0679  0.3629 -0.0725
  307loPI   C6A 4908   9.410  13.990   7.891  0.2402 -0.0179  0.1038
  307loPI   C1B 4909   9.835  14.706   9.769  0.2634 -0.4227 -0.2142
  307loPI   C2B 4910   9.822  14.782   9.303 -0.0702  0.1422  0.0776
  307loPI   C3B 4911   9.748  14.782   8.882 -0.0534  0.2311 -0.1839
  307loPI   C4B 4912   9.848  14.621   8.435 -0.2241  0.1865 -0.2555
  308loPI    C1 4913  18.314  16.942  11.034 -0.0163 -0.0297  0.1299
  308loPI    C2 4914  18.272  17.287  11.232 -0.0029  0.0155  0.0548
  308loPI    C3 4915  18.608  17.074  11.272 -0.0043  0.0194  0.0882
  308loPI   PO4 4916  18.274  16.983  10.715  0.0472 -0.2429 -0.4251
  308loPI   GL1 4917  18.280  16.752  10.316 -0.2325 -0.0034  0.1996
  308loPI   GL2 4918  18.030  16.688  10.042 -0.1598 -0.0425 -0.1508
  308loPI   C1A 4919  18.516  16.696   9.876 -0.1331  0.0906 -0.0327
  308loPI   C2A 4920  18.670  16.544   9.460  0.2296  0.1883  0.2147
  308loPI   C3A 4921  18.674  16.479   9.067 -0.0647 -0.3288  0.0266
  308loPI   C4A 4922  18.573  16.425   8.647 -0.0368 -0.2616 -0.1964
  308loPI   C5A 4923  18.800  16.361   8.221  0.0374  0.1478 -0.3452
  308loPI   C6A 4924  18.578  16.204   7.875  0.0512 -0.0220  0.0062
  308loPI   C1B 4925  17.958  16.525   9.604  0.1858 -0.2917  0.0120
  308loPI   C2B 4926  17.796  16.292   9.305 -0.0044  0.1427  0.0527
  308loPI   C3B 4927  17.775  16.278   8.940 -0.0615  0.4412 -0.1845
  308loPI   C4B 4928  17.693  16.424   8.536  0.0905 -0.2213  0.2324
  309loPI    C1 4929  12.396   7.389  10.154 -0.1096 -0.0346 -0.1185
  309loPI    C2 4930  12.409   7.113  10.443 -0.2563  0.0045 -0.0737
  309loPI    C3 4931  12.056   7.241  10.305 -0.1878  0.0845 -0.1758
  309loPI   PO4 4932  12.651   7.356  10.063 -0.1828 -0.2995  0.0337
  309loPI   GL1 4933  12.825   7.217   9.774  0.0391  0.1550  0.0213
  309loPI   GL2 4934  12.727   7.557   9.658  0.2397 -0.2339  0.1271
  309loPI   C1A 4935  12.770   6.982   9.407  0.1495  0.2049  0.1006
  309loPI   C2A 4936  12.721   6.898   9.028  0.3037  0.2142  0.2849
  309loPI   C3A 4937  12.839   6.725   8.607  0.0462 -0.2302 -0.0213
  309loPI   C4A 4938  12.843   6.747   8.251 -0.0341 -0.0577 -0.0993
  309loPI   C5A 4939  12.914   6.819   7.844  0.1750 -0.3155 -0.0452
  309loPI   C6A 4940  12.553   6.840   7.563 -0.1301 -0.1875  0.3484
  309loPI   C1B 4941  12.739   7.824   9.347  0.2664  0.1507  0.1167
  309loPI   C2B 4942  12.718   7.890   8.953 -0.0615 -0.0731 -0.0468
  309loPI   C3B 4943  12.782   7.806   8.555 -0.0377 -0.0145  0.0540
  309loPI   C4B 4944  12.684   7.802   8.108  0.1707 -0.2572 -0.3255
  310loPI    C1 4945  14.843  11.835  10.435 -0.2004 -0.1553  0.0939
  310loPI    C2 4946  14.667  11.886  10.080 -0.0333  0.2309  0.0617
  310loPI    C3 4947  14.460  11.949  10.416 -0.1192  0.1135  0.0318
  310loPI   PO4 4948  14.953  11.599  10.393  0.0277 -0.0691 -0.0050
  310loPI   GL1 4949  15.113  11.663  10.001 -0.0113  0.0416 -0.0068
  310loPI   GL2 4950  15.308  11.497   9.970  0.3418 -0.3097  0.1052
  310loPI   C1A 4951  15.199  12.033   9.712 -0.0088  0.3163 -0.1491
  310loPI   C2A 4952  15.272  12.124   9.307 -0.1023 -0.3715  0.1245
  310loPI   C3A 4953  15.182  12.101   8.895  0.2500 -0.1932 -0.0132
  310loPI   C4A 4954  15.188  12.170   8.515  0.0638 -0.0498  0.1562
  310loPI   C5A 4955  14.910  12.151   8.137  0.0333  0.0822  0.0220
  310loPI   C6A 4956  14.556  12.341   7.990 -0.2853  0.0637 -0.1798
  310loPI   C1B 4957  15.259  11.498   9.490  0.0825  0.0302  0.1626
  310loPI   C2B 4958  15.218  11.505   9.096 -0.0320 -0.0334  0.1303
  310loPI   C3B 4959  15.250  11.445   8.716  0.1068  0.1056 -0.2898
  310loPI   C4B 4960  15.291  11.686   8.336  0.2547  0.0962 -0.0835
  311loPI    C1 4961   9.188  15.282  11.028 -0.0181 -0.1185  0.1125
  311loPI    C2 4962   9.253  15.035  11.336 -0.0690 -0.0067  0.2137
  311loPI    C3 4963   9.366  15.418  11.360 -0.0517 -0.0034  0.0837
  311loPI   PO4 4964   9.122  15.136  10.784 -0.3062  0.0305 -0.5583
  311loPI   GL1 4965   9.221  14.999  10.507 -0.2442 -0.0061 -0.2344
  311loPI   GL2 4966   9.255  15.345  10.341  0.2006  0.1481  0.0682
  311loPI   C1A 4967   9.332  14.921  10.084 -0.0147 -0.0567  0.1567
  311loPI   C2A 4968   9.443  14.965   9.579 -0.1512  0.0392  0.2467
  311loPI   C3A 4969   9.359  14.979   9.168 -0.1666 -0.0124 -0.0033
  311loPI   C4A 4970   9.281  14.975   8.762  0.1872 -0.2917 -0.1294
  311loPI   C5A 4971   9.170  15.061   8.344 -0.1791 -0.0082 -0.1537
  311loPI   C6A 4972   9.103  14.979   7.841  0.0501  0.2456 -0.0067
  311loPI   C1B 4973   9.390  15.379   9.870 -0.1050  0.1883  0.0566
  311loPI   C2B 4974   9.299  15.475   9.353 -0.3478 -0.1135 -0.0186
  311loPI   C3B 4975   9.254  15.415   8.897  0.1575 -0.2719  0.1933
  311loPI   C4B 4976   9.178  15.564   8.479 -0.0358 -0.2742 -0.0017
  312loPI    C1 4977  16.219   0.959  10.713  0.1945 -0.0788 -0.0100
  312loPI    C2 4978  16.492   0.711  10.560  0.0522 -0.2514  0.0120
  312loPI    C3 4979  16.255   0.588  10.857 -0.0916 -0.1241 -0.0486
  312loPI   PO4 4980  16.062   1.026  10.516 -0.0682  0.2754  0.0495
  312loPI   GL1 4981  16.078   0.935  10.165 -0.1053  0.0322  0.1658
  312loPI   GL2 4982  16.398   1.006  10.118  0.0595  0.4525  0.2059
  312loPI   C1A 4983  15.916   1.077   9.799  0.1771 -0.0346  0.2293
  312loPI   C2A 4984  15.965   1.188   9.420  0.1652  0.1084 -0.0351
  312loPI   C3A 4985  16.052   1.310   8.983  0.1488  0.0379 -0.1678
  312loPI   C4A 4986  16.186   1.527   8.568  0.1194  0.1759  0.0616
  312loPI   C5A 4987  16.419   1.703   8.206  0.1145  0.1601 -0.0277
  312loPI   C6A 4988  16.561   1.559   7.812  0.1121  0.2017  0.1310
  312loPI   C1B 4989  16.446   0.879   9.664 -0.0085 -0.3598  0.1290
  312loPI   C2B 4990  16.386   1.010   9.239 -0.0229  0.0712  0.1316
  312loPI   C3B 4991  16.482   1.224   8.815 -0.0514 -0.1580  0.2266
  312loPI   C4B 4992  16.473   1.127   8.359 -0.1825  0.0122  0.2171
  313loPI    C1 4993  15.598  12.859  10.635  0.1751  0.0001  0.0997
  313loPI    C2 4994  15.333  13.159  10.640  0.1895  0.0162 -0.0437
  313loPI    C3 4995  15.458  12.996  10.983 -0.0382 -0.0205  0.0237
  313loPI   PO4 4996  15.823  12.842  10.525 -0.2522 -0.1465 -0.1443
  313loPI   GL1 4997  15.882  12.678  10.113 -0.0328 -0.0106  0.2474
  313loPI   GL2 4998  16.105  12.384  10.051 -0.0939 -0.0553 -0.1042
  313loPI   C1A 4999  15.950  12.722   9.702 -0.2868 -0.2779 -0.3566
  313loPI   C2A 5000  16.046  12.714   9.393 -0.0215  0.1885  0.1479
  313loPI   C3A 5001  15.992  12.673   8.976  0.0409  0.3055 -0.1936
  313loPI   C4A 5002  16.023  12.599   8.489 -0.0734 -0.1409  0.1268
  313loPI   C5A 5003  16.055  12.772   8.060 -0.4008 -0.1280  0.4976
  313loPI   C6A 5004  16.162  13.147   7.792  0.2243 -0.2608  0.2236
  313loPI   C1B 5005  16.001  12.189   9.635 -0.0467  0.3715  0.2186
  313loPI   C2B 5006  16.151  12.263   9.201  0.1150 -0.0891 -0.1052
  313loPI   C3B 5007  15.996  12.143   8.779 -0.1394  0.2631  0.5183
  313loPI   C4B 5008  16.168  12.101   8.365  0.1577  0.3206  0.6191
  314loPI    C1 5009   3.700  11.129  10.797  0.0530  0.0086  0.1682
  314loPI    C2 5010   3.394  10.889  10.705 -0.0296  0.1550  0.0552
  314loPI    C3 5011   3.619  10.813  11.027 -0.1291 -0.0039  0.0882
  314loPI   PO4 5012   3.855  11.120  10.546  0.1494 -0.0486  0.0215
  314loPI   GL1 5013   4.087  11.313  10.263 -0.2263 -0.0993  0.1802
  314loPI   GL2 5014   4.245  11.572  10.207  0.2003  0.0200 -0.0067
  314loPI   C1A 5015   3.937  11.409   9.810  0.0489 -0.0029  0.0368
  314loPI   C2A 5016   4.181  11.414   9.503 -0.2446  0.0297  0.2988
  314loPI   C3A 5017   4.379  11.590   8.991 -0.0165 -0.0783 -0.1065
  314loPI   C4A 5018   4.669  11.894   8.707  0.1925  0.0987 -0.0568
  314loPI   C5A 5019   4.856  11.810   8.316 -0.0668  0.2568  0.0584
  314loPI   C6A 5020   5.316  11.618   8.178  0.0970 -0.2759 -0.0358
  314loPI   C1B 5021   4.401  11.726   9.831  0.1742  0.2894 -0.2488
  314loPI   C2B 5022   4.219  11.892   9.519  0.1075  0.0482 -0.0101
  314loPI   C3B 5023   3.855  11.742   9.271 -0.0045 -0.0878 -0.1605
  314loPI   C4B 5024   3.527  11.921   8.981 -0.3050 -0.1099 -0.1141
  315loPI    C1 5025   4.732  12.188  10.730  0.0780 -0.1692  0.2264
  315loPI    C2 5026   4.964  11.974  10.485  0.0546 -0.0270  0.0783
  315loPI    C3 5027   4.605  11.835  10.591 -0.1188  0.1047 -0.3176
  315loPI   PO4 5028   4.681  12.464  10.627 -0.0140  0.2704  0.1514
  315loPI   GL1 5029   4.922  12.537  10.327  0.2268  0.0343 -0.0145
  315loPI   GL2 5030   4.868  12.770  10.168 -0.1610  0.0060 -0.2699
  315loPI   C1A 5031   5.029  12.227   9.991 -0.0351  0.1586  0.1030
  315loPI   C2A 5032   4.754  12.148   9.637 -0.3572 -0.0419 -0.1644
  315loPI   C3A 5033   4.668  12.037   9.270  0.1673 -0.0553 -0.0340
  315loPI   C4A 5034   4.337  12.163   9.065 -0.3431  0.1443 -0.1758
  315loPI   C5A 5035   4.445  12.337   8.644  0.3223  0.1083  0.2267
  315loPI   C6A 5036   4.435  12.611   8.225 -0.1436  0.0880  0.0745
  315loPI   C1B 5037   4.676  12.614   9.864 -0.1936 -0.2536 -0.5131
  315loPI   C2B 5038   4.757  12.561   9.327  0.1819  0.1640  0.3693
  315loPI   C3B 5039   4.694  12.743   8.960  0.1534 -0.2444 -0.1660
  315loPI   C4B 5040   4.767  12.953   8.613  0.2583  0.1016 -0.0551
  316loPI    C1 5041   2.773  15.881  10.444 -0.0188  0.0174  0.0487
  316loPI    C2 5042   2.626  15.528  10.560  0.1945 -0.0840  0.0158
  316loPI    C3 5043   2.598  15.845  10.802 -0.0886 -0.0969  0.0036
  316loPI   PO4 5044   2.640  15.841  10.162  0.3080  0.4801  0.1680
  316loPI   GL1 5045   2.433  15.859   9.773  0.0449 -0.3023 -0.2333
  316loPI   GL2 5046   2.549  16.172   9.765 -0.3735 -0.1348  0.0464
  316loPI   C1A 5047   2.432  15.809   9.373  0.2063  0.0174  0.0940
  316loPI   C2A 5048   2.748  15.575   9.227  0.2079  0.1525  0.2842
  316loPI   C3A 5049   2.794  15.321   8.839  0.0506 -0.3229 -0.0256
  316loPI   C4A 5050   2.742  15.365   8.378  0.2340 -0.1194  0.0552
  316loPI   C5A 5051   2.848  15.748   8.229  0.2922 -0.0005  0.1922
  316loPI   C6A 5052   3.145  15.993   8.034 -0.0179  0.1094  0.1266
  316loPI   C1B 5053   2.827  16.227   9.508  0.0370 -0.0299  0.2893
  316loPI   C2B 5054   2.731  16.304   9.100 -0.0009 -0.2962  0.1826
  316loPI   C3B 5055   2.614  16.370   8.686 -0.0240  0.2670 -0.4162
  316loPI   C4B 5056   2.806  16.279   8.321  0.2684 -0.2445  0.2108
  317loPI    C1 5057  13.334   8.614  10.582 -0.0559 -0.1774  0.4563
  317loPI    C2 5058  12.957   8.550  10.700 -0.1779 -0.1546  0.0904
  317loPI    C3 5059  13.069   8.913  10.575 -0.0976 -0.2185 -0.0251
  317loPI   PO4 5060  13.414   8.435  10.313  0.0841 -0.2484  0.3777
  317loPI   GL1 5061  13.463   8.516   9.865  0.0449  0.3032  0.0254
  317loPI   GL2 5062  13.138   8.487   9.753  0.0630 -0.3497  0.1033
  317loPI   C1A 5063  13.497   8.420   9.440 -0.0155  0.0017  0.0733
  317loPI   C2A 5064  13.528   8.444   8.994  0.1582 -0.0622  0.2982
  317loPI   C3A 5065  13.563   8.449   8.594 -0.0043  0.2234 -0.0637
  317loPI   C4A 5066  13.473   8.411   8.217 -0.2208  0.1641  0.0158
  317loPI   C5A 5067  13.457   8.310   7.810 -0.1177 -0.0674  0.0687
  317loPI   C6A 5068  13.422   8.348   7.348  0.0404 -0.0080  0.1119
  317loPI   C1B 5069  13.024   8.674   9.320  0.3859  0.0733 -0.2795
  317loPI   C2B 5070  13.014   8.579   8.896  0.0044 -0.3753  0.1259
  317loPI   C3B 5071  13.012   8.569   8.505  0.0016 -0.2530  0.1217
  317loPI   C4B 5072  13.020   8.630   8.125  0.0141 -0.0436 -0.0393
  318loPI    C1 5073   1.851  14.338  10.631 -0.1157 -0.0875  0.0525
  318loPI    C2 5074   1.470  14.242  10.708 -0.1108 -0.2296 -0.0941
  318loPI    C3 5075   1.758  14.132  10.962 -0.1604 -0.1743 -0.0134
  318loPI   PO4 5076   1.859  14.384  10.347  0.0543 -0.2455 -0.2390
  318loPI   GL1 5077   1.584  14.681  10.088 -0.4066 -0.2708 -0.0602
  318loPI   GL2 5078   1.362  14.505  10.214  0.1428  0.2879 -0.3691
  318loPI   C1A 5079   1.757  14.584   9.721  0.0761  0.2875 -0.2602
  318loPI   C2A 5080   1.628  14.593   9.288 -0.3075  0.0484  0.0600
  318loPI   C3A 5081   1.562  14.525   8.855  0.3653 -0.1862  0.0779
  318loPI   C4A 5082   1.467  14.517   8.403 -0.0946 -0.2922 -0.0296
  318loPI   C5A 5083   1.292  14.869   8.132  0.1546 -0.1482  0.0122
  318loPI   C6A 5084   0.822  15.032   7.998  0.1371 -0.0062 -0.0805
  318loPI   C1B 5085   1.288  14.355   9.783  0.2801  0.3074  0.1259
  318loPI   C2B 5086   1.154  14.282   9.366 -0.2480 -0.0253  0.0689
  318loPI   C3B 5087   1.118  14.290   8.860 -0.0310 -0.1720 -0.0348
  318loPI   C4B 5088   1.087  14.079   8.505  0.2716  0.3748  0.1149
  319loPI    C1 5089  16.918   9.554  11.016  0.1461  0.2438 -0.0716
  319loPI    C2 5090  16.787   9.335  11.324  0.2615  0.0864 -0.1326
  319loPI    C3 5091  16.573   9.647  11.195  0.1480  0.0741  0.0230
  319loPI   PO4 5092  17.035   9.369  10.774 -0.0965 -0.1781 -0.0011
  319loPI   GL1 5093  17.072   9.386  10.386 -0.0064 -0.1037 -0.1895
  319loPI   GL2 5094  17.323   9.650  10.339 -0.0374 -0.2913  0.1915
  319loPI   C1A 5095  17.298   9.219  10.035  0.1769 -0.2133  0.1752
  319loPI   C2A 5096  17.372   9.380   9.582  0.0166 -0.0657 -0.0324
  319loPI   C3A 5097  17.396   9.290   9.201  0.2131 -0.2371 -0.1259
  319loPI   C4A 5098  17.370   9.284   8.737 -0.0188 -0.0286  0.1937
  319loPI   C5A 5099  17.306   9.447   8.292 -0.0483 -0.0417 -0.1149
  319loPI   C6A 5100  16.860   9.425   8.005 -0.0817  0.3531 -0.0002
  319loPI   C1B 5101  17.245   9.741   9.891 -0.0009 -0.0787 -0.0883
  319loPI   C2B 5102  17.293   9.866   9.447 -0.0902 -0.1548 -0.0633
  319loPI   C3B 5103  17.342   9.790   9.057  0.2370  0.0137  0.0818
  319loPI   C4B 5104  17.263   9.841   8.683 -0.0934  0.4264 -0.1242
  320loPI    C1 5105  14.599   7.625  10.357  0.1051  0.2277  0.2269
  320loPI    C2 5106  14.743   7.330  10.586  0.0126  0.0948  0.1152
  320loPI    C3 5107  14.363   7.320  10.462  0.0824  0.1264 -0.1072
  320loPI   PO4 5108  14.627   7.649  10.108  0.1536 -0.1968  0.1410
  320loPI   GL1 5109  14.346   7.684   9.778  0.2180  0.0478 -0.1698
  320loPI   GL2 5110  14.131   7.563   9.603 -0.0111 -0.0771  0.0978
  320loPI   C1A 5111  14.548   7.574   9.326  0.0867 -0.3916 -0.1101
  320loPI   C2A 5112  14.642   7.581   8.834  0.2409  0.0244  0.0551
  320loPI   C3A 5113  14.600   7.565   8.382 -0.1011 -0.0256 -0.2750
  320loPI   C4A 5114  14.587   7.557   7.934  0.1988 -0.0938  0.2020
  320loPI   C5A 5115  14.447   7.440   7.456  0.0169  0.0226  0.1029
  320loPI   C6A 5116  14.304   7.044   7.424 -0.1850  0.1327 -0.0324
  320loPI   C1B 5117  14.087   7.762   9.248 -0.1389  0.1718 -0.0338
  320loPI   C2B 5118  14.164   7.686   8.849  0.0767 -0.0371 -0.0941
  320loPI   C3B 5119  14.090   7.653   8.431  0.0106 -0.1644  0.1179
  320loPI   C4B 5120  14.098   7.725   7.997  0.0987 -0.0883 -0.0740
  321loPI    C1 5121   7.363   5.162  10.881  0.0369 -0.0003  0.2508
  321loPI    C2 5122   7.143   5.168  11.214 -0.3488 -0.0021  0.0023
  321loPI    C3 5123   7.223   5.509  11.021  0.0356  0.0216  0.1955
  321loPI   PO4 5124   7.245   5.026  10.723  0.0036  0.0933  0.0561
  321loPI   GL1 5125   7.275   4.900  10.291 -0.2104 -0.2891  0.2867
  321loPI   GL2 5126   7.062   4.901  10.168  0.0232 -0.0774 -0.2309
  321loPI   C1A 5127   7.513   4.794   9.909  0.0617 -0.2047  0.0611
  321loPI   C2A 5128   7.485   4.663   9.480  0.0874 -0.4391 -0.2244
  321loPI   C3A 5129   7.465   4.685   9.028  0.0885  0.0952 -0.1116
  321loPI   C4A 5130   7.507   4.678   8.610  0.2827  0.0604 -0.0333
  321loPI   C5A 5131   7.480   4.601   8.162 -0.2707 -0.1099 -0.1367
  321loPI   C6A 5132   7.525   4.840   7.889  0.1229  0.1237  0.0810
  321loPI   C1B 5133   7.089   4.882   9.742  0.0204  0.2016  0.0248
  321loPI   C2B 5134   7.089   5.008   9.300 -0.0778  0.1082 -0.1105
  321loPI   C3B 5135   7.236   5.134   8.919  0.1582  0.1685  0.1196
  321loPI   C4B 5136   7.248   5.440   8.765 -0.1093 -0.0262  0.5781
  322loPI    C1 5137   3.788   1.445  10.745 -0.1049  0.2056 -0.1334
  322loPI    C2 5138   3.528   1.398  11.046  0.1423 -0.0760  0.0414
  322loPI    C3 5139   3.698   1.754  10.983  0.0105  0.0105  0.1698
  322loPI   PO4 5140   3.814   1.280  10.615  0.1997  0.1518  0.2666
  322loPI   GL1 5141   3.484   1.076  10.343 -0.3488 -0.0664 -0.0480
  322loPI   GL2 5142   3.320   1.280  10.492  0.0768  0.0372  0.1995
  322loPI   C1A 5143   3.357   1.115   9.873 -0.1121 -0.0171 -0.1416
  322loPI   C2A 5144   3.407   0.998   9.495 -0.0171  0.2121  0.1447
  322loPI   C3A 5145   3.348   1.137   9.066  0.0265 -0.3126  0.0358
  322loPI   C4A 5146   3.494   1.281   8.732 -0.0693 -0.1847 -0.1102
  322loPI   C5A 5147   3.216   1.571   8.479  0.2869 -0.1479  0.0353
  322loPI   C6A 5148   3.356   2.064   8.481  0.1141 -0.0339 -0.1481
  322loPI   C1B 5149   3.016   1.357  10.167 -0.0839 -0.1559 -0.4098
  322loPI   C2B 5150   2.966   1.481   9.762  0.1172 -0.2751  0.3436
  322loPI   C3B 5151   3.166   1.474   9.355  0.0032  0.1558 -0.3475
  322loPI   C4B 5152   3.027   1.493   8.930  0.2802  0.1260  0.1851
  323loPI    C1 5153  16.719  14.221  10.687  0.0183  0.1757 -0.1945
  323loPI    C2 5154  16.503  13.935  10.509  0.1787 -0.0562 -0.0230
  323loPI    C3 5155  16.453  14.010  10.899  0.0513  0.2355 -0.0930
  323loPI   PO4 5156  17.035  14.116  10.468  0.5270 -0.2053  0.2872
  323loPI   GL1 5157  17.154  14.143  10.101 -0.0434 -0.1080 -0.1276
  323loPI   GL2 5158  17.394  13.928  10.214  0.0709 -0.0217  0.2007
  323loPI   C1A 5159  17.276  14.265   9.653 -0.3704 -0.0160 -0.0284
  323loPI   C2A 5160  17.238  14.196   9.263 -0.2323  0.1094 -0.2103
  323loPI   C3A 5161  17.081  14.094   8.911  0.3296  0.1500 -0.1738
  323loPI   C4A 5162  16.994  14.027   8.509  0.0106  0.0074  0.1249
  323loPI   C5A 5163  16.989  14.192   8.133  0.2869  0.0891 -0.2777
  323loPI   C6A 5164  17.215  14.373   7.807 -0.1471 -0.0953 -0.3170
  323loPI   C1B 5165  17.309  13.738   9.782  0.2081  0.1792  0.2637
  323loPI   C2B 5166  17.385  13.710   9.365  0.0607 -0.0638 -0.4418
  323loPI   C3B 5167  17.271  13.523   9.014  0.1372  0.2289 -0.0076
  323loPI   C4B 5168  17.143  13.564   8.640 -0.1816  0.2573 -0.0504
  324loPI    C1 5169   5.025   6.042  10.678  0.1368 -0.3252 -0.1351
  324loPI    C2 5170   5.388   6.019  10.845  0.1398 -0.1226 -0.1117
  324loPI    C3 5171   5.289   6.338  10.625 -0.0800 -0.1011  0.0154
  324loPI   PO4 5172   5.077   5.803  10.504 -0.1379  0.2875  0.0556
  324loPI   GL1 5173   4.916   5.793  10.120  0.1227 -0.0072 -0.1263
  324loPI   GL2 5174   5.129   5.515  10.110  0.3160  0.1738  0.2062
  324loPI   C1A 5175   4.728   5.705   9.708 -0.5013  0.0184  0.0523
  324loPI   C2A 5176   4.709   5.662   9.234 -0.2336  0.4492 -0.3947
  324loPI   C3A 5177   4.762   5.711   8.836 -0.1564 -0.1941  0.2560
  324loPI   C4A 5178   4.730   5.896   8.369 -0.1689  0.0720  0.1548
  324loPI   C5A 5179   4.417   5.801   8.025 -0.0204 -0.0714  0.2477
  324loPI   C6A 5180   3.899   5.731   8.034  0.1236 -0.1015 -0.0588
  324loPI   C1B 5181   5.284   5.788   9.766 -0.0030 -0.3465  0.0912
  324loPI   C2B 5182   5.248   5.764   9.381  0.0790  0.1241  0.2572
  324loPI   C3B 5183   5.284   5.731   8.961 -0.2067  0.0278  0.0309
  324loPI   C4B 5184   5.503   6.050   8.742  0.0995 -0.0710  0.1848
  325loPI    C1 5185   0.449  16.856  10.813 -0.1994 -0.0095  0.0033
  325loPI    C2 5186   0.479  16.477  10.935 -0.0871 -0.0061 -0.0125
  325loPI    C3 5187   0.784  16.730  10.991 -0.1265  0.0579 -0.0845
  325loPI   PO4 5188   0.411  16.824  10.550 -0.1896  0.0744  0.0633
  325loPI   GL1 5189   0.628  16.810  10.160  0.1278 -0.0282  0.0759
  325loPI   GL2 5190   0.691  16.512  10.042  0.0623  0.0614  0.2676
  325loPI   C1A 5191   0.707  16.984   9.746 -0.2346  0.0429  0.1555
  325loPI   C2A 5192   0.825  16.875   9.381  0.0471  0.0635  0.0306
  325loPI   C3A 5193   0.865  16.794   8.989  0.1874 -0.0157 -0.2195
  325loPI   C4A 5194   0.790  16.752   8.537 -0.1784  0.1775 -0.2638
  325loPI   C5A 5195   0.770  16.954   8.179 -0.0175 -0.2637 -0.0909
  325loPI   C6A 5196   0.479  16.824   7.956  0.1108 -0.4625 -0.2750
  325loPI   C1B 5197   0.791  16.417   9.688  0.0797  0.0980  0.1100
  325loPI   C2B 5198   0.816  16.346   9.304  0.0369  0.0289 -0.3464
  325loPI   C3B 5199   0.849  16.294   8.985  0.2693  0.0756  0.0212
  325loPI   C4B 5200   0.777  16.238   8.572 -0.2441  0.2129 -0.1019
  326loPI    C1 5201  17.408   3.041  10.077  0.2521  0.1980  0.0209
  326loPI    C2 5202  17.410   3.415  10.219 -0.2137  0.1701  0.1169
  326loPI    C3 5203  17.254   3.338   9.859  0.0484  0.0920  0.0178
  326loPI   PO4 5204  17.688   2.959  10.111  0.0303 -0.2625 -0.1596
  326loPI   GL1 5205  17.818   2.608   9.850  0.0281  0.0596 -0.4137
  326loPI   GL2 5206  17.660   2.398   9.689  0.1190 -0.0756  0.0441
  326loPI   C1A 5207  17.984   2.800   9.453  0.1288  0.0200  0.1374
  326loPI   C2A 5208  17.996   2.925   9.067  0.1588  0.2418 -0.0625
  326loPI   C3A 5209  18.172   2.953   8.626  0.2568  0.0643  0.0995
  326loPI   C4A 5210  18.080   2.923   8.268 -0.1065 -0.0815  0.1766
  326loPI   C5A 5211  18.198   2.817   7.851  0.2974 -0.1176 -0.0446
  326loPI   C6A 5212  17.944   2.698   7.540  0.0569 -0.1423  0.2599
  326loPI   C1B 5213  17.704   2.390   9.178  0.1415  0.0407  0.1354
  326loPI   C2B 5214  17.894   2.350   8.797 -0.1803  0.3111 -0.0554
  326loPI   C3B 5215  18.071   2.424   8.416 -0.0216  0.0679  0.0041
  326loPI   C4B 5216  17.990   2.364   7.934  0.2380  0.1943 -0.1532
  327loPI    C1 5217   9.752   2.568  10.779 -0.0479 -0.4027 -0.1026
  327loPI    C2 5218  10.151   2.562  10.802 -0.0457  0.2516  0.2873
  327loPI    C3 5219   9.931   2.465  11.122 -0.1979  0.1806  0.1626
  327loPI   PO4 5220   9.716   2.481  10.535  0.1340 -0.3155 -0.1608
  327loPI   GL1 5221   9.623   2.536  10.191  0.1277 -0.0528  0.0144
  327loPI   GL2 5222   9.723   2.845  10.111  0.1578  0.0638  0.3923
  327loPI   C1A 5223   9.466   2.388   9.769 -0.0919 -0.1596  0.0401
  327loPI   C2A 5224   9.513   2.210   9.380  0.3991  0.0785  0.2160
  327loPI   C3A 5225   9.447   2.318   8.958  0.0898  0.0425  0.0297
  327loPI   C4A 5226   9.457   2.376   8.515  0.0299  0.0137 -0.1225
  327loPI   C5A 5227   9.437   2.276   8.009 -0.0395  0.1543  0.1666
  327loPI   C6A 5228   9.350   2.230   7.496 -0.3174  0.0380  0.0411
  327loPI   C1B 5229   9.705   2.892   9.707 -0.6966  0.2283  0.0114
  327loPI   C2B 5230   9.617   2.744   9.332  0.3175 -0.1551  0.0163
  327loPI   C3B 5231   9.596   2.787   8.842 -0.1088 -0.2619  0.0225
  327loPI   C4B 5232   9.587   2.947   8.414  0.1346  0.1198  0.0641
  328loPI    C1 5233   0.820   6.231  10.680 -0.2366 -0.1741  0.2782
  328loPI    C2 5234   0.559   6.505  10.551 -0.0389  0.0230  0.2906
  328loPI    C3 5235   0.532   6.361  10.924 -0.1594  0.0049  0.2753
  328loPI   PO4 5236   1.036   6.377  10.574  0.1052 -0.2539 -0.1254
  328loPI   GL1 5237   1.121   6.566  10.260  0.2872  0.1094  0.2664
  328loPI   GL2 5238   1.054   6.982  10.110  0.3113 -0.2085  0.0259
  328loPI   C1A 5239   1.265   6.564   9.813 -0.1250  0.1566  0.1558
  328loPI   C2A 5240   1.201   6.694   9.383  0.1075  0.1464  0.1647
  328loPI   C3A 5241   1.263   6.836   8.981  0.1000 -0.0951  0.0623
  328loPI   C4A 5242   1.441   6.767   8.575 -0.1875  0.0612 -0.2453
  328loPI   C5A 5243   1.248   6.854   8.070 -0.1755  0.0571  0.0331
  328loPI   C6A 5244   1.433   6.678   7.675  0.0464 -0.0516 -0.1166
  328loPI   C1B 5245   0.967   7.013   9.687  0.1637 -0.2431  0.0434
  328loPI   C2B 5246   0.891   7.112   9.280  0.1231 -0.1320 -0.1022
  328loPI   C3B 5247   0.908   7.219   8.834 -0.0873 -0.0414  0.0541
  328loPI   C4B 5248   1.057   7.094   8.467  0.0419  0.1878  0.1057
  329loPI    C1 5249  18.210   8.385  10.628  0.1882  0.1975  0.0685
  329loPI    C2 5250  18.339   8.251  10.982  0.2342 -0.0936 -0.0554
  329loPI    C3 5251  17.962   8.181  10.867  0.2511 -0.0937 -0.1103
  329loPI   PO4 5252  18.297   8.572  10.627 -0.1425 -0.2376  0.0374
  329loPI   GL1 5253  18.636   8.664  10.347 -0.0017  0.4408 -0.0712
  329loPI   GL2 5254  18.839   8.907  10.251  0.0116  0.3538 -0.2558
  329loPI   C1A 5255  18.541   8.609   9.914  0.1673  0.0049 -0.2740
  329loPI   C2A 5256  18.676   8.760   9.546  0.0780 -0.0436 -0.1523
  329loPI   C3A 5257  18.359   8.940   9.224  0.0497  0.1604  0.1251
  329loPI   C4A 5258  18.378   8.921   8.737 -0.1104  0.0364  0.3071
  329loPI   C5A 5259  18.418   8.878   8.223  0.1545  0.2094  0.1176
  329loPI   C6A 5260  18.328   8.557   7.923 -0.1360  0.1182  0.0703
  329loPI   C1B 5261  19.078   8.746   9.812 -0.1663  0.2932  0.2215
  329loPI   C2B 5262  19.184   8.861   9.366  0.0485 -0.1593  0.3512
  329loPI   C3B 5263  19.218   9.006   8.965  0.3757  0.1632  0.0673
  329loPI   C4B 5264  19.267   9.129   8.512 -0.0030 -0.2034 -0.3881
  330loPI    C1 5265   5.176  11.552  10.848  0.1517  0.1216 -0.0129
  330loPI    C2 5266   5.135  11.915  11.012 -0.1487  0.0046  0.1795
  330loPI    C3 5267   5.344  11.632  11.202  0.1225  0.0863  0.0090
  330loPI   PO4 5268   4.926  11.498  10.691 -0.0974  0.3690 -0.3147
  330loPI   GL1 5269   4.812  11.416  10.234 -0.1775 -0.0827 -0.0688
  330loPI   GL2 5270   4.748  11.644  10.136 -0.1477  0.0234 -0.1166
  330loPI   C1A 5271   4.680  11.378   9.708 -0.1670  0.1898  0.1481
  330loPI   C2A 5272   4.742  11.598   9.293 -0.0345 -0.0317  0.0612
  330loPI   C3A 5273   4.818  11.436   8.823  0.1124 -0.2304  0.0396
  330loPI   C4A 5274   4.944  11.311   8.420  0.0999 -0.0936  0.1501
  330loPI   C5A 5275   5.167  11.046   8.155 -0.0267 -0.2024  0.0004
  330loPI   C6A 5276   5.595  10.754   8.107 -0.2519  0.0471 -0.0051
  330loPI   C1B 5277   5.048  11.685   9.835  0.1227  0.0458  0.1950
  330loPI   C2B 5278   5.145  11.868   9.483  0.0845 -0.0136 -0.0653
  330loPI   C3B 5279   5.225  11.862   9.074 -0.1095  0.1282 -0.3178
  330loPI   C4B 5280   5.213  11.816   8.711  0.0138 -0.0142 -0.0022
  331loPI    C1 5281  15.986  16.310  10.669  0.0838 -0.0102  0.1528
  331loPI    C2 5282  16.288  16.502  10.848 -0.1810  0.5352  0.0344
  331loPI    C3 5283  15.975  16.377  11.063 -0.0330  0.2775  0.1033
  331loPI   PO4 5284  15.994  16.384  10.418 -0.1681 -0.1441 -0.1614
  331loPI   GL1 5285  16.313  16.217  10.091 -0.0214  0.1396 -0.1043
  331loPI   GL2 5286  16.409  16.405   9.950  0.0406  0.0954  0.2196
  331loPI   C1A 5287  16.032  16.107   9.728 -0.0959 -0.0011 -0.1112
  331loPI   C2A 5288  15.907  16.140   9.372  0.0513  0.1514 -0.1224
  331loPI   C3A 5289  15.965  16.016   8.913  0.2432 -0.0516 -0.1758
  331loPI   C4A 5290  15.992  16.062   8.429  0.0973 -0.1231  0.0550
  331loPI   C5A 5291  15.998  16.163   8.013  0.0771  0.1704 -0.0509
  331loPI   C6A 5292  16.086  16.306   7.641 -0.0498  0.3648 -0.0510
  331loPI   C1B 5293  16.336  16.379   9.466 -0.3575  0.0408  0.1361
  331loPI   C2B 5294  16.354  16.309   9.100  0.1731  0.0061  0.2753
  331loPI   C3B 5295  16.249  16.402   8.690 -0.2782 -0.1296 -0.0431
  331loPI   C4B 5296  16.285  16.446   8.256 -0.0643 -0.4971  0.1021
  332loPI    C1 5297   2.347   7.535  11.170 -0.1562 -0.1253 -0.0091
  332loPI    C2 5298   2.615   7.588  11.463 -0.0959 -0.0574 -0.0763
  332loPI    C3 5299   2.277   7.387  11.535 -0.1800  0.1426  0.0971
  332loPI   PO4 5300   2.530   7.479  10.938  0.0988  0.1627 -0.0405
  332loPI   GL1 5301   2.677   7.421  10.521  0.2943 -0.1857  0.4149
  332loPI   GL2 5302   3.025   7.348  10.394 -0.3056 -0.0210 -0.2352
  332loPI   C1A 5303   2.443   7.406  10.118 -0.0848  0.0692  0.1703
  332loPI   C2A 5304   2.550   7.285   9.603  0.1461  0.1747 -0.0089
  332loPI   C3A 5305   2.502   7.287   9.218  0.0321 -0.1368  0.1375
  332loPI   C4A 5306   2.614   7.322   8.732 -0.1927  0.0836  0.0805
  332loPI   C5A 5307   2.467   7.465   8.384 -0.1462  0.0058  0.6135
  332loPI   C6A 5308   2.220   7.712   8.161  0.0796  0.3046  0.0614
  332loPI   C1B 5309   2.986   7.372   9.972 -0.1832  0.0822  0.1455
  332loPI   C2B 5310   3.020   7.457   9.520 -0.0439 -0.0307  0.0458
  332loPI   C3B 5311   3.018   7.434   9.094  0.1558  0.1838 -0.3259
  332loPI   C4B 5312   3.158   7.334   8.791  0.0350  0.2609  0.3163
  333loPI    C1 5313   0.083   2.597  10.636  0.0302  0.2218  0.1190
  333loPI    C2 5314   0.450   2.630  10.793  0.0639  0.1149  0.0636
  333loPI    C3 5315   0.129   2.701  11.020  0.1121 -0.0504  0.1849
  333loPI   PO4 5316   0.114   2.349  10.495  0.2635  0.1858  0.0168
  333loPI   GL1 5317   0.315   2.387  10.110 -0.0410 -0.1266 -0.0905
  333loPI   GL2 5318   0.406   2.559   9.914  0.0585 -0.1407  0.3041
  333loPI   C1A 5319   0.305   2.082   9.737 -0.0999 -0.1948  0.0402
  333loPI   C2A 5320   0.216   1.978   9.263 -0.4032  0.2001 -0.1027
  333loPI   C3A 5321   0.408   2.085   8.775  0.1898 -0.4581  0.1312
  333loPI   C4A 5322   0.460   2.030   8.373 -0.0204  0.1000  0.1249
  333loPI   C5A 5323   0.602   1.967   8.059  0.2111  0.2373  0.0768
  333loPI   C6A 5324   0.960   1.853   7.643 -0.0849  0.1209  0.1795
  333loPI   C1B 5325   0.398   2.475   9.383  0.0376 -0.0428 -0.1207
  333loPI   C2B 5326   0.489   2.557   9.012  0.1091  0.2436  0.0520
  333loPI   C3B 5327   0.684   2.482   8.651 -0.1099  0.0225 -0.2595
  333loPI   C4B 5328   0.678   2.558   8.169  0.1676 -0.1375  0.1444
  334loPI    C1 5329   9.305  16.792  11.067 -0.0626 -0.0472  0.2886
  334loPI    C2 5330   9.562  17.089  11.143 -0.1523  0.0699  0.1401
  334loPI    C3 5331   9.370  16.908  11.444 -0.0458  0.1156  0.2361
  334loPI   PO4 5332   9.389  16.673  10.816  0.0542  0.2509 -0.1411
  334loPI   GL1 5333   9.250  16.314  10.418  0.1469 -0.0891  0.0840
  334loPI   GL2 5334   9.085  16.091  10.475 -0.0341 -0.0720 -0.0496
  334loPI   C1A 5335   9.167  16.421  10.077  0.2192 -0.0312  0.0436
  334loPI   C2A 5336   9.205  16.490   9.577  0.0549 -0.1249 -0.0569
  334loPI   C3A 5337   9.342  16.590   9.099 -0.0712  0.1655 -0.0832
  334loPI   C4A 5338   9.269  16.468   8.732  0.2873 -0.1179  0.0089
  334loPI   C5A 5339   9.242  16.411   8.298 -0.0015  0.1203  0.2206
  334loPI   C6A 5340   9.303  16.699   7.944 -0.3029  0.0179  0.1188
  334loPI   C1B 5341   9.271  15.804  10.121  0.0118  0.0463 -0.3653
  334loPI   C2B 5342   9.325  15.949   9.650 -0.1455 -0.2851  0.2156
  334loPI   C3B 5343   9.299  15.994   9.290  0.0917 -0.3992  0.0703
  334loPI   C4B 5344   9.223  16.012   8.770 -0.2896  0.1961  0.2351
  335loPI    C1 5345   4.164   6.932  10.938 -0.1660 -0.1065  0.2173
  335loPI    C2 5346   4.382   6.638  11.099  0.2083  0.1412  0.1758
  335loPI    C3 5347   4.266   6.947  11.324  0.1953  0.1798  0.1164
  335loPI   PO4 5348   3.958   6.882  10.767 -0.0814 -0.1519  0.1838
  335loPI   GL1 5349   3.957   6.780  10.358  0.2926  0.2686 -0.0383
  335loPI   GL2 5350   4.020   6.546  10.108  0.1652 -0.1390 -0.2574
  335loPI   C1A 5351   3.794   6.955  10.015 -0.1803  0.0177 -0.0003
  335loPI   C2A 5352   3.816   7.055   9.488  0.2188 -0.1063 -0.1290
  335loPI   C3A 5353   3.914   7.021   8.951  0.2258 -0.0450 -0.0796
  335loPI   C4A 5354   4.018   6.940   8.525  0.2272 -0.3806  0.0156
  335loPI   C5A 5355   3.970   6.802   8.201  0.0098  0.0692  0.0478
  335loPI   C6A 5356   4.150   6.835   7.796 -0.1254 -0.0648 -0.0699
  335loPI   C1B 5357   4.073   6.638   9.703  0.0938  0.0273 -0.1218
  335loPI   C2B 5358   4.162   6.683   9.236 -0.1132  0.1090 -0.1351
  335loPI   C3B 5359   4.187   6.584   8.943 -0.0381  0.0037  0.3216
  335loPI   C4B 5360   4.158   6.505   8.597 -0.3343 -0.0986  0.1165
  336loPI    C1 5361  11.424   7.713  10.474 -0.1947  0.0320  0.1876
  336loPI    C2 5362  11.269   7.494  10.771  0.0995 -0.2185  0.1612
  336loPI    C3 5363  11.257   7.894  10.789 -0.1896 -0.2330  0.3448
  336loPI   PO4 5364  11.694   7.552  10.393 -0.0987 -0.3485 -0.2550
  336loPI   GL1 5365  11.734   7.535   9.911  0.1173  0.2404  0.0170
  336loPI   GL2 5366  11.939   7.426   9.820  0.0922  0.0453 -0.2438
  336loPI   C1A 5367  11.605   7.343   9.471 -0.0445  0.2331  0.4277
  336loPI   C2A 5368  11.562   7.314   9.097  0.0372 -0.0270 -0.1223
  336loPI   C3A 5369  11.605   7.462   8.690  0.0142 -0.0134  0.1503
  336loPI   C4A 5370  11.402   7.341   8.245 -0.0392  0.4134  0.2486
  336loPI   C5A 5371  11.202   7.284   7.780 -0.0098 -0.1364  0.0131
  336loPI   C6A 5372  10.815   7.311   7.472 -0.2687 -0.1238  0.0485
  336loPI   C1B 5373  11.991   7.618   9.443  0.0483 -0.0581 -0.0108
  336loPI   C2B 5374  11.845   7.749   8.969 -0.0982  0.1305  0.0237
  336loPI   C3B 5375  11.842   7.741   8.414  0.1526 -0.1264  0.1818
  336loPI   C4B 5376  11.799   7.511   7.984  0.1772  0.0606  0.0971
  337loPI    C1 5377  15.219  14.229  10.992  0.0746  0.3247  0.2919
  337loPI    C2 5378  15.597  14.356  11.009  0.2573 -0.1534  0.0012
  337loPI    C3 5379  15.507  13.982  11.116 -0.1550 -0.0117  0.1693
  337loPI   PO4 5380  15.064  14.219  10.760  0.3000 -0.0750  0.0080
  337loPI   GL1 5381  14.948  14.278  10.410  0.2113 -0.0180 -0.0968
  337loPI   GL2 5382  14.907  14.484  10.233 -0.1100 -0.1477 -0.4112
  337loPI   C1A 5383  14.905  14.076   9.982  0.4285 -0.0128  0.1808
  337loPI   C2A 5384  14.891  14.071   9.481  0.0453  0.2408 -0.2796
  337loPI   C3A 5385  14.822  14.141   9.106 -0.1882  0.0949 -0.1218
  337loPI   C4A 5386  14.825  14.229   8.702  0.1431  0.1528 -0.1851
  337loPI   C5A 5387  14.852  14.126   8.302  0.3237  0.1941  0.1877
  337loPI   C6A 5388  14.644  13.775   8.130 -0.0979  0.4479  0.0654
  337loPI   C1B 5389  14.825  14.571   9.804  0.1095 -0.1381 -0.0853
  337loPI   C2B 5390  14.816  14.614   9.381  0.5343 -0.0578  0.4721
  337loPI   C3B 5391  14.720  14.652   8.918 -0.1819 -0.1194  0.1606
  337loPI   C4B 5392  14.810  14.682   8.396 -0.2997  0.2165 -0.0564
  338loPI    C1 5393   4.773   8.312  10.767  0.1729  0.1292  0.1983
  338loPI    C2 5394   4.591   8.130  11.073  0.0896  0.0392  0.0963
  338loPI    C3 5395   4.984   8.200  11.087  0.1321 -0.1952  0.1156
  338loPI   PO4 5396   4.621   8.185  10.504  0.0322 -0.0976 -0.1004
  338loPI   GL1 5397   4.685   8.087  10.071 -0.1783 -0.2274 -0.1529
  338loPI   GL2 5398   4.441   8.293  10.001 -0.0691 -0.0089 -0.0731
  338loPI   C1A 5399   4.716   8.011   9.633  0.0527 -0.1353  0.0669
  338loPI   C2A 5400   4.810   8.153   9.235 -0.2206  0.0947  0.0923
  338loPI   C3A 5401   4.576   8.468   8.985  0.0038  0.2422  0.0307
  338loPI   C4A 5402   4.244   8.742   8.916 -0.0684  0.0478 -0.0331
  338loPI   C5A 5403   4.126   9.155   9.066  0.1198 -0.2739 -0.0411
  338loPI   C6A 5404   3.835   9.316   9.333 -0.0720 -0.3509  0.2274
  338loPI   C1B 5405   4.207   8.067   9.636 -0.0930 -0.0545  0.1655
  338loPI   C2B 5406   4.260   8.029   9.271  0.1551  0.2056  0.1507
  338loPI   C3B 5407   4.403   7.991   8.829  0.0235  0.0057 -0.0425
  338loPI   C4B 5408   4.732   7.892   8.592  0.1937 -0.0545 -0.0210
  339loPI    C1 5409  14.049  14.955  11.190  0.0424  0.0007 -0.0239
  339loPI    C2 5410  13.822  15.176  11.434  0.0554  0.2494 -0.2325
  339loPI    C3 5411  14.219  15.172  11.480  0.0412  0.1218 -0.1131
  339loPI   PO4 5412  13.987  15.050  11.001  0.0828  0.0102  0.0306
  339loPI   GL1 5413  14.005  14.892  10.558  0.2440  0.0589  0.1287
  339loPI   GL2 5414  14.035  14.594  10.410  0.0140  0.0286  0.0238
  339loPI   C1A 5415  13.916  14.949  10.061  0.0790  0.0311  0.0590
  339loPI   C2A 5416  13.823  14.975   9.621  0.2387  0.2157  0.0963
  339loPI   C3A 5417  13.827  15.025   9.261 -0.2628 -0.0352  0.1007
  339loPI   C4A 5418  13.852  15.012   8.823 -0.2759 -0.2193  0.0393
  339loPI   C5A 5419  13.530  14.895   8.480 -0.0812 -0.0394  0.0098
  339loPI   C6A 5420  13.113  14.832   8.551 -0.1896 -0.0630  0.1017
  339loPI   C1B 5421  13.895  14.420   9.997  0.0491 -0.1689  0.0477
  339loPI   C2B 5422  13.941  14.449   9.571 -0.0302 -0.2433 -0.1105
  339loPI   C3B 5423  13.905  14.567   9.191  0.0496  0.0681  0.1450
  339loPI   C4B 5424  13.848  14.533   8.697 -0.0490 -0.0311 -0.2069
  340loPI    C1 5425   0.122   1.375  10.563 -0.0033 -0.0287  0.0409
  340loPI    C2 5426   0.292   1.356  10.925  0.1272 -0.1640 -0.0263
  340loPI    C3 5427  -0.075   1.208  10.868  0.0772 -0.0769  0.0669
  340loPI   PO4 5428   0.099   1.538  10.448 -0.1100  0.4323  0.0003
  340loPI   GL1 5429   0.201   1.431  10.016  0.1045  0.0966 -0.1876
  340loPI   GL2 5430   0.499   1.373  10.043  0.3958  0.2618  0.0492
  340loPI   C1A 5431   0.171   1.556   9.562  0.2565  0.2419  0.0635
  340loPI   C2A 5432   0.226   1.541   9.084  0.0966  0.0537 -0.1167
  340loPI   C3A 5433   0.218   1.620   8.717 -0.2006 -0.1880 -0.1042
  340loPI   C4A 5434   0.244   1.593   8.313  0.1795  0.1128  0.2220
  340loPI   C5A 5435   0.081   1.793   7.879 -0.1780 -0.0358  0.0472
  340loPI   C6A 5436   0.018   2.200   7.684 -0.0319  0.0583  0.0754
  340loPI   C1B 5437   0.649   1.405   9.676 -0.0116 -0.0945 -0.0991
  340loPI   C2B 5438   0.647   1.601   9.257 -0.1660  0.1551 -0.0929
  340loPI   C3B 5439   0.713   1.535   8.836 -0.1344 -0.2236  0.0324
  340loPI   C4B 5440   0.824   1.645   8.411 -0.0689 -0.0594  0.1505
  341loPI    C1 5441  13.642   2.644  10.274  0.0569  0.0366 -0.0314
  341loPI    C2 5442  13.656   2.389  10.582 -0.2580  0.0086 -0.0376
  341loPI    C3 5443  13.534   2.766  10.639  0.0795  0.1234 -0.0534
  341loPI   PO4 5444  13.503   2.528  10.092 -0.0695 -0.1913 -0.1261
  341loPI   GL1 5445  13.417   2.270   9.785  0.0289 -0.2958 -0.0269
  341loPI   GL2 5446  13.134   2.120   9.732 -0.1517 -0.0316  0.1293
  341loPI   C1A 5447  13.500   2.134   9.359 -0.1284  0.1927  0.1043
  341loPI   C2A 5448  13.631   2.051   8.877  0.4260  0.0753 -0.1519
  341loPI   C3A 5449  13.543   2.018   8.419 -0.0305 -0.0751 -0.0121
  341loPI   C4A 5450  13.334   2.098   8.003  0.0103  0.2040 -0.1059
  341loPI   C5A 5451  13.100   1.877   7.691 -0.1715  0.1694  0.0840
  341loPI   C6A 5452  12.646   1.924   7.565  0.0484 -0.0731  0.2681
  341loPI   C1B 5453  12.964   1.860   9.282  0.3577 -0.0438  0.1284
  341loPI   C2B 5454  13.089   1.838   8.839  0.1361  0.1454  0.0977
  341loPI   C3B 5455  13.038   1.890   8.404  0.2157 -0.1991 -0.0866
  341loPI   C4B 5456  12.969   1.729   8.120 -0.1185 -0.1131  0.0687
  342loPI    C1 5457  15.603   0.775  10.627 -0.1727 -0.2134  0.1278
  342loPI    C2 5458  15.709   1.092  10.845 -0.4507 -0.1365  0.1552
  342loPI    C3 5459  15.742   0.724  10.998 -0.0960 -0.1265  0.1112
  342loPI   PO4 5460  15.448   0.861  10.499 -0.1539  0.1057  0.0430
  342loPI   GL1 5461  15.414   0.919  10.076  0.1883 -0.2839  0.4416
  342loPI   GL2 5462  15.711   0.680  10.054  0.2552 -0.1351  0.2487
  342loPI   C1A 5463  15.446   0.837   9.658 -0.1449  0.3714 -0.0911
  342loPI   C2A 5464  15.634   0.778   9.276 -0.1236  0.0119  0.2619
  342loPI   C3A 5465  15.841   0.876   8.806 -0.0991  0.2229  0.0221
  342loPI   C4A 5466  16.013   0.926   8.393 -0.0676 -0.0751  0.0820
  342loPI   C5A 5467  16.313   0.701   8.130  0.1165 -0.0165  0.0632
  342loPI   C6A 5468  16.607   0.639   7.778 -0.1530  0.2642 -0.0655
  342loPI   C1B 5469  15.941   0.572   9.694  0.1792 -0.0631  0.1002
  342loPI   C2B 5470  16.122   0.493   9.313 -0.0211  0.1333  0.1025
  342loPI   C3B 5471  16.253   0.580   8.868  0.4496  0.2636  0.1549
  342loPI   C4B 5472  16.426   0.705   8.607 -0.1427 -0.1089 -0.0363
  343loPI    C1 5473   3.377   4.851  11.049 -0.0763 -0.1432 -0.2060
  343loPI    C2 5474   3.766   4.843  10.957  0.0079  0.2633  0.0906
  343loPI    C3 5475   3.643   4.723  11.318 -0.1212  0.3038  0.0609
  343loPI   PO4 5476   3.232   4.931  10.839 -0.0738  0.1464  0.1443
  343loPI   GL1 5477   3.167   4.944  10.419 -0.2829 -0.0386 -0.2938
  343loPI   GL2 5478   2.940   5.094  10.279  0.3189 -0.2573 -0.1183
  343loPI   C1A 5479   3.563   5.117  10.205 -0.1923  0.2516  0.0615
  343loPI   C2A 5480   3.471   5.153   9.786  0.2546  0.0994  0.3455
  343loPI   C3A 5481   3.508   5.201   9.384 -0.0811 -0.5038 -0.1039
  343loPI   C4A 5482   3.471   5.163   8.884 -0.2931  0.1519  0.2273
  343loPI   C5A 5483   3.409   5.276   8.475  0.1104 -0.0392  0.0134
  343loPI   C6A 5484   3.529   5.150   8.077  0.3975  0.0918  0.3297
  343loPI   C1B 5485   2.962   5.121   9.947  0.1647 -0.0359 -0.2177
  343loPI   C2B 5486   2.959   5.048   9.562  0.1225  0.1431  0.1274
  343loPI   C3B 5487   3.048   5.077   9.205 -0.0125 -0.1592 -0.0747
  343loPI   C4B 5488   3.019   5.063   8.709 -0.2838 -0.2083  0.0683
  344loPI    C1 5489   2.956  17.971  10.637  0.0397  0.0053  0.0408
  344loPI    C2 5490   3.229  17.678  10.647  0.1452  0.0955 -0.1389
  344loPI    C3 5491   3.097  17.841  10.988  0.0808 -0.1643 -0.0375
  344loPI   PO4 5492   3.027  18.104  10.451 -0.0089 -0.0320 -0.1335
  344loPI   GL1 5493   3.385  18.055  10.111  0.1258  0.0415  0.0485
  344loPI   GL2 5494   3.295  17.989   9.771 -0.0981  0.2242 -0.1189
  344loPI   C1A 5495   3.742  18.159   9.850 -0.2124 -0.0145  0.4566
  344loPI   C2A 5496   3.870  18.165   9.456 -0.0851  0.0235  0.1013
  344loPI   C3A 5497   3.840  18.253   8.996 -0.1400  0.1379  0.1703
  344loPI   C4A 5498   3.921  18.147   8.550  0.1213 -0.0337  0.1321
  344loPI   C5A 5499   4.261  18.269   8.279 -0.1983  0.2739 -0.1685
  344loPI   C6A 5500   4.413  18.618   7.976 -0.1594 -0.2379 -0.0996
  344loPI   C1B 5501   3.311  18.084   9.330  0.2972 -0.2364  0.1380
  344loPI   C2B 5502   3.296  18.139   8.946  0.2292  0.2086 -0.1226
  344loPI   C3B 5503   3.209  17.988   8.540 -0.0498  0.2262 -0.0111
  344loPI   C4B 5504   2.891  18.163   8.211 -0.2580 -0.0871  0.0133
  345loPI    C1 5505   9.304  13.360  11.284 -0.1703 -0.1406  0.0987
  345loPI    C2 5506   9.103  13.579  11.552 -0.0577  0.0837  0.0029
  345loPI    C3 5507   9.303  13.253  11.670 -0.1478  0.0851  0.1629
  345loPI   PO4 5508   9.214  13.399  11.061  0.0605  0.0337  0.1719
  345loPI   GL1 5509   9.320  13.411  10.606 -0.0636 -0.1427 -0.3085
  345loPI   GL2 5510   9.065  13.192  10.483 -0.1576 -0.1098 -0.2001
  345loPI   C1A 5511   9.119  13.662  10.264  0.2528  0.0797 -0.0295
  345loPI   C2A 5512   9.069  13.592   9.879 -0.0971  0.0458 -0.1400
  345loPI   C3A 5513   9.114  13.595   9.373 -0.0771  0.1567  0.1453
  345loPI   C4A 5514   9.077  13.715   8.882 -0.1254  0.1326 -0.1885
  345loPI   C5A 5515   8.908  13.654   8.383  0.1302  0.1405  0.0335
  345loPI   C6A 5516   9.093  13.445   7.999 -0.1285 -0.0154  0.5492
  345loPI   C1B 5517   9.032  13.134  10.092  0.0010  0.0287 -0.1216
  345loPI   C2B 5518   9.122  13.167   9.685  0.1923 -0.0873 -0.3479
  345loPI   C3B 5519   9.127  13.026   9.357  0.3826 -0.0413 -0.0126
  345loPI   C4B 5520   9.132  13.115   9.020 -0.3818  0.1425  0.1139
  346loPI    C1 5521  14.651   2.576  10.140 -0.1001 -0.0352 -0.0943
  346loPI    C2 5522  14.749   2.291  10.403 -0.0774  0.0177 -0.0454
  346loPI    C3 5523  14.581   2.632  10.529 -0.0156  0.0662 -0.0931
  346loPI   PO4 5524  14.805   2.570   9.944  0.2999  0.0234  0.2507
  346loPI   GL1 5525  14.768   2.374   9.522 -0.2599 -0.2980  0.3211
  346loPI   GL2 5526  15.086   2.228   9.539 -0.1459  0.0366  0.2187
  346loPI   C1A 5527  14.666   2.178   9.083  0.2650 -0.0482  0.2046
  346loPI   C2A 5528  14.341   2.284   8.745 -0.1490 -0.1190  0.1440
  346loPI   C3A 5529  14.144   2.396   8.295  0.1516 -0.0264 -0.0404
  346loPI   C4A 5530  14.217   2.511   7.865  0.1208  0.1550  0.0412
  346loPI   C5A 5531  14.449   2.943   7.704 -0.1316 -0.1213  0.1423
  346loPI   C6A 5532  14.320   3.227   7.494  0.1071 -0.1827 -0.2292
  346loPI   C1B 5533  15.193   2.035   9.058  0.0617 -0.3093 -0.2120
  346loPI   C2B 5534  15.213   2.016   8.615  0.1750 -0.1703 -0.2869
  346loPI   C3B 5535  15.159   2.042   8.180 -0.1831 -0.0081  0.2059
  346loPI   C4B 5536  14.856   2.160   7.856  0.0596  0.0358 -0.4285
  347loPI    C1 5537  17.436  16.302  10.400  0.0385 -0.2617  0.0218
  347loPI    C2 5538  17.111  16.099  10.517 -0.0595 -0.1770 -0.1007
  347loPI    C3 5539  17.408  16.169  10.777 -0.2965  0.0543  0.1140
  347loPI   PO4 5540  17.321  16.531  10.327  0.1076  0.5867 -0.0406
  347loPI   GL1 5541  17.226  16.686   9.884  0.0812 -0.1629  0.0371
  347loPI   GL2 5542  17.139  17.057   9.857 -0.0212 -0.1354  0.2021
  347loPI   C1A 5543  17.366  16.528   9.518  0.0871 -0.0494  0.0253
  347loPI   C2A 5544  17.306  16.447   9.040  0.1816  0.1123  0.2167
  347loPI   C3A 5545  17.187  16.469   8.547  0.0344  0.0572  0.1825
  347loPI   C4A 5546  17.304  16.383   8.155 -0.1660  0.3190  0.0252
  347loPI   C5A 5547  17.635  16.561   7.870 -0.0954 -0.1846 -0.0578
  347loPI   C6A 5548  17.909  16.717   7.548  0.2168 -0.1521  0.0719
  347loPI   C1B 5549  17.157  16.968   9.460 -0.2559  0.3108 -0.1963
  347loPI   C2B 5550  17.224  16.913   9.032 -0.1042 -0.0642  0.1706
  347loPI   C3B 5551  17.184  16.974   8.543  0.0952  0.2463 -0.4223
  347loPI   C4B 5552  17.269  17.298   8.191  0.1725 -0.3498  0.2045
  348loPI    C1 5553   1.709   6.421  10.930 -0.0084 -0.0041  0.0498
  348loPI    C2 5554   1.836   6.554  11.286  0.0246  0.0221  0.0283
  348loPI    C3 5555   1.452   6.455  11.235  0.0345 -0.0496  0.0912
  348loPI   PO4 5556   1.943   6.246  10.763  0.0231 -0.1356 -0.1304
  348loPI   GL1 5557   2.100   5.954  10.380  0.2016  0.0355  0.1862
  348loPI   GL2 5558   1.810   6.082  10.210 -0.1442  0.0398 -0.3801
  348loPI   C1A 5559   2.329   5.940   9.993 -0.0654 -0.4034  0.0956
  348loPI   C2A 5560   2.288   5.929   9.545  0.1538 -0.0369 -0.0623
  348loPI   C3A 5561   2.407   5.933   9.150 -0.0681 -0.1015 -0.1039
  348loPI   C4A 5562   2.363   6.034   8.699 -0.2581  0.1592  0.0764
  348loPI   C5A 5563   2.571   6.216   8.289  0.0140 -0.2709  0.0554
  348loPI   C6A 5564   2.744   6.556   7.995  0.0570  0.0749  0.1317
  348loPI   C1B 5565   1.593   6.175   9.851  0.2486  0.0564  0.2823
  348loPI   C2B 5566   1.537   6.191   9.446  0.0177  0.2677 -0.0699
  348loPI   C3B 5567   1.677   6.182   9.088  0.2439 -0.2357  0.0186
  348loPI   C4B 5568   1.748   6.374   8.651  0.2218  0.1154  0.4744
  349loPI    C1 5569  15.310   2.758  10.048  0.0498  0.1874 -0.0424
  349loPI    C2 5570  15.085   2.681  10.369  0.0602  0.2285 -0.0253
  349loPI    C3 5571  15.454   2.528  10.342  0.0733  0.2559 -0.0003
  349loPI   PO4 5572  15.282   2.924   9.896  0.2441 -0.2132 -0.4242
  349loPI   GL1 5573  15.134   2.708   9.501 -0.2018  0.1760 -0.3078
  349loPI   GL2 5574  14.859   2.843   9.460  0.2675  0.0496  0.0538
  349loPI   C1A 5575  15.380   2.497   9.255  0.1680 -0.1032 -0.1146
  349loPI   C2A 5576  15.321   2.527   8.844  0.0218 -0.1290 -0.0583
  349loPI   C3A 5577  15.045   2.513   8.451  0.0835  0.0910  0.3643
  349loPI   C4A 5578  14.923   2.855   8.005 -0.0762  0.1946 -0.1417
  349loPI   C5A 5579  14.723   3.335   7.949 -0.1696  0.1337 -0.0935
  349loPI   C6A 5580  14.263   3.476   7.961 -0.0607  0.0811  0.0975
  349loPI   C1B 5581  14.895   2.668   9.105  0.0887 -0.1254 -0.0158
  349loPI   C2B 5582  14.664   2.689   8.741 -0.0989  0.0632 -0.1349
  349loPI   C3B 5583  14.662   3.058   8.425 -0.3271  0.0358 -0.3466
  349loPI   C4B 5584  14.760   3.532   8.558 -0.1348 -0.0478  0.1117
  350loPI    C1 5585   5.464   1.165  11.124  0.1783 -0.2181  0.0360
  350loPI    C2 5586   5.542   1.487  10.900  0.1449 -0.1236  0.1588
  350loPI    C3 5587   5.744   1.426  11.240  0.0942 -0.1895  0.1773
  350loPI   PO4 5588   5.487   0.968  10.989  0.0765  0.1865  0.0933
  350loPI   GL1 5589   5.486   0.984  10.569  0.1271  0.0767  0.1247
  350loPI   GL2 5590   5.355   0.954  10.291 -0.0298 -0.0700 -0.0772
  350loPI   C1A 5591   5.795   1.131  10.300 -0.1662 -0.1948  0.1510
  350loPI   C2A 5592   5.776   1.170   9.851  0.4041  0.0861 -0.0211
  350loPI   C3A 5593   5.739   1.161   9.413 -0.2014  0.0873  0.1127
  350loPI   C4A 5594   5.780   1.124   9.023  0.2725 -0.0018 -0.1065
  350loPI   C5A 5595   5.775   1.196   8.618  0.0156 -0.1088  0.1828
  350loPI   C6A 5596   5.797   1.169   8.131 -0.0714 -0.0018 -0.1093
  350loPI   C1B 5597   5.226   0.960   9.919  0.1318 -0.4238 -0.1777
  350loPI   C2B 5598   5.266   1.055   9.540 -0.1560  0.0789  0.2465
  350loPI   C3B 5599   5.294   1.065   9.085 -0.1161 -0.2216 -0.2352
  350loPI   C4B 5600   5.308   1.104   8.710  0.4153 -0.0017  0.4883
  351loPI    C1 5601   4.709  16.723  10.833  0.0339  0.1199  0.1356
  351loPI    C2 5602   4.344  16.679  10.989  0.0210 -0.1122  0.0429
  351loPI    C3 5603   4.666  16.587  11.207  0.0108 -0.2347  0.0071
  351loPI   PO4 5604   4.739  16.724  10.636  0.1783  0.1464  0.0578
  351loPI   GL1 5605   4.560  16.816  10.196  0.0468  0.1611 -0.1228
  351loPI   GL2 5606   4.904  16.816  10.097  0.0506 -0.2023 -0.0799
  351loPI   C1A 5607   4.649  16.557   9.793 -0.0259 -0.2311 -0.0474
  351loPI   C2A 5608   4.677  16.601   9.369 -0.1046 -0.0721 -0.0266
  351loPI   C3A 5609   4.810  16.561   8.951  0.0380  0.1291 -0.3420
  351loPI   C4A 5610   4.715  16.580   8.511  0.0187 -0.0549  0.2337
  351loPI   C5A 5611   4.501  16.786   8.101 -0.1412  0.3048 -0.2677
  351loPI   C6A 5612   4.370  17.099   7.844 -0.0284  0.3816 -0.3241
  351loPI   C1B 5613   4.831  16.989   9.645 -0.4126 -0.3180 -0.1456
  351loPI   C2B 5614   4.915  17.090   9.225  0.2650 -0.0179 -0.2924
  351loPI   C3B 5615   4.947  17.051   8.806  0.3203 -0.1697 -0.2818
  351loPI   C4B 5616   4.901  17.034   8.343 -0.4511  0.2342 -0.2768
  352loPI    C1 5617   6.955   3.339  10.558  0.1075  0.0687 -0.1156
  352loPI    C2 5618   6.702   3.628  10.669 -0.0340 -0.1678  0.1925
  352loPI    C3 5619   7.078   3.627  10.806  0.0012 -0.0664  0.0974
  352loPI   PO4 5620   6.811   3.160  10.463  0.0115  0.4638  0.0030
  352loPI   GL1 5621   6.937   2.976  10.063 -0.3000  0.0474  0.0068
  352loPI   GL2 5622   7.149   2.747  10.023 -0.0810  0.0863  0.0632
  352loPI   C1A 5623   6.842   3.215   9.804  0.3753  0.1393 -0.1439
  352loPI   C2A 5624   6.903   3.187   9.425 -0.0291  0.1344 -0.1433
  352loPI   C3A 5625   6.947   3.252   9.060  0.4424 -0.0977  0.0837
  352loPI   C4A 5626   6.964   3.328   8.684 -0.1551 -0.0393  0.0929
  352loPI   C5A 5627   6.967   3.324   8.279 -0.2027  0.1418 -0.1306
  352loPI   C6A 5628   6.891   3.116   7.917  0.1621  0.3358 -0.1757
  352loPI   C1B 5629   7.274   2.840   9.568  0.2579 -0.0385 -0.0348
  352loPI   C2B 5630   7.345   2.859   9.173 -0.0909  0.0933 -0.0644
  352loPI   C3B 5631   7.246   2.891   8.774  0.0646  0.0399  0.2334
  352loPI   C4B 5632   7.287   2.892   8.277  0.0287 -0.2576  0.0422
  353loPI    C1 5633  17.281   5.924   9.991  0.1915 -0.0455 -0.1049
  353loPI    C2 5634  17.065   5.904  10.327  0.0644  0.1092 -0.1758
  353loPI    C3 5635  17.367   6.165  10.299  0.0696  0.1023 -0.1847
  353loPI   PO4 5636  17.082   5.759   9.760 -0.0171 -0.1165  0.1429
  353loPI   GL1 5637  17.002   5.525   9.335 -0.1062 -0.2473  0.1713
  353loPI   GL2 5638  17.071   5.696   8.979 -0.3716 -0.1895 -0.0061
  353loPI   C1A 5639  17.254   5.209   9.066  0.0922 -0.1817 -0.0245
  353loPI   C2A 5640  17.525   5.247   8.661 -0.0096 -0.0748  0.2472
  353loPI   C3A 5641  17.615   4.867   8.416  0.1391  0.0207 -0.1601
  353loPI   C4A 5642  17.606   4.658   7.977  0.0082  0.2460  0.0070
  353loPI   C5A 5643  17.777   4.209   7.900  0.5012  0.0480 -0.1811
  353loPI   C6A 5644  17.866   3.874   7.720 -0.1583 -0.1129  0.0377
  353loPI   C1B 5645  17.007   6.042   8.599 -0.2419  0.2503 -0.2586
  353loPI   C2B 5646  17.156   6.233   8.354 -0.0389  0.1197  0.1181
  353loPI   C3B 5647  17.155   6.130   7.910 -0.0850  0.2932  0.0747
  353loPI   C4B 5648  17.150   6.054   7.472 -0.2051  0.0340  0.0443
  354loPI    C1 5649   2.266   3.972  10.766  0.0218  0.0342 -0.1806
  354loPI    C2 5650   2.165   3.704  11.045 -0.0729  0.1034 -0.1479
  354loPI    C3 5651   2.373   4.029  11.147  0.1517 -0.0191 -0.2084
  354loPI   PO4 5652   2.368   3.934  10.561  0.0485  0.1160 -0.3643
  354loPI   GL1 5653   2.408   4.063  10.172 -0.1122 -0.0338 -0.2050
  354loPI   GL2 5654   2.590   4.212   9.959 -0.3570  0.1025  0.0534
  354loPI   C1A 5655   2.229   3.961   9.781 -0.0911  0.1470  0.2801
  354loPI   C2A 5656   2.124   4.067   9.287  0.2352 -0.2468 -0.0292
  354loPI   C3A 5657   2.130   4.105   8.821  0.1563 -0.0147  0.2100
  354loPI   C4A 5658   2.169   4.047   8.370  0.0608  0.0027  0.1274
  354loPI   C5A 5659   1.920   4.018   7.956  0.1465 -0.2814 -0.2763
  354loPI   C6A 5660   1.473   3.873   7.812  0.2342  0.3063  0.1825
  354loPI   C1B 5661   2.600   4.136   9.489  0.0494  0.1506 -0.0469
  354loPI   C2B 5662   2.602   4.188   9.072  0.3917 -0.1396 -0.4446
  354loPI   C3B 5663   2.583   4.161   8.647  0.0178 -0.1845  0.0268
  354loPI   C4B 5664   2.618   4.084   8.229 -0.0140 -0.0655  0.2808
  355loPI    C1 5665   8.980   3.286  10.700 -0.1062 -0.1499  0.1070
  355loPI    C2 5666   9.205   3.235  11.027  0.1171  0.0591 -0.0109
  355loPI    C3 5667   8.877   3.463  11.044  0.0135 -0.0977  0.1165
  355loPI   PO4 5668   9.075   3.342  10.503 -0.0075  0.0796  0.2741
  355loPI   GL1 5669   9.073   3.198  10.152 -0.1276  0.1508 -0.1347
  355loPI   GL2 5670   9.410   3.307  10.112 -0.0539  0.3298  0.1389
  355loPI   C1A 5671   8.805   2.949  10.042  0.2717 -0.0676  0.0895
  355loPI   C2A 5672   8.626   2.673   9.871 -0.0191  0.1271 -0.2475
  355loPI   C3A 5673   8.636   2.694   9.424 -0.0983 -0.1560 -0.1214
  355loPI   C4A 5674   8.584   2.599   8.929  0.2173  0.0914  0.1508
  355loPI   C5A 5675   8.557   2.597   8.464 -0.1772 -0.0462  0.0566
  355loPI   C6A 5676   8.571   2.514   8.035 -0.2042 -0.2678  0.2052
  355loPI   C1B 5677   9.267   3.198   9.718  0.1728 -0.0464  0.3233
  355loPI   C2B 5678   9.268   3.122   9.262  0.1509 -0.1903 -0.3382
  355loPI   C3B 5679   9.234   3.196   8.789 -0.1723  0.0263  0.0432
  355loPI   C4B 5680   9.154   3.214   8.379  0.0171 -0.1098  0.0344
  356loPI    C1 5681   1.172  10.403  11.386 -0.0315  0.1641 -0.1175
  356loPI    C2 5682   1.555  10.321  11.467 -0.0050  0.2584 -0.1455
  356loPI    C3 5683   1.325  10.496  11.744 -0.1666 -0.2512  0.0535
  356loPI   PO4 5684   1.178  10.488  11.173  0.1867  0.0267  0.0834
  356loPI   GL1 5685   1.284  10.490  10.733  0.0176  0.0211 -0.0613
  356loPI   GL2 5686   1.312  10.722  10.489  0.0953  0.3185 -0.1108
  356loPI   C1A 5687   1.687  10.351  10.420  0.2012  0.0109  0.1313
  356loPI   C2A 5688   1.826  10.266  10.020  0.0434  0.0977 -0.0886
  356loPI   C3A 5689   1.784  10.319   9.608 -0.2321  0.0456  0.1766
  356loPI   C4A 5690   1.821  10.303   9.161  0.0531  0.0708  0.0595
  356loPI   C5A 5691   1.585  10.215   8.831 -0.1387  0.0146 -0.3218
  356loPI   C6A 5692   1.778  10.304   8.342  0.1011  0.1532 -0.0270
  356loPI   C1B 5693   1.454  10.767  10.111  0.2404 -0.2171 -0.0444
  356loPI   C2B 5694   1.579  10.736   9.727  0.1084  0.2648 -0.0443
  356loPI   C3B 5695   1.547  10.716   9.279 -0.0604  0.2201  0.0510
  356loPI   C4B 5696   1.648  10.690   8.765  0.0157  0.2028 -0.1429
  357loPI    C1 5697   8.117   7.697  10.826  0.1080  0.2586 -0.2164
  357loPI    C2 5698   8.403   7.481  11.003  0.0582  0.2454 -0.1514
  357loPI    C3 5699   8.067   7.567  11.201 -0.2178 -0.1994 -0.4089
  357loPI   PO4 5700   8.202   7.616  10.586  0.0424  0.1286  0.1048
  357loPI   GL1 5701   8.615   7.660  10.275  0.2766  0.0867 -0.0474
  357loPI   GL2 5702   8.436   7.339  10.166 -0.1709  0.0104  0.2487
  357loPI   C1A 5703   8.723   7.569   9.816 -0.3102  0.3211  0.1773
  357loPI   C2A 5704   8.695   7.698   9.388 -0.3094  0.1371 -0.2060
  357loPI   C3A 5705   8.600   7.724   9.010  0.2394 -0.1368  0.0212
  357loPI   C4A 5706   8.598   7.665   8.536 -0.1963  0.0834 -0.1476
  357loPI   C5A 5707   8.523   7.831   8.124 -0.2497 -0.1865 -0.0855
  357loPI   C6A 5708   8.761   7.823   7.820  0.1157  0.1713  0.0856
  357loPI   C1B 5709   8.311   7.352   9.674 -0.0602  0.0583  0.0325
  357loPI   C2B 5710   8.305   7.334   9.269  0.2763 -0.0483  0.1373
  357loPI   C3B 5711   8.243   7.454   8.824 -0.0038 -0.1545  0.0599
  357loPI   C4B 5712   8.204   7.378   8.305 -0.0556 -0.0346  0.0311
  358loPI    C1 5713  17.443  17.492  10.520  0.1116  0.0048  0.0494
  358loPI    C2 5714  17.698  17.751  10.686  0.2279 -0.0360 -0.0634
  358loPI    C3 5715  17.521  17.472  10.911  0.2793 -0.0043  0.0162
  358loPI   PO4 5716  17.256  17.660  10.347  0.2082  0.0159  0.0560
  358loPI   GL1 5717  17.097  17.536   9.978  0.1690  0.1381 -0.0940
  358loPI   GL2 5718  16.784  17.363   9.957  0.3304  0.3362 -0.1887
  358loPI   C1A 5719  17.086  17.574   9.606 -0.0948 -0.5199  0.1505
  358loPI   C2A 5720  17.245  17.824   9.324 -0.1172 -0.0890  0.3199
  358loPI   C3A 5721  17.419  17.877   8.829  0.0843  0.0778 -0.1459
  358loPI   C4A 5722  17.521  17.668   8.406 -0.0112  0.1680  0.0326
  358loPI   C5A 5723  17.601  17.619   7.998  0.2848  0.0859  0.0486
  358loPI   C6A 5724  17.878  17.745   7.541  0.0137  0.1173 -0.0019
  358loPI   C1B 5725  16.652  17.306   9.658  0.1246  0.0150 -0.1233
  358loPI   C2B 5726  16.733  17.170   9.268 -0.1786 -0.1208 -0.2234
  358loPI   C3B 5727  16.776  17.109   8.757  0.0356 -0.2602 -0.1146
  358loPI   C4B 5728  16.689  17.199   8.351 -0.0444  0.4400 -0.0596
  359loPI    C1 5729   5.912  15.355  10.889  0.1973  0.1014 -0.1518
  359loPI    C2 5730   5.934  15.748  10.962  0.1594  0.0804 -0.0246
  359loPI    C3 5731   6.241  15.509  11.057  0.2271  0.0944 -0.2034
  359loPI   PO4 5732   5.881  15.267  10.668  0.0893 -0.2350 -0.1897
  359loPI   GL1 5733   5.804  15.023  10.354 -0.1007 -0.0209  0.1201
  359loPI   GL2 5734   5.503  14.891  10.205  0.0814 -0.1765  0.0805
  359loPI   C1A 5735   5.859  15.086   9.905 -0.0104 -0.1435 -0.1789
  359loPI   C2A 5736   5.636  15.102   9.515  0.2337 -0.4096 -0.0022
  359loPI   C3A 5737   5.542  15.266   9.182 -0.2318 -0.1903  0.0917
  359loPI   C4A 5738   5.229  15.359   8.913  0.1533  0.0968  0.1693
  359loPI   C5A 5739   4.980  15.191   8.520  0.2981 -0.0047  0.1336
  359loPI   C6A 5740   4.961  14.812   8.351  0.2470  0.0795  0.0648
  359loPI   C1B 5741   5.330  15.146   9.862 -0.2110  0.2174 -0.1838
  359loPI   C2B 5742   5.154  15.328   9.497 -0.2588  0.0336  0.1690
  359loPI   C3B 5743   5.306  15.731   9.189  0.0116  0.2510 -0.1137
  359loPI   C4B 5744   5.495  16.096   9.037 -0.1006 -0.0236 -0.1180
  360loPI    C1 5745  17.763   1.006  10.800  0.1135 -0.0557  0.1172
  360loPI    C2 5746  17.905   0.940  11.168 -0.3003  0.1434  0.3194
  360loPI    C3 5747  17.523   1.047  11.117 -0.2847 -0.0118 -0.1815
  360loPI   PO4 5748  17.777   0.868  10.563  0.0662  0.0021 -0.0361
  360loPI   GL1 5749  17.871   0.691  10.124  0.0849 -0.2815 -0.1617
  360loPI   GL2 5750  18.094   0.601  10.165 -0.1043 -0.1239 -0.1263
  360loPI   C1A 5751  17.662   0.552   9.846 -0.1406  0.1276  0.0592
  360loPI   C2A 5752  17.646   0.521   9.374 -0.1952  0.1328 -0.1199
  360loPI   C3A 5753  17.703   0.456   8.941 -0.0744 -0.1232 -0.0520
  360loPI   C4A 5754  17.661   0.556   8.555  0.0893 -0.1430  0.1965
  360loPI   C5A 5755  17.710   0.436   8.131 -0.2736  0.3911  0.2272
  360loPI   C6A 5756  17.360   0.262   7.947 -0.1391 -0.0012  0.1350
  360loPI   C1B 5757  18.184   0.727   9.736  0.2555  0.1530 -0.2151
  360loPI   C2B 5758  18.158   0.502   9.276  0.1887  0.2258 -0.1899
  360loPI   C3B 5759  18.234   0.637   8.827  0.4442 -0.3112  0.0778
  360loPI   C4B 5760  18.281   0.528   8.318  0.2226  0.1859 -0.2255
  361loPI    C1 5761   3.685  17.173  10.891 -0.1009  0.0318 -0.3032
  361loPI    C2 5762   3.949  16.894  10.779  0.0943  0.0664  0.0560
  361loPI    C3 5763   3.968  17.051  11.146 -0.2056  0.3319 -0.0377
  361loPI   PO4 5764   3.672  17.285  10.637  0.0402  0.3519  0.3348
  361loPI   GL1 5765   3.914  17.358  10.276  0.1911  0.1856 -0.0325
  361loPI   GL2 5766   3.962  17.001  10.276  0.0232 -0.1180  0.1229
  361loPI   C1A 5767   3.701  17.652  10.017 -0.1519 -0.0430  0.0238
  361loPI   C2A 5768   3.696  17.679   9.575 -0.2702 -0.0151 -0.1716
  361loPI   C3A 5769   3.700  17.765   9.167 -0.1110  0.0546 -0.1181
  361loPI   C4A 5770   3.665  17.749   8.737 -0.0927  0.0592 -0.0072
  361loPI   C5A 5771   3.614  17.840   8.321 -0.2625  0.1276 -0.1501
  361loPI   C6A 5772   3.907  18.022   8.063 -0.0368 -0.1200 -0.0972
  361loPI   C1B 5773   4.185  16.939   9.896  0.0508 -0.2269 -0.2060
  361loPI   C2B 5774   4.318  16.980   9.471  0.1186 -0.1188  0.0522
  361loPI   C3B 5775   4.367  16.858   9.138 -0.1119 -0.2793  0.1680
  361loPI   C4B 5776   4.476  16.930   8.761 -0.0294  0.0151 -0.1478
  362loPI    C1 5777  10.310  17.397  10.824  0.1775  0.2006 -0.0273
  362loPI    C2 5778   9.957  17.357  11.009  0.1955 -0.1188 -0.0566
  362loPI    C3 5779  10.107  17.722  10.941 -0.1127  0.0187 -0.0158
  362loPI   PO4 5780  10.221  17.177  10.638  0.1205 -0.2261  0.1892
  362loPI   GL1 5781  10.056  16.864  10.309 -0.4072  0.2029  0.0597
  362loPI   GL2 5782  10.123  17.108  10.073  0.0317  0.3255 -0.3394
  362loPI   C1A 5783  10.465  16.750  10.018  0.0169  0.1526 -0.0675
  362loPI   C2A 5784  10.524  16.904   9.522 -0.1501 -0.0263  0.2794
  362loPI   C3A 5785  10.349  16.885   9.108  0.1456 -0.0517  0.0050
  362loPI   C4A 5786  10.431  16.773   8.650  0.0111  0.0447  0.4019
  362loPI   C5A 5787  10.496  16.884   8.245 -0.0748  0.0768  0.1221
  362loPI   C6A 5788  10.388  16.777   7.763 -0.0273  0.0463  0.1900
  362loPI   C1B 5789   9.938  17.560   9.909 -0.1945 -0.0025  0.1465
  362loPI   C2B 5790   9.826  17.692   9.527 -0.2124 -0.2012  0.1867
  362loPI   C3B 5791   9.696  17.637   9.066  0.0621  0.0394 -0.1329
  362loPI   C4B 5792   9.721  17.425   8.651  0.0570 -0.0025  0.2966
  363loPI    C1 5793  14.309  12.495  10.599 -0.1550 -0.0158  0.0169
  363loPI    C2 5794  14.689  12.446  10.484 -0.2057 -0.0557 -0.1356
  363loPI    C3 5795  14.561  12.282  10.825 -0.0291  0.1460  0.0302
  363loPI   PO4 5796  14.160  12.399  10.426 -0.0622 -0.0085  0.0671
  363loPI   GL1 5797  14.166  12.167  10.045 -0.0650  0.0046  0.4753
  363loPI   GL2 5798  13.966  11.988   9.908 -0.0104 -0.0150 -0.2031
  363loPI   C1A 5799  14.181  12.416   9.634 -0.1374  0.1422  0.2521
  363loPI   C2A 5800  14.303  12.481   9.209  0.0489 -0.1324  0.0810
  363loPI   C3A 5801  14.207  12.494   8.762  0.0985  0.0212 -0.0132
  363loPI   C4A 5802  14.211  12.365   8.366  0.0854 -0.0700  0.1933
  363loPI   C5A 5803  14.058  12.497   8.007  0.1578 -0.2551 -0.3267
  363loPI   C6A 5804  13.633  12.699   7.958  0.2766  0.0972 -0.0896
  363loPI   C1B 5805  13.792  12.102   9.535 -0.0250  0.0171  0.1136
  363loPI   C2B 5806  13.892  12.186   9.093 -0.0973  0.0656 -0.1064
  363loPI   C3B 5807  13.782  12.139   8.684  0.3005  0.0718 -0.1301
  363loPI   C4B 5808  13.747  12.118   8.255  0.1819 -0.1805 -0.1260
  364loPI    C1 5809  10.323   5.732  10.610 -0.1531  0.0243  0.0710
  364loPI    C2 5810  10.643   5.575  10.792 -0.1496 -0.0273  0.0207
  364loPI    C3 5811  10.381   5.794  11.001 -0.0533  0.0598  0.0510
  364loPI   PO4 5812  10.354   5.658  10.347 -0.0888  0.4150  0.0316
  364loPI   GL1 5813  10.517   5.552   9.909 -0.0886 -0.1412 -0.1103
  364loPI   GL2 5814  10.829   5.420   9.797  0.1206  0.0407  0.2639
  364loPI   C1A 5815  10.358   5.591   9.503  0.1723  0.2253 -0.1495
  364loPI   C2A 5816  10.436   5.548   9.070 -0.4404  0.0892  0.0602
  364loPI   C3A 5817  10.544   5.667   8.681  0.2262 -0.0994 -0.1873
  364loPI   C4A 5818  10.525   5.753   8.195 -0.0385  0.1057 -0.1485
  364loPI   C5A 5819  10.375   5.665   7.740 -0.1853 -0.4663  0.0660
  364loPI   C6A 5820  10.548   5.925   7.353 -0.0006 -0.2090  0.0969
  364loPI   C1B 5821  10.885   5.501   9.358  0.2578 -0.1147 -0.1879
  364loPI   C2B 5822  10.997   5.184   9.071  0.2089 -0.2710  0.1498
  364loPI   C3B 5823  11.077   4.972   8.658  0.0496 -0.0668 -0.1976
  364loPI   C4B 5824  11.098   4.931   8.206  0.1836  0.0487 -0.0933
  365loPI    C1 5825  10.579   8.579  10.633  0.2164 -0.0171 -0.0624
  365loPI    C2 5826  10.851   8.331  10.789 -0.0210 -0.0288  0.3493
  365loPI    C3 5827  10.463   8.271  10.861 -0.1285  0.0715 -0.1127
  365loPI   PO4 5828  10.676   8.820  10.640 -0.2022  0.0958 -0.3109
  365loPI   GL1 5829  10.827   8.988  10.279  0.0814 -0.1118 -0.0598
  365loPI   GL2 5830  10.835   9.241  10.249  0.0503  0.1033  0.2315
  365loPI   C1A 5831  10.800   8.844   9.868 -0.0548 -0.3166 -0.1696
  365loPI   C2A 5832  10.769   8.995   9.455  0.3802  0.0300  0.0199
  365loPI   C3A 5833  10.721   9.004   9.045  0.3030  0.2359 -0.1813
  365loPI   C4A 5834  10.778   9.093   8.612  0.0224 -0.3968  0.0618
  365loPI   C5A 5835  10.655   9.179   8.208 -0.0730 -0.0564  0.2456
  365loPI   C6A 5836  10.648   8.932   7.814 -0.1653  0.2280  0.2121
  365loPI   C1B 5837  10.686   9.334   9.857 -0.0664  0.2421 -0.1483
  365loPI   C2B 5838  10.592   9.553   9.537  0.2095 -0.0486  0.1668
  365loPI   C3B 5839  10.586   9.489   9.093  0.1422  0.4752 -0.1320
  365loPI   C4B 5840  10.619   9.572   8.705  0.0375  0.2501 -0.2419
  366loPI    C1 5841  11.368   1.899  10.046  0.1263  0.0465 -0.0598
  366loPI    C2 5842  11.335   2.194  10.313  0.0454  0.1908 -0.2271
  366loPI    C3 5843  11.131   1.854  10.364 -0.0113  0.2383 -0.1332
  366loPI   PO4 5844  11.313   2.140   9.806 -0.2775 -0.0834  0.1909
  366loPI   GL1 5845  11.212   2.346   9.462 -0.0319 -0.1266  0.0312
  366loPI   GL2 5846  11.500   2.113   9.353 -0.0467 -0.0512  0.0799
  366loPI   C1A 5847  10.920   2.323   9.120  0.0459  0.0158  0.3171
  366loPI   C2A 5848  10.759   2.132   8.861  0.2674 -0.2093  0.3166
  366loPI   C3A 5849  10.886   1.842   8.444  0.0266 -0.0441 -0.2956
  366loPI   C4A 5850  10.981   1.620   8.018  0.1579  0.3330 -0.1933
  366loPI   C5A 5851  11.151   1.479   7.725 -0.2535 -0.0207  0.2787
  366loPI   C6A 5852  11.604   1.601   7.618 -0.1814  0.0921  0.1959
  366loPI   C1B 5853  11.454   1.970   8.908 -0.0955  0.0329 -0.0155
  366loPI   C2B 5854  11.388   2.092   8.531 -0.2333  0.0345  0.1323
  366loPI   C3B 5855  11.350   2.395   8.227 -0.1563 -0.0525 -0.4543
  366loPI   C4B 5856  11.364   2.510   7.814  0.1542  0.0072  0.1293
  367loPI    C1 5857   8.299   5.215  10.540 -0.2830 -0.1334  0.0626
  367loPI    C2 5858   8.653   5.175  10.359 -0.1508 -0.0515  0.2981
  367loPI    C3 5859   8.474   4.856  10.520 -0.2046 -0.1002  0.1432
  367loPI   PO4 5860   8.139   5.325  10.449  0.1768 -0.1044  0.0295
  367loPI   GL1 5861   7.924   5.558  10.226  0.3151 -0.1239 -0.1748
  367loPI   GL2 5862   7.755   5.210  10.081 -0.1431 -0.1458  0.2008
  367loPI   C1A 5863   8.071   5.513   9.741 -0.0674  0.2675  0.0379
  367loPI   C2A 5864   8.156   5.537   9.351  0.0581  0.2142  0.1664
  367loPI   C3A 5865   8.230   5.585   8.811  0.2944  0.0310 -0.2287
  367loPI   C4A 5866   8.192   5.856   8.478  0.0001 -0.0276 -0.2989
  367loPI   C5A 5867   8.095   6.178   8.115  0.0652 -0.1363 -0.0527
  367loPI   C6A 5868   8.034   6.584   8.045 -0.2181  0.0757 -0.2199
  367loPI   C1B 5869   7.728   5.170   9.644 -0.1199  0.2524  0.2091
  367loPI   C2B 5870   7.757   5.208   9.218 -0.1902  0.1124 -0.1916
  367loPI   C3B 5871   7.721   5.304   8.797 -0.0573 -0.2214 -0.3474
  367loPI   C4B 5872   7.781   5.588   8.499 -0.2261 -0.0372 -0.2469
  368loPI    C1 5873   0.804   8.196  10.932 -0.0194 -0.0197  0.0412
  368loPI    C2 5874   0.475   8.287  10.724 -0.1510  0.0123  0.2606
  368loPI    C3 5875   0.444   8.108  11.080  0.0760 -0.1268  0.2127
  368loPI   PO4 5876   1.005   8.160  10.673 -0.0061  0.1057 -0.0634
  368loPI   GL1 5877   0.953   7.964  10.345  0.1348 -0.2531  0.0805
  368loPI   GL2 5878   0.779   7.834  10.134 -0.1547 -0.1084 -0.0818
  368loPI   C1A 5879   1.259   7.948  10.004 -0.2410 -0.0688 -0.0508
  368loPI   C2A 5880   1.237   7.982   9.621 -0.1913 -0.0364  0.2183
  368loPI   C3A 5881   1.436   8.093   9.182  0.0124  0.0743  0.1810
  368loPI   C4A 5882   1.470   8.158   8.763  0.1982  0.0301  0.0375
  368loPI   C5A 5883   1.112   8.142   8.431  0.3373  0.0765  0.2258
  368loPI   C6A 5884   0.828   8.018   8.218  0.3707 -0.1447  0.1590
  368loPI   C1B 5885   0.799   7.850   9.725 -0.0981  0.0874  0.0984
  368loPI   C2B 5886   0.840   8.011   9.305 -0.0588  0.1441 -0.0102
  368loPI   C3B 5887   0.969   8.053   8.905 -0.0611  0.1712 -0.0001
  368loPI   C4B 5888   0.658   8.136   8.643  0.2867 -0.0468 -0.0315
  369loPI    C1 5889   2.320   6.518  11.174 -0.3030  0.0186  0.1065
  369loPI    C2 5890   2.312   6.423  11.563 -0.2013 -0.0591  0.0901
  369loPI    C3 5891   2.162   6.170  11.292  0.1666 -0.2260  0.0368
  369loPI   PO4 5892   2.567   6.684  11.124 -0.0191  0.0577 -0.2949
  369loPI   GL1 5893   2.530   6.938  10.737  0.1571  0.3075  0.1719
  369loPI   GL2 5894   2.671   6.681  10.596  0.0758  0.1077  0.0733
  369loPI   C1A 5895   2.339   6.962  10.317  0.3164 -0.3415 -0.1539
  369loPI   C2A 5896   2.311   6.949   9.947 -0.1610  0.4974 -0.0237
  369loPI   C3A 5897   2.370   6.752   9.597 -0.1202  0.2744 -0.1484
  369loPI   C4A 5898   2.269   6.868   9.264  0.2763  0.0466  0.1703
  369loPI   C5A 5899   2.322   6.872   8.800  0.1407 -0.1140  0.1115
  369loPI   C6A 5900   2.367   6.977   8.358  0.2789 -0.2468  0.0263
  369loPI   C1B 5901   2.802   6.933  10.225 -0.2097  0.1255 -0.1656
  369loPI   C2B 5902   2.801   6.902   9.806  0.1102 -0.1383 -0.0042
  369loPI   C3B 5903   2.921   6.934   9.435  0.1188 -0.0066  0.0665
  369loPI   C4B 5904   2.881   6.841   9.030  0.2388 -0.1015 -0.0959
  370loPI    C1 5905   9.028   9.736  11.045 -0.0571  0.0799  0.0054
  370loPI    C2 5906   9.308   9.868  11.298  0.1147  0.0160 -0.1493
  370loPI    C3 5907   8.925   9.972  11.351  0.1556  0.0403  0.1087
  370loPI   PO4 5908   9.161   9.723  10.808 -0.1070  0.3036 -0.0417
  370loPI   GL1 5909   9.057   9.416  10.488 -0.3109  0.1466  0.0614
  370loPI   GL2 5910   9.061   9.664  10.238  0.1331  0.1471 -0.0674
  370loPI   C1A 5911   9.296   9.273  10.104 -0.1100 -0.0552  0.0491
  370loPI   C2A 5912   9.257   9.329   9.659 -0.2152 -0.0234  0.5709
  370loPI   C3A 5913   9.290   9.460   9.231 -0.0573 -0.3668 -0.1362
  370loPI   C4A 5914   9.327   9.445   8.762  0.1133  0.4615 -0.0226
  370loPI   C5A 5915   9.164   9.173   8.450  0.2873  0.1524 -0.0049
  370loPI   C6A 5916   9.131   9.060   8.017  0.0289  0.0139  0.0074
  370loPI   C1B 5917   9.128   9.892   9.873 -0.0477  0.0709 -0.1955
  370loPI   C2B 5918   9.217   9.898   9.558 -0.0827 -0.3392  0.2649
  370loPI   C3B 5919   9.146   9.900   9.062 -0.2428 -0.1705  0.0168
  370loPI   C4B 5920   9.194  10.019   8.625  0.2607 -0.1578 -0.1016
  371loPI    C1 5921  11.325   4.367   9.729  0.0104  0.0197 -0.0756
  371loPI    C2 5922  11.608   4.492   9.982  0.0887  0.1093 -0.2065
  371loPI    C3 5923  11.249   4.668   9.980  0.0354  0.0043 -0.0495
  371loPI   PO4 5924  11.490   4.316   9.496 -0.0497 -0.1597  0.1365
  371loPI   GL1 5925  11.486   4.105   9.083  0.2660  0.2145  0.0093
  371loPI   GL2 5926  11.804   4.250   9.068  0.0563 -0.0598  0.3397
  371loPI   C1A 5927  11.469   4.224   8.636  0.0252 -0.0186  0.0540
  371loPI   C2A 5928  11.534   4.586   8.376 -0.0650 -0.1459 -0.3073
  371loPI   C3A 5929  11.601   4.973   8.005 -0.2382 -0.2646 -0.2696
  371loPI   C4A 5930  11.283   5.179   7.679  0.0036 -0.2513 -0.0668
  371loPI   C5A 5931  10.839   4.993   7.734  0.2948  0.1363 -0.0276
  371loPI   C6A 5932  10.640   4.831   8.106  0.2772  0.0183 -0.5094
  371loPI   C1B 5933  11.853   4.575   8.862  0.0093  0.1859  0.0649
  371loPI   C2B 5934  12.038   4.691   8.423 -0.1050 -0.2751 -0.1226
  371loPI   C3B 5935  11.926   4.616   8.031 -0.1440 -0.1002 -0.1478
  371loPI   C4B 5936  12.152   4.615   7.652  0.0691  0.1978 -0.1602
  372loPI    C1 5937  10.480   7.567  10.448  0.0897 -0.0705  0.1400
  372loPI    C2 5938  10.102   7.436  10.455  0.0215  0.1060 -0.0928
  372loPI    C3 5939  10.229   7.695  10.732 -0.0775  0.1778 -0.1140
  372loPI   PO4 5940  10.516   7.656  10.215 -0.0707  0.0485 -0.1800
  372loPI   GL1 5941  10.374   7.971   9.858  0.0732 -0.0527 -0.3227
  372loPI   GL2 5942  10.141   8.244   9.854  0.0572 -0.1491  0.0956
  372loPI   C1A 5943  10.465   8.144   9.405  0.0278  0.1117  0.0128
  372loPI   C2A 5944  10.434   8.145   8.973 -0.0110  0.1639  0.0276
  372loPI   C3A 5945  10.493   8.260   8.580 -0.2695  0.1000 -0.2592
  372loPI   C4A 5946  10.347   8.236   8.213 -0.1362 -0.4242  0.0076
  372loPI   C5A 5947  10.344   8.542   7.789  0.2586  0.0082 -0.0305
  372loPI   C6A 5948  10.063   8.929   7.808 -0.0825  0.3323  0.0123
  372loPI   C1B 5949   9.988   8.332   9.411 -0.4187 -0.1354  0.0885
  372loPI   C2B 5950   9.914   8.283   9.071 -0.2053  0.0175  0.1832
  372loPI   C3B 5951   9.874   8.385   8.617  0.2470 -0.1322  0.1201
  372loPI   C4B 5952   9.936   8.561   8.114 -0.2333  0.1329 -0.1869
  373loPI    C1 5953  15.740   3.716  10.262 -0.1432  0.0416  0.0053
  373loPI    C2 5954  16.062   3.707  10.499 -0.0618  0.1658 -0.0991
  373loPI    C3 5955  15.767   3.442  10.552 -0.0489  0.1980  0.1465
  373loPI   PO4 5956  15.647   3.927  10.274 -0.0190 -0.3240  0.2115
  373loPI   GL1 5957  15.551   4.022   9.816 -0.2200 -0.1899 -0.1869
  373loPI   GL2 5958  15.556   3.699   9.697  0.0062 -0.2809  0.1583
  373loPI   C1A 5959  15.578   4.286   9.362  0.0214 -0.0775  0.2383
  373loPI   C2A 5960  15.869   4.641   9.222 -0.0588  0.1079 -0.2326
  373loPI   C3A 5961  15.997   4.844   8.869  0.1232 -0.0757  0.0026
  373loPI   C4A 5962  16.380   4.944   8.799 -0.1226 -0.1124  0.1086
  373loPI   C5A 5963  16.690   5.066   8.575 -0.1253 -0.0781  0.0960
  373loPI   C6A 5964  16.973   5.377   8.604  0.1288 -0.0048 -0.2898
  373loPI   C1B 5965  15.901   3.823   9.357  0.0285  0.1383 -0.0672
  373loPI   C2B 5966  16.128   3.680   9.042 -0.1635 -0.0950  0.3997
  373loPI   C3B 5967  16.550   3.587   8.713  0.1317  0.0190 -0.2426
  373loPI   C4B 5968  16.677   3.591   8.360 -0.1588  0.2625  0.4683
  374loPI    C1 5969  14.726   5.168  10.072 -0.0938 -0.0235  0.0245
  374loPI    C2 5970  14.535   5.364  10.365  0.1953 -0.0352  0.2253
  374loPI    C3 5971  14.644   4.982  10.417 -0.0960 -0.1611 -0.0496
  374loPI   PO4 5972  14.580   5.291   9.824  0.1378  0.1210 -0.3201
  374loPI   GL1 5973  14.525   5.485   9.520  0.0404  0.0499  0.0854
  374loPI   GL2 5974  14.761   5.694   9.416  0.2604 -0.2827  0.3105
  374loPI   C1A 5975  14.291   5.592   9.203  0.0794 -0.0303  0.0640
  374loPI   C2A 5976  14.319   5.545   8.729  0.0227 -0.2545 -0.4365
  374loPI   C3A 5977  14.371   5.712   8.250  0.0624  0.3187  0.2006
  374loPI   C4A 5978  14.309   5.583   7.867  0.5641 -0.0688 -0.1353
  374loPI   C5A 5979  14.253   5.435   7.427  0.3925 -0.1077  0.3228
  374loPI   C6A 5980  14.269   5.166   7.088  0.0445 -0.2625 -0.0099
  374loPI   C1B 5981  14.713   5.946   9.038  0.0574  0.1115  0.0811
  374loPI   C2B 5982  14.764   5.975   8.654  0.0588  0.0138  0.0496
  374loPI   C3B 5983  14.822   5.990   8.215  0.0744  0.1463 -0.3170
  374loPI   C4B 5984  14.708   5.844   7.893 -0.0504 -0.0824 -0.1724
  375loPI    C1 5985  14.279   8.018  10.177  0.0665 -0.1466  0.1828
  375loPI    C2 5986  14.191   8.303  10.444  0.1343 -0.0794  0.1336
  375loPI    C3 5987  14.322   7.946  10.569 -0.1410 -0.1583  0.2044
  375loPI   PO4 5988  14.351   8.156   9.985  0.0670 -0.1227 -0.1195
  375loPI   GL1 5989  14.710   8.105   9.773 -0.0859 -0.0062 -0.2492
  375loPI   GL2 5990  14.844   7.858   9.675 -0.0494  0.0909 -0.2513
  375loPI   C1A 5991  14.546   8.099   9.373  0.2624 -0.0168  0.1254
  375loPI   C2A 5992  14.438   8.077   8.838  0.1919 -0.2347 -0.3850
  375loPI   C3A 5993  14.436   8.103   8.285  0.2640 -0.1730  0.0618
  375loPI   C4A 5994  14.552   8.092   7.917  0.1275  0.1529  0.1029
  375loPI   C5A 5995  14.790   8.045   7.610  0.1535  0.0682 -0.3289
  375loPI   C6A 5996  15.164   7.768   7.498  0.0221  0.1377 -0.1718
  375loPI   C1B 5997  15.031   7.878   9.280  0.1371 -0.0725 -0.0782
  375loPI   C2B 5998  15.008   7.854   8.751 -0.2604 -0.0009  0.0599
  375loPI   C3B 5999  14.980   7.943   8.300 -0.2442 -0.0814  0.1059
  375loPI   C4B 6000  14.960   7.819   8.005 -0.1351 -0.0352 -0.2540
  376loPI    C1 6001   1.644  13.124  10.723 -0.1986 -0.1820 -0.1207
  376loPI    C2 6002   1.739  13.266  11.085  0.0017 -0.3310 -0.1137
  376loPI    C3 6003   1.628  12.884  11.043 -0.2002 -0.2655 -0.1831
  376loPI   PO4 6004   1.498  13.293  10.626 -0.0138 -0.0313  0.1267
  376loPI   GL1 6005   1.418  13.291  10.194  0.0698 -0.0807  0.0402
  376loPI   GL2 6006   1.410  12.980  10.207 -0.0897 -0.5233 -0.0320
  376loPI   C1A 6007   1.307  13.449   9.803  0.1337  0.3216 -0.2138
  376loPI   C2A 6008   1.011  13.434   9.395  0.0652 -0.2582 -0.2622
  376loPI   C3A 6009   0.815  13.429   8.964  0.1218  0.0725 -0.1763
  376loPI   C4A 6010   0.763  13.462   8.513 -0.1118 -0.0558 -0.0122
  376loPI   C5A 6011   1.025  13.641   8.217  0.1584 -0.2691 -0.0047
  376loPI   C6A 6012   1.500  13.738   8.295 -0.1162 -0.0236 -0.1530
  376loPI   C1B 6013   1.526  13.009   9.767  0.0595  0.0194 -0.3639
  376loPI   C2B 6014   1.421  13.123   9.380 -0.1125 -0.1941  0.2216
  376loPI   C3B 6015   1.264  13.167   9.013  0.1176 -0.1404 -0.2707
  376loPI   C4B 6016   1.247  13.163   8.616  0.1068  0.0338 -0.0494
  377loPI    C1 6017   0.204   4.775  10.462 -0.2032 -0.3336  0.0046
  377loPI    C2 6018   0.052   5.105  10.629  0.0934 -0.2355  0.0855
  377loPI    C3 6019   0.062   4.763  10.835 -0.0129 -0.2417  0.0809
  377loPI   PO4 6020   0.090   4.809  10.207 -0.2001  0.0438  0.0097
  377loPI   GL1 6021   0.268   4.890   9.872 -0.3578 -0.1804  0.3539
  377loPI   GL2 6022   0.522   4.986   9.886  0.0841  0.6471  0.1239
  377loPI   C1A 6023   0.335   4.777   9.408 -0.0511  0.0895  0.2365
  377loPI   C2A 6024   0.517   4.811   9.015  0.0043  0.1870  0.0695
  377loPI   C3A 6025   0.501   4.867   8.615 -0.1124  0.0749 -0.1569
  377loPI   C4A 6026   0.570   4.850   8.138 -0.0911 -0.0841  0.2241
  377loPI   C5A 6027   0.475   5.111   7.764  0.0217  0.0309  0.0768
  377loPI   C6A 6028   0.459   5.511   7.877 -0.2377  0.4234  0.4842
  377loPI   C1B 6029   0.598   5.279   9.519  0.0873 -0.0218 -0.0282
  377loPI   C2B 6030   0.619   5.270   9.128 -0.0917  0.0673  0.2756
  377loPI   C3B 6031   0.767   5.303   8.730 -0.1219 -0.2701 -0.0269
  377loPI   C4B 6032   0.711   5.331   8.319  0.0235 -0.0664 -0.6132
  378loPI    C1 6033   6.138  12.728  10.966 -0.4857 -0.0177  0.1498
  378loPI    C2 6034   6.160  12.980  11.275 -0.1021 -0.0117  0.1223
  378loPI    C3 6035   6.364  12.636  11.283 -0.0944 -0.0142 -0.1208
  378loPI   PO4 6036   6.143  12.878  10.791 -0.0256 -0.0083 -0.2366
  378loPI   GL1 6037   6.231  12.925  10.454  0.1024  0.2287 -0.1741
  378loPI   GL2 6038   6.483  12.895  10.260  0.2389 -0.0468 -0.0815
  378loPI   C1A 6039   6.114  12.829   9.973 -0.0439 -0.0565  0.0207
  378loPI   C2A 6040   6.401  12.760   9.635 -0.0990 -0.1719  0.1974
  378loPI   C3A 6041   6.504  12.706   9.187 -0.4287 -0.1357  0.2271
  378loPI   C4A 6042   6.429  12.965   8.760 -0.2955  0.1528 -0.6537
  378loPI   C5A 6043   6.351  13.344   8.484 -0.0548  0.1064 -0.4476
  378loPI   C6A 6044   6.130  13.579   8.128 -0.1579  0.0402  0.0075
  378loPI   C1B 6045   6.792  12.588   9.986  0.1755 -0.3530 -0.2603
  378loPI   C2B 6046   6.871  12.536   9.580  0.1301  0.0898  0.1924
  378loPI   C3B 6047   6.974  12.639   9.189 -0.2130 -0.0254  0.1381
  378loPI   C4B 6048   7.019  12.664   8.751 -0.2032 -0.1045 -0.0327
  379loPI    C1 6049  15.841  16.758  10.729 -0.0533  0.0879 -0.2585
  379loPI    C2 6050  15.534  16.585  10.539 -0.1387  0.1754 -0.2012
  379loPI    C3 6051  15.493  16.704  10.919  0.0490 -0.0498 -0.1085
  379loPI   PO4 6052  15.992  16.965  10.606  0.0895  0.0859 -0.2150
  379loPI   GL1 6053  15.912  16.993  10.172 -0.1168  0.0266  0.0920
  379loPI   GL2 6054  15.821  16.732  10.161  0.0768 -0.0071 -0.1428
  379loPI   C1A 6055  15.807  17.051   9.747 -0.1415 -0.0566  0.1288
  379loPI   C2A 6056  15.755  17.208   9.231 -0.2766 -0.1425  0.1561
  379loPI   C3A 6057  15.825  17.207   8.797  0.0178  0.0450  0.4594
  379loPI   C4A 6058  15.772  17.248   8.327  0.4180 -0.0642 -0.2260
  379loPI   C5A 6059  15.743  17.117   7.945 -0.0799  0.1834 -0.0417
  379loPI   C6A 6060  16.119  16.945   7.606  0.0903 -0.0767 -0.0386
  379loPI   C1B 6061  15.919  16.571   9.746  0.0916  0.0850 -0.0246
  379loPI   C2B 6062  15.884  16.643   9.349 -0.0701 -0.1632  0.1475
  379loPI   C3B 6063  15.890  16.604   8.988  0.1682  0.1160  0.1373
  379loPI   C4B 6064  15.923  16.786   8.477  0.2473 -0.0767  0.0562
  380loPI    C1 6065   3.456  12.163  10.886 -0.2445 -0.2561  0.0897
  380loPI    C2 6066   3.774  12.123  10.648 -0.4338 -0.0967 -0.1972
  380loPI    C3 6067   3.792  12.002  11.029  0.0129  0.0371 -0.1700
  380loPI   PO4 6068   3.392  12.437  10.818  0.0665  0.0538 -0.1302
  380loPI   GL1 6069   3.395  12.632  10.404 -0.1229  0.1208  0.1957
  380loPI   GL2 6070   3.787  12.626  10.474 -0.1436 -0.1817 -0.0944
  380loPI   C1A 6071   3.212  12.820   9.995 -0.2090 -0.1357 -0.2180
  380loPI   C2A 6072   3.357  13.147   9.768 -0.0395 -0.1101  0.1509
  380loPI   C3A 6073   3.465  13.167   9.342  0.3380 -0.2104 -0.1734
  380loPI   C4A 6074   3.678  13.285   9.039  0.2285  0.1073  0.0192
  380loPI   C5A 6075   3.897  13.275   8.666 -0.1250  0.3573 -0.2370
  380loPI   C6A 6076   3.826  13.373   8.298 -0.1030  0.0312  0.2032
  380loPI   C1B 6077   3.962  12.506  10.137  0.0298  0.1256  0.0722
  380loPI   C2B 6078   4.203  12.825   9.849 -0.1283 -0.0282 -0.0334
  380loPI   C3B 6079   4.408  12.921   9.381 -0.0165  0.3127 -0.2548
  380loPI   C4B 6080   4.696  13.187   9.168 -0.2423 -0.1875 -0.2843
  381loPI    C1 6081   9.214   2.392  10.827  0.0676  0.2352 -0.0613
  381loPI    C2 6082   9.304   2.731  11.019  0.3501  0.1435 -0.0277
  381loPI    C3 6083   9.426   2.379  11.166  0.0987  0.0294 -0.0871
  381loPI   PO4 6084   9.258   2.393  10.544 -0.0893  0.0604 -0.3242
  381loPI   GL1 6085   9.028   2.458  10.250 -0.1656 -0.2916 -0.0517
  381loPI   GL2 6086   9.195   2.676  10.051  0.0495  0.0510  0.0746
  381loPI   C1A 6087   8.940   2.277   9.891 -0.2512  0.2010  0.0428
  381loPI   C2A 6088   9.008   2.261   9.444  0.1667  0.0854 -0.1579
  381loPI   C3A 6089   8.977   2.241   8.997 -0.0928 -0.1400 -0.0106
  381loPI   C4A 6090   8.975   2.256   8.545  0.0628 -0.0396  0.2091
  381loPI   C5A 6091   8.949   2.231   8.121  0.1125  0.0079  0.1196
  381loPI   C6A 6092   8.983   2.417   7.740 -0.3503  0.0820  0.2497
  381loPI   C1B 6093   9.139   2.722   9.608  0.1074  0.2234  0.0094
  381loPI   C2B 6094   9.079   2.693   9.112 -0.1066 -0.2961 -0.2529
  381loPI   C3B 6095   9.110   2.703   8.676 -0.0119  0.1453 -0.2243
  381loPI   C4B 6096   9.019   2.747   8.255  0.1153  0.1930 -0.1652
  382loPI    C1 6097   4.657  14.914  10.881  0.0914 -0.1502  0.0062
  382loPI    C2 6098   4.991  15.048  11.057 -0.0104 -0.0855  0.1515
  382loPI    C3 6099   4.830  14.700  11.172 -0.1310  0.0038  0.2559
  382loPI   PO4 6100   4.741  14.983  10.654  0.1406 -0.0985  0.2576
  382loPI   GL1 6101   4.819  14.810  10.258 -0.0137 -0.0700 -0.0098
  382loPI   GL2 6102   5.015  14.965  10.151  0.0190 -0.1359  0.0068
  382loPI   C1A 6103   4.526  14.831   9.997  0.0103  0.1496 -0.1292
  382loPI   C2A 6104   4.311  14.779   9.649  0.0462  0.2529  0.0262
  382loPI   C3A 6105   4.277  14.878   9.273 -0.0381  0.0969 -0.0788
  382loPI   C4A 6106   4.073  14.949   8.946  0.0386  0.4093  0.1607
  382loPI   C5A 6107   4.045  14.899   8.474  0.1561  0.1850  0.1066
  382loPI   C6A 6108   4.200  15.027   8.023 -0.1745 -0.1705  0.3086
  382loPI   C1B 6109   4.881  14.966   9.732 -0.2927 -0.1729 -0.2221
  382loPI   C2B 6110   4.770  15.017   9.261 -0.3242  0.0581  0.0868
  382loPI   C3B 6111   4.552  15.106   8.887 -0.0866 -0.1087 -0.0092
  382loPI   C4B 6112   4.453  15.203   8.432  0.0396  0.1966  0.0427
  383loPI    C1 6113   5.272   5.011  10.757 -0.1989 -0.2029 -0.1101
  383loPI    C2 6114   5.169   4.880  11.120 -0.1533  0.0202 -0.0152
  383loPI    C3 6115   5.426   5.185  11.082 -0.1913  0.0266 -0.2337
  383loPI   PO4 6116   5.040   4.932  10.611  0.0957  0.2115 -0.0784
  383loPI   GL1 6117   4.868   4.833  10.332 -0.3172 -0.2300  0.3734
  383loPI   GL2 6118   4.548   4.995  10.440  0.2449  0.1116 -0.0193
  383loPI   C1A 6119   4.802   4.632   9.952  0.2271  0.2520  0.1187
  383loPI   C2A 6120   4.799   4.715   9.527 -0.0392 -0.1775 -0.1480
  383loPI   C3A 6121   4.922   4.803   9.122 -0.0986 -0.0500  0.3391
  383loPI   C4A 6122   5.261   4.695   8.873 -0.2423 -0.0535 -0.0993
  383loPI   C5A 6123   5.582   4.576   8.643  0.1493  0.0064 -0.2648
  383loPI   C6A 6124   5.936   4.374   8.939  0.1240 -0.2724  0.2019
  383loPI   C1B 6125   4.363   4.897  10.010  0.0152 -0.0275 -0.2435
  383loPI   C2B 6126   4.312   4.794   9.612 -0.1299  0.1558  0.0030
  383loPI   C3B 6127   4.325   4.816   9.273 -0.1395  0.2860 -0.1370
  383loPI   C4B 6128   4.453   4.685   8.892  0.0782 -0.2182  0.0867
  384loPI    C1 6129   7.203   7.498  10.711 -0.0874 -0.1678  0.3276
  384loPI    C2 6130   6.883   7.639  10.905 -0.1314  0.0244  0.1191
  384loPI    C3 6131   7.035   7.282  11.003 -0.0991  0.1551  0.5639
  384loPI   PO4 6132   7.203   7.484  10.510  0.1145 -0.1518 -0.2077
  384loPI   GL1 6133   7.033   7.645  10.184 -0.1805  0.1609  0.1270
  384loPI   GL2 6134   7.342   7.775  10.151 -0.0879 -0.1217 -0.3117
  384loPI   C1A 6135   7.106   8.036   9.837 -0.2995  0.4049  0.2830
  384loPI   C2A 6136   7.261   8.177   9.438  0.0815  0.0294 -0.0003
  384loPI   C3A 6137   7.135   8.192   9.010  0.1252 -0.0398 -0.1450
  384loPI   C4A 6138   7.139   8.256   8.573 -0.0682  0.1013 -0.4102
  384loPI   C5A 6139   7.271   8.084   8.198  0.2543  0.1810 -0.0548
  384loPI   C6A 6140   7.032   7.840   7.792 -0.2651 -0.4321 -0.0495
  384loPI   C1B 6141   7.400   7.595   9.821 -0.0832 -0.0313 -0.1890
  384loPI   C2B 6142   7.215   7.649   9.483 -0.1727 -0.0680  0.2232
  384loPI   C3B 6143   7.277   7.647   9.125  0.0979  0.4467 -0.0236
  384loPI   C4B 6144   7.167   7.744   8.665 -0.1736  0.4098 -0.1995
  385loPI    C1 6145   5.054   3.929  11.037  0.3104  0.1887 -0.0393
  385loPI    C2 6146   4.741   3.973  11.282  0.3079  0.2094 -0.0464
  385loPI    C3 6147   4.933   3.623  11.263  0.1961  0.1530 -0.1478
  385loPI   PO4 6148   4.962   3.954  10.814 -0.0379  0.1087 -0.2381
  385loPI   GL1 6149   4.908   4.037  10.320  0.1315 -0.1645 -0.2134
  385loPI   GL2 6150   4.776   3.755  10.165 -0.1836 -0.0112  0.0152
  385loPI   C1A 6151   4.757   4.111   9.831 -0.1162  0.1128  0.1835
  385loPI   C2A 6152   4.601   4.047   9.436 -0.0380 -0.0635  0.1151
  385loPI   C3A 6153   4.661   3.837   9.115  0.1828  0.2693 -0.0789
  385loPI   C4A 6154   4.833   3.853   8.628  0.1997 -0.0694  0.1501
  385loPI   C5A 6155   5.120   4.086   8.318  0.1737  0.0027  0.1069
  385loPI   C6A 6156   5.230   4.509   8.361 -0.0746  0.2929  0.3499
  385loPI   C1B 6157   5.075   3.649   9.809 -0.0511 -0.1451  0.0014
  385loPI   C2B 6158   5.127   3.858   9.425 -0.0102  0.0620 -0.2065
  385loPI   C3B 6159   5.286   3.702   8.995 -0.2226  0.0843  0.0250
  385loPI   C4B 6160   5.385   3.752   8.497 -0.0929 -0.3800 -0.1412
  386loPI    C1 6161  16.676   6.339   9.800 -0.1266 -0.1726  0.0177
  386loPI    C2 6162  16.771   6.335  10.189  0.1093 -0.0455 -0.0368
  386loPI    C3 6163  16.715   5.991   9.993 -0.1307 -0.1076  0.1366
  386loPI   PO4 6164  16.502   6.432   9.644  0.2432  0.0351 -0.2583
  386loPI   GL1 6165  16.488   6.680   9.318 -0.2165  0.0193 -0.0722
  386loPI   GL2 6166  16.854   6.629   9.367 -0.1784  0.1159 -0.1371
  386loPI   C1A 6167  16.534   6.744   8.977  0.1545  0.1819  0.1732
  386loPI   C2A 6168  16.512   6.815   8.595  0.0004 -0.1021  0.0137
  386loPI   C3A 6169  16.425   6.748   8.217  0.1265 -0.1425  0.2579
  386loPI   C4A 6170  16.399   6.774   7.809  0.0221 -0.0261  0.0135
  386loPI   C5A 6171  16.314   7.029   7.501 -0.3043  0.1911 -0.0547
  386loPI   C6A 6172  16.287   7.459   7.501  0.0842  0.0954  0.1199
  386loPI   C1B 6173  16.856   7.001   9.138  0.2540  0.2212 -0.1363
  386loPI   C2B 6174  16.906   7.155   8.708  0.2459  0.0571  0.2509
  386loPI   C3B 6175  16.852   7.141   8.331 -0.0032  0.0803  0.0878
  386loPI   C4B 6176  17.089   7.319   7.970  0.0610 -0.0230  0.0958
  387loPI    C1 6177  10.538  13.645  10.926 -0.0254  0.0679  0.2043
  387loPI    C2 6178  10.253  13.471  11.145 -0.0898  0.3442  0.3450
  387loPI    C3 6179  10.613  13.540  11.304  0.0473  0.0318  0.1801
  387loPI   PO4 6180  10.460  13.601  10.662 -0.2886  0.1413  0.2076
  387loPI   GL1 6181  10.428  13.301  10.311  0.1320 -0.0081 -0.0737
  387loPI   GL2 6182  10.708  13.425  10.262 -0.1499  0.2016 -0.0814
  387loPI   C1A 6183  10.093  13.208  10.028 -0.2905  0.2051 -0.2117
  387loPI   C2A 6184   9.973  13.181   9.605  0.2694  0.1971  0.0302
  387loPI   C3A 6185   9.979  13.169   9.233  0.1698  0.2957  0.1907
  387loPI   C4A 6186   9.765  13.081   8.838 -0.2386  0.1440 -0.0015
  387loPI   C5A 6187  10.019  13.012   8.431  0.1601  0.0697 -0.1347
  387loPI   C6A 6188  10.396  12.855   8.282  0.3270  0.1276 -0.3953
  387loPI   C1B 6189  10.793  13.361   9.806  0.0210  0.3160  0.0124
  387loPI   C2B 6190  10.880  13.243   9.379  0.0999 -0.3497  0.0291
  387loPI   C3B 6191  10.933  13.224   8.899 -0.0706 -0.3599 -0.2481
  387loPI   C4B 6192  10.960  13.304   8.544  0.0699 -0.2375  0.1525
  388loPI    C1 6193  10.634   2.561  10.351 -0.2523 -0.2533  0.0378
  388loPI    C2 6194  10.674   2.611  10.746  0.1122 -0.2437  0.0029
  388loPI    C3 6195  10.886   2.329  10.557  0.1772 -0.0395 -0.2337
  388loPI   PO4 6196  10.324   2.606  10.314 -0.1379  0.1565  0.3198
  388loPI   GL1 6197  10.147   2.684   9.938 -0.1649  0.4655 -0.3207
  388loPI   GL2 6198  10.166   3.011   9.840 -0.0339  0.1078  0.0801
  388loPI   C1A 6199   9.983   2.436   9.632  0.0112  0.0649 -0.0637
  388loPI   C2A 6200   9.895   2.365   9.109 -0.0459 -0.0605  0.2583
  388loPI   C3A 6201   9.932   2.374   8.655 -0.0257 -0.1291  0.0307
  388loPI   C4A 6202   9.848   2.482   8.193  0.0125 -0.2956  0.0816
  388loPI   C5A 6203   9.594   2.760   7.880  0.0311  0.1347  0.1895
  388loPI   C6A 6204   9.347   2.711   7.496  0.4178  0.0570 -0.2956
  388loPI   C1B 6205  10.139   2.847   9.350 -0.0434 -0.1057  0.0555
  388loPI   C2B 6206  10.131   2.901   8.884 -0.0212 -0.1476 -0.2606
  388loPI   C3B 6207  10.158   2.904   8.385 -0.1893  0.0219  0.0627
  388loPI   C4B 6208  10.059   3.074   8.076 -0.0628 -0.0570  0.0899
  389loPI    C1 6209  17.778  16.941  10.630  0.3801 -0.1491  0.2095
  389loPI    C2 6210  17.834  16.569  10.492 -0.2572 -0.0605 -0.3381
  389loPI    C3 6211  17.566  16.637  10.782  0.1386 -0.0685  0.0398
  389loPI   PO4 6212  17.822  17.155  10.474 -0.3360  0.0017 -0.0636
  389loPI   GL1 6213  17.525  17.219  10.119 -0.0444  0.0050 -0.1296
  389loPI   GL2 6214  17.571  16.925  10.097 -0.0021 -0.1204 -0.1184
  389loPI   C1A 6215  17.581  17.470   9.797 -0.2804 -0.2261  0.2091
  389loPI   C2A 6216  17.486  17.424   9.337  0.1944 -0.0231  0.0732
  389loPI   C3A 6217  17.094  17.390   9.053  0.1214  0.1333 -0.1006
  389loPI   C4A 6218  16.828  17.613   8.986  0.1128 -0.3543  0.1413
  389loPI   C5A 6219  16.593  17.715   9.348  0.2914  0.1321 -0.0995
  389loPI   C6A 6220  16.131  17.865   9.461  0.0170 -0.1270 -0.1427
  389loPI   C1B 6221  17.651  16.996   9.648  0.1356  0.2781  0.4768
  389loPI   C2B 6222  17.677  16.894   9.256  0.1566 -0.2376 -0.0220
  389loPI   C3B 6223  17.703  16.979   8.868 -0.1152 -0.2422 -0.0970
  389loPI   C4B 6224  17.552  17.295   8.739  0.2585  0.0799  0.2712
  390loPI    C1 6225  10.193   3.213  10.291 -0.3276 -0.0210  0.0101
  390loPI    C2 6226   9.962   2.974  10.512 -0.0716 -0.2280  0.0584
  390loPI    C3 6227  10.350   3.013  10.599 -0.1230  0.2629  0.0942
  390loPI   PO4 6228   9.971   3.329  10.191  0.0556 -0.0915 -0.2922
  390loPI   GL1 6229   9.833   3.363   9.781  0.2999 -0.4718 -0.0655
  390loPI   GL2 6230   9.711   3.607   9.781  0.1075 -0.1681 -0.1986
  390loPI   C1A 6231   9.865   3.231   9.383 -0.0301  0.2888 -0.1793
  390loPI   C2A 6232   9.857   3.280   9.004 -0.0705 -0.3165 -0.2314
  390loPI   C3A 6233   9.944   3.335   8.609 -0.0739  0.1458 -0.2121
  390loPI   C4A 6234   9.931   3.650   8.163 -0.0115  0.1236 -0.0214
  390loPI   C5A 6235   9.696   4.011   8.044  0.2531 -0.0639 -0.1278
  390loPI   C6A 6236   9.484   4.143   7.650  0.1162 -0.1616  0.0752
  390loPI   C1B 6237   9.589   3.624   9.379 -0.1092  0.2101  0.2676
  390loPI   C2B 6238   9.513   3.672   8.860  0.0226  0.0649 -0.1756
  390loPI   C3B 6239   9.516   3.495   8.473 -0.4139  0.1312 -0.2162
  390loPI   C4B 6240   9.612   3.330   8.056 -0.3046 -0.0753 -0.1366
  391loPI    C1 6241   2.404   5.227  11.038 -0.0640 -0.1185  0.0815
  391loPI    C2 6242   2.391   5.409  11.394 -0.0885 -0.0744  0.0580
  391loPI    C3 6243   2.297   5.022  11.365 -0.2971 -0.0257  0.0656
  391loPI   PO4 6244   2.190   5.314  10.901  0.2470  0.0516 -0.0163
  391loPI   GL1 6245   2.024   5.159  10.486 -0.0096  0.1426 -0.3991
  391loPI   GL2 6246   1.943   4.900  10.198  0.1285  0.1012  0.3017
  391loPI   C1A 6247   2.211   5.322  10.072 -0.0980 -0.1142  0.0518
  391loPI   C2A 6248   2.136   5.418   9.593  0.0168  0.1668  0.0687
  391loPI   C3A 6249   2.228   5.448   9.157 -0.0414 -0.1565 -0.3956
  391loPI   C4A 6250   2.266   5.465   8.693  0.2382 -0.3742  0.0153
  391loPI   C5A 6251   2.372   5.637   8.289 -0.0470  0.2265  0.0991
  391loPI   C6A 6252   2.420   5.835   7.912 -0.5580 -0.1163  0.0746
  391loPI   C1B 6253   2.000   4.974   9.828 -0.2171 -0.0177 -0.0378
  391loPI   C2B 6254   1.994   4.964   9.376  0.0273 -0.2958  0.1269
  391loPI   C3B 6255   1.981   4.962   8.923 -0.0748  0.0917 -0.1389
  391loPI   C4B 6256   2.042   4.991   8.400 -0.0465  0.0318  0.2580
  392loPI    C1 6257  12.607   1.642  10.616  0.1003 -0.2241  0.2549
  392loPI    C2 6258  12.468   2.006  10.708  0.1221 -0.1143 -0.1278
  392loPI    C3 6259  12.821   1.885  10.851  0.1348  0.0312 -0.0338
  392loPI   PO4 6260  12.630   1.650  10.391  0.1596  0.0283  0.2731
  392loPI   GL1 6261  12.453   1.529  10.057  0.2400  0.3591  0.0797
  392loPI   GL2 6262  12.314   1.656   9.860  0.0961 -0.1877  0.0392
  392loPI   C1A 6263  12.693   1.138   9.857  0.0278 -0.2834 -0.0867
  392loPI   C2A 6264  12.689   1.011   9.485  0.0680  0.0233 -0.1427
  392loPI   C3A 6265  12.713   1.017   9.012  0.0597 -0.1567 -0.0770
  392loPI   C4A 6266  12.703   0.983   8.587 -0.0103 -0.0890  0.4024
  392loPI   C5A 6267  12.775   1.095   8.174  0.6002 -0.1635  0.0391
  392loPI   C6A 6268  13.108   1.206   7.932 -0.2099  0.0425 -0.1637
  392loPI   C1B 6269  12.642   1.545   9.511  0.1043 -0.1547  0.0821
  392loPI   C2B 6270  13.023   1.377   9.253 -0.2697  0.0289 -0.3468
  392loPI   C3B 6271  13.246   1.298   8.883  0.2237  0.0828  0.0825
  392loPI   C4B 6272  13.340   1.529   8.534 -0.4362 -0.2883 -0.0603
  393loPI    C1 6273   0.719   0.153  10.601 -0.0087  0.1639  0.0857
  393loPI    C2 6274   0.452   0.389  10.781  0.0155  0.0070  0.3313
  393loPI    C3 6275   0.620   0.087  10.983  0.2263 -0.0214  0.1170
  393loPI   PO4 6276   0.612   0.201  10.280 -0.1244  0.2241 -0.4034
  393loPI   GL1 6277   0.546   0.118   9.805  0.0576 -0.1953  0.0791
  393loPI   GL2 6278   0.646  -0.222   9.978 -0.0050  0.0279 -0.1904
  393loPI   C1A 6279   0.625   0.103   9.405  0.3211  0.2467 -0.0045
  393loPI   C2A 6280   0.712   0.283   8.935 -0.0283 -0.1327  0.1856
  393loPI   C3A 6281   0.806   0.172   8.471 -0.0338  0.1304 -0.0528
  393loPI   C4A 6282   1.174   0.211   8.211  0.0970 -0.1580  0.0582
  393loPI   C5A 6283   1.246   0.309   7.775  0.2160 -0.1734  0.1579
  393loPI   C6A 6284   1.362   0.124   7.428 -0.0889 -0.1354 -0.2976
  393loPI   C1B 6285   0.458  -0.347   9.568  0.1645 -0.3047  0.1319
  393loPI   C2B 6286   0.442  -0.280   9.122  0.0148 -0.2532 -0.0950
  393loPI   C3B 6287   0.525  -0.146   8.776  0.0273 -0.0455  0.0289
  393loPI   C4B 6288   0.341   0.066   8.311 -0.0151  0.1549  0.0306
  394loPI    C1 6289   9.759  18.159  10.519  0.1385  0.1862  0.0116
  394loPI    C2 6290   9.979  18.164  10.854 -0.0558  0.1994  0.1403
  394loPI    C3 6291   9.674  17.907  10.818 -0.0252  0.1862 -0.0343
  394loPI   PO4 6292   9.943  18.166  10.364  0.0852 -0.1571 -0.0346
  394loPI   GL1 6293  10.067  18.078  10.030 -0.1740  0.0621 -0.4528
  394loPI   GL2 6294  10.349  17.987  10.079 -0.0029  0.2779  0.1292
  394loPI   C1A 6295   9.973  18.165   9.559  0.2227 -0.2427 -0.0960
  394loPI   C2A 6296   9.921  18.032   9.116 -0.4779 -0.1200 -0.1550
  394loPI   C3A 6297   9.940  17.974   8.755  0.2450  0.0588  0.6311
  394loPI   C4A 6298   9.948  17.774   8.390 -0.1607  0.2227  0.0165
  394loPI   C5A 6299   9.981  17.625   8.032  0.0124 -0.1290  0.0422
  394loPI   C6A 6300  10.243  17.232   7.944  0.3422  0.1517 -0.0296
  394loPI   C1B 6301  10.375  17.941   9.658  0.0439  0.3299 -0.2178
  394loPI   C2B 6302  10.309  17.782   9.224 -0.3576  0.1261 -0.1518
  394loPI   C3B 6303  10.227  17.552   8.877 -0.1468  0.1718  0.2182
  394loPI   C4B 6304  10.291  17.371   8.495 -0.1943 -0.0701  0.1417
  395loPI    C1 6305   7.764   2.893  10.474 -0.0707 -0.0146 -0.0525
  395loPI    C2 6306   7.880   2.627  10.749  0.0694  0.0415 -0.0562
  395loPI    C3 6307   7.604   2.901  10.840 -0.0435 -0.0766 -0.0391
  395loPI   PO4 6308   7.718   2.746  10.281  0.0052 -0.2387 -0.1300
  395loPI   GL1 6309   7.625   2.562  10.039  0.1201  0.0703 -0.1369
  395loPI   GL2 6310   7.716   2.193  10.014 -0.0208 -0.0409  0.0866
  395loPI   C1A 6311   7.579   2.432   9.602  0.4411 -0.1002  0.2310
  395loPI   C2A 6312   7.606   2.471   9.251  0.0364 -0.0578 -0.1698
  395loPI   C3A 6313   7.625   2.460   8.768 -0.4674  0.1399 -0.1777
  395loPI   C4A 6314   7.582   2.454   8.303  0.1242 -0.2089 -0.1086
  395loPI   C5A 6315   7.598   2.758   7.907  0.0388 -0.0393  0.0086
  395loPI   C6A 6316   7.711   2.866   7.458  0.1882  0.1282 -0.1925
  395loPI   C1B 6317   7.942   2.073   9.678 -0.3790  0.3375 -0.2933
  395loPI   C2B 6318   7.891   2.061   9.260  0.0121  0.1835  0.0428
  395loPI   C3B 6319   7.888   2.049   8.874 -0.1989  0.2589  0.3040
  395loPI   C4B 6320   7.995   2.067   8.408 -0.1845  0.2374 -0.2565
  396loPI    C1 6321   0.454   3.242  10.407 -0.3627  0.2056 -0.3247
  396loPI    C2 6322   0.208   3.049  10.656 -0.0494  0.0505 -0.1288
  396loPI    C3 6323   0.341   2.867  10.325  0.1019 -0.0068 -0.0377
  396loPI   PO4 6324   0.376   3.440  10.280 -0.1353  0.1573  0.0142
  396loPI   GL1 6325   0.555   3.586  10.012  0.1221 -0.1759 -0.3182
  396loPI   GL2 6326   0.674   3.898  10.137 -0.1854 -0.3157 -0.0406
  396loPI   C1A 6327   0.477   3.473   9.553  0.1936 -0.1960  0.1606
  396loPI   C2A 6328   0.365   3.419   9.095 -0.2317  0.4132  0.1071
  396loPI   C3A 6329   0.567   3.452   8.663 -0.1368  0.0934 -0.0720
  396loPI   C4A 6330   0.814   3.550   8.249 -0.0635 -0.3176 -0.0927
  396loPI   C5A 6331   0.909   3.593   7.844 -0.1034  0.0923  0.1093
  396loPI   C6A 6332   1.171   3.666   7.445 -0.2272  0.1964 -0.0029
  396loPI   C1B 6333   0.871   3.854   9.666 -0.1859 -0.2078  0.0833
  396loPI   C2B 6334   1.077   3.957   9.269 -0.1494 -0.0400  0.0247
  396loPI   C3B 6335   1.092   4.025   8.834 -0.0408 -0.0526 -0.1278
  396loPI   C4B 6336   0.932   4.038   8.476 -0.0398 -0.0646 -0.1852
  397loPI    C1 6337  18.219   7.768  10.741 -0.1052 -0.0669  0.0092
  397loPI    C2 6338  18.504   7.634  10.988 -0.0066  0.1687  0.0260
  397loPI    C3 6339  18.183   7.821  11.136 -0.2310 -0.2002  0.0161
  397loPI   PO4 6340  18.362   7.858  10.525 -0.1309 -0.0025 -0.0849
  397loPI   GL1 6341  18.586   8.151  10.311  0.0496  0.1424 -0.1442
  397loPI   GL2 6342  18.519   7.931  10.021  0.1151  0.4034 -0.1074
  397loPI   C1A 6343  18.864   8.263   9.939  0.1780  0.0898  0.0806
  397loPI   C2A 6344  18.938   8.340   9.522  0.1369  0.1815  0.0377
  397loPI   C3A 6345  18.937   8.472   9.100 -0.2380  0.1446 -0.2601
  397loPI   C4A 6346  18.821   8.709   8.717 -0.2237  0.2861 -0.0493
  397loPI   C5A 6347  18.902   8.797   8.299  0.3324  0.0597  0.3251
  397loPI   C6A 6348  18.823   8.885   7.838 -0.0581  0.0928 -0.1846
  397loPI   C1B 6349  18.652   7.873   9.547  0.1034  0.1112  0.0740
  397loPI   C2B 6350  18.702   8.019   9.206  0.1625  0.0478  0.1611
  397loPI   C3B 6351  18.559   7.919   8.750  0.0697 -0.1232 -0.1953
  397loPI   C4B 6352  18.673   7.786   8.310 -0.2843  0.0478 -0.0615
  398loPI    C1 6353  16.158   7.205  10.027 -0.0158  0.1135 -0.1321
  398loPI    C2 6354  16.071   7.550  10.210 -0.2746  0.0199 -0.0740
  398loPI    C3 6355  16.221   7.244  10.420 -0.0983  0.0771 -0.1149
  398loPI   PO4 6356  16.330   7.296   9.873 -0.2948  0.3143  0.3695
  398loPI   GL1 6357  16.208   7.711   9.708 -0.0146  0.0839  0.2633
  398loPI   GL2 6358  16.516   7.726   9.636  0.2833  0.1280 -0.1895
  398loPI   C1A 6359  15.853   7.910   9.390 -0.2210  0.1269 -0.1163
  398loPI   C2A 6360  15.896   8.003   8.986 -0.2116  0.0419  0.1910
  398loPI   C3A 6361  15.839   8.008   8.534  0.1810  0.0441  0.1551
  398loPI   C4A 6362  15.820   7.979   8.046  0.2713  0.0569 -0.1455
  398loPI   C5A 6363  15.615   8.136   7.660  0.4195  0.0038 -0.0908
  398loPI   C6A 6364  15.646   8.391   7.235 -0.1059  0.1653  0.0591
  398loPI   C1B 6365  16.335   7.731   9.183 -0.0820  0.0395  0.1050
  398loPI   C2B 6366  16.315   7.851   8.801  0.1933 -0.2347 -0.0726
  398loPI   C3B 6367  16.313   7.790   8.456 -0.0664 -0.1114  0.0936
  398loPI   C4B 6368  16.308   7.741   8.083  0.3920  0.1034 -0.2475
  399loPI    C1 6369   2.331   2.651  10.832  0.1664  0.0837 -0.1478
  399loPI    C2 6370   2.393   2.404  11.141  0.0183  0.1436 -0.0690
  399loPI    C3 6371   2.353   2.797  11.204  0.1588  0.1775 -0.1839
  399loPI   PO4 6372   2.537   2.500  10.675 -0.0039  0.2238 -0.2098
  399loPI   GL1 6373   2.539   2.496  10.234  0.0813  0.0947  0.0705
  399loPI   GL2 6374   2.344   2.617  10.029  0.2664 -0.0307 -0.0208
  399loPI   C1A 6375   2.803   2.346   9.825 -0.0860  0.3814  0.1785
  399loPI   C2A 6376   2.887   2.404   9.398 -0.1526  0.4689 -0.1939
  399loPI   C3A 6377   2.892   2.432   8.900 -0.2775 -0.1598 -0.1529
  399loPI   C4A 6378   3.036   2.444   8.536 -0.1319 -0.0866 -0.0160
  399loPI   C5A 6379   3.119   2.510   8.098  0.0738  0.1533  0.3081
  399loPI   C6A 6380   3.177   2.564   7.638 -0.1304  0.0171  0.1988
  399loPI   C1B 6381   2.457   2.656   9.625 -0.0765 -0.0499  0.0199
  399loPI   C2B 6382   2.534   2.740   9.191 -0.1301 -0.2580  0.1664
  399loPI   C3B 6383   2.628   2.811   8.687  0.0665 -0.1145 -0.1061
  399loPI   C4B 6384   2.714   2.722   8.309 -0.1299 -0.2042  0.1527
  400loPI    C1 6385  18.072  13.352  10.860  0.1154 -0.3295  0.0355
  400loPI    C2 6386  18.065  13.653  11.124  0.0329 -0.1809 -0.1339
  400loPI    C3 6387  18.243  13.308  11.219  0.2062 -0.0485  0.0296
  400loPI   PO4 6388  18.130  13.350  10.600  0.1911  0.2169 -0.1030
  400loPI   GL1 6389  18.450  13.368  10.417 -0.2237  0.0200 -0.3882
  400loPI   GL2 6390  18.179  13.317  10.124  0.0615 -0.0487  0.1140
  400loPI   C1A 6391  18.697  13.206  10.083  0.0555 -0.1839 -0.0197
  400loPI   C2A 6392  18.807  12.939   9.674 -0.0173  0.0969 -0.0369
  400loPI   C3A 6393  18.806  12.555   9.307  0.1207  0.3101  0.0589
  400loPI   C4A 6394  18.804  12.641   8.894 -0.4026  0.1029  0.0305
  400loPI   C5A 6395  18.785  12.532   8.532  0.0589  0.1019  0.0929
  400loPI   C6A 6396  18.966  12.573   8.166  0.0729  0.2051 -0.3152
  400loPI   C1B 6397  18.242  13.272   9.711 -0.0077 -0.0223  0.0054
  400loPI   C2B 6398  18.265  13.309   9.287 -0.2872 -0.2760  0.0252
  400loPI   C3B 6399  18.211  13.273   8.856  0.1589 -0.3105  0.0937
  400loPI   C4B 6400  18.176  13.157   8.364 -0.0331  0.0851 -0.1709
  401loPI    C1 6401  16.191   6.011   9.923  0.0682 -0.0726  0.0533
  401loPI    C2 6402  16.289   6.358  10.095 -0.0259 -0.0016 -0.0349
  401loPI    C3 6403  16.335   6.016  10.296  0.0421  0.0639  0.0622
  401loPI   PO4 6404  16.258   5.993   9.734  0.0615 -0.2606  0.1399
  401loPI   GL1 6405  16.463   5.962   9.278 -0.0401  0.1541  0.1826
  401loPI   GL2 6406  16.702   5.943   9.500 -0.3946  0.2784  0.0148
  401loPI   C1A 6407  16.510   6.201   8.915 -0.0287  0.2563  0.0103
  401loPI   C2A 6408  16.554   6.266   8.478 -0.3700  0.0870 -0.0496
  401loPI   C3A 6409  16.692   6.261   8.082  0.0514 -0.3651 -0.5511
  401loPI   C4A 6410  16.676   6.367   7.705 -0.0272 -0.3434 -0.1729
  401loPI   C5A 6411  17.046   6.508   7.581  0.0801  0.1772  0.0181
  401loPI   C6A 6412  17.421   6.552   7.866  0.0902 -0.1876 -0.0590
  401loPI   C1B 6413  16.945   6.155   9.170 -0.0810 -0.3570 -0.0398
  401loPI   C2B 6414  16.969   6.503   8.840 -0.0147  0.3279  0.2804
  401loPI   C3B 6415  16.931   6.648   8.429  0.0985 -0.1627 -0.1889
  401loPI   C4B 6416  16.927   6.808   7.993  0.0471 -0.3372 -0.1756
  402loPI    C1 6417  16.721   4.637  10.064  0.0636 -0.0230 -0.0699
  402loPI    C2 6418  16.588   5.004   9.976  0.0860 -0.0185 -0.0853
  402loPI    C3 6419  16.482   4.830  10.320  0.0959  0.0126 -0.0665
  402loPI   PO4 6420  16.939   4.615   9.912 -0.1419  0.1378 -0.1219
  402loPI   GL1 6421  17.025   4.621   9.555  0.1486  0.0666 -0.1307
  402loPI   GL2 6422  16.648   4.634   9.519  0.1992 -0.1818 -0.1788
  402loPI   C1A 6423  17.252   4.523   9.239 -0.0215 -0.1922  0.2671
  402loPI   C2A 6424  17.340   4.736   8.889  0.0826  0.0821 -0.4502
  402loPI   C3A 6425  17.109   4.821   8.490  0.1794  0.0586 -0.0692
  402loPI   C4A 6426  17.103   5.023   8.183 -0.0515 -0.4026  0.1044
  402loPI   C5A 6427  17.461   5.193   7.984  0.2648 -0.1365  0.1016
  402loPI   C6A 6428  17.960   5.031   7.957  0.0661 -0.1586  0.0936
  402loPI   C1B 6429  16.368   4.573   9.103  0.3564 -0.5000 -0.0199
  402loPI   C2B 6430  16.419   4.492   8.678 -0.0954 -0.1409 -0.2393
  402loPI   C3B 6431  16.498   4.469   8.301  0.3112  0.1512  0.1927
  402loPI   C4B 6432  16.950   4.517   8.121  0.1693  0.1694 -0.1646
  403loPI    C1 6433  11.645  18.185  10.576  0.0945  0.1051  0.0233
  403loPI    C2 6434  11.979  18.085  10.773  0.0573 -0.0619  0.0028
  403loPI    C3 6435  11.688  18.285  10.961  0.1084 -0.0414  0.0602
  403loPI   PO4 6436  11.592  17.975  10.439  0.3440 -0.0553  0.3290
  403loPI   GL1 6437  11.455  17.888  10.069 -0.1997 -0.1014 -0.0608
  403loPI   GL2 6438  11.223  18.130   9.988 -0.0024 -0.1576 -0.1332
  403loPI   C1A 6439  11.654  17.796   9.591  0.3605  0.1708 -0.0186
  403loPI   C2A 6440  11.736  17.801   9.209 -0.0294 -0.1386 -0.0471
  403loPI   C3A 6441  11.677  17.862   8.834 -0.1293 -0.0213  0.3167
  403loPI   C4A 6442  11.443  17.762   8.549 -0.1338 -0.1325 -0.1334
  403loPI   C5A 6443  11.211  17.790   8.261 -0.2315  0.0280  0.1268
  403loPI   C6A 6444  11.020  17.841   7.854 -0.0724  0.2827  0.1417
  403loPI   C1B 6445  11.151  18.004   9.533 -0.2119 -0.4803  0.0702
  403loPI   C2B 6446  11.110  18.069   9.121 -0.2298 -0.1978 -0.0014
  403loPI   C3B 6447  10.915  18.143   8.715  0.2049  0.0413  0.0995
  403loPI   C4B 6448  10.890  18.159   8.257 -0.4478  0.0824 -0.1071
  404loPI    C1 6449  14.103   9.346  10.388  0.1836 -0.2283  0.2717
  404loPI    C2 6450  13.886   9.160  10.668 -0.1549 -0.1471  0.0684
  404loPI    C3 6451  13.922   9.559  10.674 -0.1560 -0.1458  0.0019
  404loPI   PO4 6452  13.996   9.258  10.130 -0.0611 -0.0318 -0.0229
  404loPI   GL1 6453  13.638   9.327   9.838  0.2835  0.1818 -0.0747
  404loPI   GL2 6454  13.682   8.988   9.851 -0.3165  0.1457  0.2747
  404loPI   C1A 6455  13.665   9.296   9.435 -0.0709 -0.0182  0.1765
  404loPI   C2A 6456  13.839   9.233   9.011  0.1036  0.0511 -0.0648
  404loPI   C3A 6457  13.803   9.254   8.576  0.3701  0.1300 -0.0595
  404loPI   C4A 6458  13.815   9.220   8.105  0.2478 -0.2704  0.0527
  404loPI   C5A 6459  13.717   9.145   7.633 -0.2936 -0.1125  0.0529
  404loPI   C6A 6460  13.959   9.005   7.276  0.1805  0.2287  0.0981
  404loPI   C1B 6461  13.417   8.877   9.571  0.2222  0.1673 -0.1991
  404loPI   C2B 6462  13.427   8.969   9.078  0.1828 -0.0747  0.0691
  404loPI   C3B 6463  13.385   8.919   8.638 -0.2270  0.0245  0.0291
  404loPI   C4B 6464  13.441   8.942   8.221 -0.3499 -0.0790 -0.3041
  405loPI    C1 6465   5.142  12.614  10.865  0.2631 -0.0590 -0.0363
  405loPI    C2 6466   5.239  12.881  10.583 -0.0837  0.1979  0.0795
  405loPI    C3 6467   5.207  12.996  10.964 -0.0562 -0.0516  0.1593
  405loPI   PO4 6468   5.212  12.401  10.750  0.0760  0.2448 -0.1378
  405loPI   GL1 6469   5.363  12.329  10.376  0.4706 -0.0276  0.1385
  405loPI   GL2 6470   5.458  12.111  10.178  0.3256 -0.3021  0.1200
  405loPI   C1A 6471   5.329  12.612  10.074 -0.0690  0.2813  0.0756
  405loPI   C2A 6472   5.193  12.570   9.666  0.0139  0.1872  0.0441
  405loPI   C3A 6473   5.203  12.356   9.325 -0.0752 -0.0764 -0.5191
  405loPI   C4A 6474   4.932  12.304   8.912  0.2180  0.1831  0.2948
  405loPI   C5A 6475   4.970  12.298   8.437 -0.3093  0.1941 -0.5198
  405loPI   C6A 6476   4.981  12.368   8.024 -0.2860  0.0249 -0.0094
  405loPI   C1B 6477   5.492  12.182   9.696  0.2214 -0.0797 -0.1100
  405loPI   C2B 6478   5.717  12.133   9.382 -0.0854 -0.0344  0.2399
  405loPI   C3B 6479   5.756  12.123   8.934  0.0900 -0.3131 -0.1262
  405loPI   C4B 6480   5.527  12.210   8.660 -0.1696 -0.3202  0.3579
  406loPI    C1 6481   9.858  10.776  11.130  0.2006 -0.1671 -0.0653
  406loPI    C2 6482   9.639  11.105  11.193  0.1263 -0.2295  0.0059
  406loPI    C3 6483  10.038  11.129  11.184  0.1198 -0.1297 -0.0369
  406loPI   PO4 6484   9.770  10.563  10.932 -0.0583 -0.3158 -0.0030
  406loPI   GL1 6485   9.602  10.445  10.523  0.4128 -0.1366 -0.0400
  406loPI   GL2 6486   9.473  10.799  10.461  0.0018 -0.1358 -0.0782
  406loPI   C1A 6487   9.845  10.201  10.183  0.0296  0.4841 -0.0245
  406loPI   C2A 6488   9.986  10.086   9.692  0.4241 -0.2527 -0.1396
  406loPI   C3A 6489  10.060  10.169   9.279  0.0815 -0.0225  0.0861
  406loPI   C4A 6490  10.064  10.216   8.813  0.1124  0.2242  0.0500
  406loPI   C5A 6491  10.040  10.329   8.381  0.0601 -0.2640  0.2151
  406loPI   C6A 6492  10.192  10.523   7.971  0.2392 -0.3149  0.0492
  406loPI   C1B 6493   9.395  10.753  10.075 -0.0232 -0.1293 -0.0298
  406loPI   C2B 6494   9.372  10.749   9.632  0.0288 -0.1418  0.1275
  406loPI   C3B 6495   9.365  10.739   9.221  0.0290 -0.2551  0.0384
  406loPI   C4B 6496   9.382  10.895   8.805  0.3696 -0.0394 -0.0201
  407loPI    C1 6497   5.962   5.231  10.816 -0.2448  0.1205  0.3045
  407loPI    C2 6498   6.024   5.022  11.151 -0.0979  0.3029  0.3932
  407loPI    C3 6499   6.261   5.331  11.061  0.2243 -0.0872 -0.1630
  407loPI   PO4 6500   5.772   5.136  10.744  0.1878 -0.1004  0.0053
  407loPI   GL1 6501   5.588   5.114  10.362  0.0610 -0.1545  0.0728
  407loPI   GL2 6502   5.393   5.001  10.234  0.0649 -0.1804 -0.3132
  407loPI   C1A 6503   5.566   5.218   9.845  0.2288  0.1876  0.2368
  407loPI   C2A 6504   5.592   5.337   9.410 -0.0146  0.5008  0.1763
  407loPI   C3A 6505   5.703   5.415   9.072  0.1497  0.0602  0.4361
  407loPI   C4A 6506   5.614   5.514   8.662 -0.1157  0.1880 -0.1958
  407loPI   C5A 6507   5.155   5.593   8.521 -0.2991 -0.1401 -0.0015
  407loPI   C6A 6508   4.881   5.346   8.499  0.1079 -0.1307  0.1787
  407loPI   C1B 6509   5.191   4.850   9.801 -0.1643  0.2675  0.1362
  407loPI   C2B 6510   5.354   4.806   9.352  0.0538  0.2856  0.0346
  407loPI   C3B 6511   5.722   4.787   9.098  0.0303 -0.1961  0.1863
  407loPI   C4B 6512   6.015   4.992   9.063  0.1038  0.0329  0.1353
  408loPI    C1 6513  14.789  10.262  10.115  0.1151 -0.2567 -0.0875
  408loPI    C2 6514  14.813  10.032  10.442 -0.0668  0.0255  0.1301
  408loPI    C3 6515  15.147  10.170  10.269  0.0340 -0.2047  0.1364
  408loPI   PO4 6516  14.489  10.276  10.073 -0.3421 -0.3949 -0.1268
  408loPI   GL1 6517  14.483  10.436   9.663 -0.1191  0.1067  0.0640
  408loPI   GL2 6518  14.122  10.549   9.552 -0.2874 -0.2729 -0.1631
  408loPI   C1A 6519  14.485  10.407   9.258  0.3542  0.0547  0.1384
  408loPI   C2A 6520  14.322  10.272   8.794  0.0038 -0.2077  0.0853
  408loPI   C3A 6521  14.191  10.064   8.513 -0.4469  0.2763 -0.0764
  408loPI   C4A 6522  14.090   9.963   8.118  0.2904  0.0355  0.0101
  408loPI   C5A 6523  13.855   9.849   7.787  0.1624  0.0063  0.2233
  408loPI   C6A 6524  13.521   9.661   7.494  0.0783  0.1052 -0.2636
  408loPI   C1B 6525  13.970  10.539   9.148 -0.3305  0.1267  0.1212
  408loPI   C2B 6526  14.003  10.626   8.662 -0.0352 -0.2121  0.0091
  408loPI   C3B 6527  14.046  10.514   8.222  0.1569 -0.2171  0.0868
  408loPI   C4B 6528  13.963  10.473   7.759 -0.0006  0.0209  0.1864
  409loPI    C1 6529  16.649   8.309  10.459  0.0339 -0.3831 -0.0804
  409loPI    C2 6530  16.589   8.575  10.167  0.1771 -0.0400  0.1958
  409loPI    C3 6531  16.295   8.493  10.425  0.2664  0.1733  0.3674
  409loPI   PO4 6532  16.782   8.104  10.307 -0.1149 -0.1891  0.1221
  409loPI   GL1 6533  16.887   7.898   9.912 -0.2768 -0.0953 -0.0515
  409loPI   GL2 6534  16.824   8.282   9.842  0.2705  0.0478 -0.0869
  409loPI   C1A 6535  17.226   7.988   9.591  0.1831  0.2334  0.3412
  409loPI   C2A 6536  17.237   8.035   9.149  0.0570  0.2936 -0.0275
  409loPI   C3A 6537  17.298   7.993   8.741  0.1494  0.2418 -0.1395
  409loPI   C4A 6538  17.256   7.922   8.298 -0.2098  0.2322  0.0347
  409loPI   C5A 6539  17.170   7.841   7.877 -0.1231  0.0239 -0.0149
  409loPI   C6A 6540  17.187   7.486   7.497 -0.1292  0.1648 -0.1694
  409loPI   C1B 6541  16.748   8.148   9.409  0.0580 -0.1192 -0.0776
  409loPI   C2B 6542  16.712   8.101   8.980  0.2428  0.0528  0.1333
  409loPI   C3B 6543  16.800   8.165   8.579 -0.3199  0.1267 -0.1267
  409loPI   C4B 6544  16.684   8.051   8.178 -0.0268 -0.2194  0.0197
  410loPI    C1 6545   4.720   3.270  10.993  0.1228 -0.1597  0.0629
  410loPI    C2 6546   4.533   2.922  10.931  0.2123 -0.2280  0.1717
  410loPI    C3 6547   4.320   3.252  11.006  0.1259 -0.2520  0.0353
  410loPI   PO4 6548   4.922   3.311  10.830 -0.0451 -0.0100  0.3852
  410loPI   GL1 6549   4.907   3.219  10.434  0.0038 -0.3501  0.3756
  410loPI   GL2 6550   4.639   2.959  10.416 -0.1246 -0.2585  0.1789
  410loPI   C1A 6551   4.797   3.261  10.036 -0.2905 -0.3748 -0.0685
  410loPI   C2A 6552   4.957   3.165   9.729  0.0882  0.1005  0.3073
  410loPI   C3A 6553   5.271   2.887   9.475 -0.0087  0.0548  0.3371
  410loPI   C4A 6554   5.353   2.878   9.043  0.2145 -0.1086  0.1403
  410loPI   C5A 6555   5.509   2.939   8.624  0.0460  0.0060  0.0528
  410loPI   C6A 6556   5.443   2.758   8.194 -0.1793 -0.0368  0.1659
  410loPI   C1B 6557   4.780   2.654  10.058 -0.0019  0.0679  0.1447
  410loPI   C2B 6558   4.814   2.712   9.591  0.0221 -0.1307  0.1794
  410loPI   C3B 6559   4.852   2.776   9.154 -0.2294 -0.2011 -0.1718
  410loPI   C4B 6560   4.937   2.845   8.679  0.1626  0.2835 -0.2204
  411loPI    C1 6561   6.604  16.650  10.081 -0.2867 -0.1126  0.0703
  411loPI    C2 6562   6.980  16.543  10.168 -0.1642  0.2043 -0.0569
  411loPI    C3 6563   6.735  16.667  10.459 -0.0862  0.2509 -0.0109
  411loPI   PO4 6564   6.536  16.551   9.860  0.2642  0.0998 -0.0415
  411loPI   GL1 6565   6.636  16.470   9.464  0.1376 -0.2266  0.2593
  411loPI   GL2 6566   6.987  16.494   9.645  0.0664 -0.0719 -0.1326
  411loPI   C1A 6567   6.601  16.899   9.176 -0.0484 -0.1415 -0.0032
  411loPI   C2A 6568   6.605  16.851   8.708  0.1209  0.1000 -0.4088
  411loPI   C3A 6569   6.585  16.526   8.333  0.1048  0.1067 -0.3581
  411loPI   C4A 6570   6.725  16.101   8.244 -0.1216  0.4296 -0.0247
  411loPI   C5A 6571   7.073  15.745   8.085 -0.0791  0.0351 -0.1855
  411loPI   C6A 6572   6.961  15.240   8.042  0.1091  0.3917  0.1148
  411loPI   C1B 6573   7.083  16.330   9.244  0.1901 -0.2455  0.1084
  411loPI   C2B 6574   7.351  16.137   9.005  0.0973 -0.0111  0.3382
  411loPI   C3B 6575   7.439  15.774   9.211  0.0503  0.1249 -0.1157
  411loPI   C4B 6576   7.515  15.735   9.579 -0.3128  0.1219  0.1087
  412loPI    C1 6577  14.803   8.179  10.253 -0.0627 -0.1154 -0.2170
  412loPI    C2 6578  15.053   7.872  10.304  0.2148  0.1500  0.0662
  412loPI    C3 6579  14.822   7.994  10.607  0.1051  0.2213 -0.0452
  412loPI   PO4 6580  14.919   8.364  10.192  0.1474 -0.1330 -0.1379
  412loPI   GL1 6581  14.859   8.598   9.797  0.0454 -0.3330 -0.0669
  412loPI   GL2 6582  14.865   8.859   9.783  0.0982  0.0304  0.3932
  412loPI   C1A 6583  14.926   8.383   9.440 -0.2419 -0.0389 -0.1667
  412loPI   C2A 6584  14.857   8.276   8.986  0.3564 -0.0595 -0.1788
  412loPI   C3A 6585  14.810   8.313   8.542 -0.0147  0.0271 -0.0239
  412loPI   C4A 6586  14.846   8.428   8.054  0.0087  0.3819  0.1337
  412loPI   C5A 6587  14.616   8.490   7.647 -0.2598  0.0710 -0.1829
  412loPI   C6A 6588  14.782   8.341   7.243 -0.1659  0.2766 -0.0486
  412loPI   C1B 6589  14.659   8.847   9.425 -0.1673 -0.3298 -0.1197
  412loPI   C2B 6590  14.713   8.843   8.910  0.2330  0.1630  0.0536
  412loPI   C3B 6591  14.757   8.808   8.390  0.0946  0.0546  0.1364
  412loPI   C4B 6592  14.728   8.919   7.914  0.0698 -0.0168 -0.0895
  413loPI    C1 6593  12.943  15.795  11.137  0.0695 -0.0278  0.1459
  413loPI    C2 6594  12.766  15.635  11.459  0.0807  0.2413  0.2886
  413loPI    C3 6595  12.710  16.021  11.370 -0.1533  0.1038 -0.1971
  413loPI   PO4 6596  12.725  15.617  10.897  0.0491 -0.0012 -0.1178
  413loPI   GL1 6597  12.775  15.823  10.524 -0.0622  0.0828  0.3937
  413loPI   GL2 6598  13.029  15.907  10.302  0.0415  0.1544  0.0422
  413loPI   C1A 6599  12.491  15.605  10.225  0.1606  0.0028  0.0681
  413loPI   C2A 6600  12.396  15.633   9.825 -0.1875  0.2350 -0.1933
  413loPI   C3A 6601  12.371  15.663   9.367  0.2338  0.3829  0.3310
  413loPI   C4A 6602  12.438  15.632   8.976  0.2906  0.2016 -0.0792
  413loPI   C5A 6603  12.474  15.456   8.561  0.0783 -0.0841  0.3560
  413loPI   C6A 6604  12.092  15.517   8.256  0.1308 -0.1346 -0.2460
  413loPI   C1B 6605  12.830  15.877  10.002  0.2596  0.0025  0.0891
  413loPI   C2B 6606  12.933  15.907   9.590  0.0931 -0.2944 -0.0444
  413loPI   C3B 6607  12.792  15.964   9.172 -0.1341  0.1297  0.1150
  413loPI   C4B 6608  12.835  15.843   8.768 -0.0088 -0.2364 -0.0674
  414loPI    C1 6609   7.478  12.081  10.817 -0.1380 -0.3696  0.0379
  414loPI    C2 6610   7.638  11.856  11.106  0.1031 -0.0012  0.1998
  414loPI    C3 6611   7.516  12.228  11.187 -0.0352  0.0273 -0.1250
  414loPI   PO4 6612   7.596  12.067  10.634  0.0221  0.3555  0.0012
  414loPI   GL1 6613   7.861  11.825  10.269 -0.0449 -0.2346  0.2736
  414loPI   GL2 6614   8.217  11.839  10.230 -0.1971  0.2319 -0.0921
  414loPI   C1A 6615   7.824  11.718   9.842 -0.2422 -0.1731 -0.0508
  414loPI   C2A 6616   7.902  11.743   9.488  0.0287  0.1152 -0.0101
  414loPI   C3A 6617   7.968  11.730   9.096 -0.0108 -0.4352  0.1254
  414loPI   C4A 6618   8.017  11.742   8.684 -0.4563  0.0844 -0.3369
  414loPI   C5A 6619   7.878  11.838   8.298 -0.0887  0.0293 -0.1122
  414loPI   C6A 6620   7.818  12.028   7.922  0.2787  0.2489  0.1611
  414loPI   C1B 6621   8.259  12.080   9.847  0.1480  0.5186  0.0201
  414loPI   C2B 6622   8.303  12.046   9.370 -0.0385 -0.2466  0.0026
  414loPI   C3B 6623   8.304  12.046   8.979 -0.0501  0.0026  0.1706
  414loPI   C4B 6624   8.481  11.956   8.568 -0.2204 -0.1913  0.0509
  415loPI    C1 6625  16.666   0.181  10.274 -0.2683  0.1446  0.2078
  415loPI    C2 6626  17.023   0.174  10.454 -0.0963  0.3362 -0.1176
  415loPI    C3 6627  16.699   0.291  10.657  0.0329  0.2103  0.1654
  415loPI   PO4 6628  16.501  -0.051  10.100  0.2525 -0.2684 -0.2770
  415loPI   GL1 6629  16.502   0.032   9.657  0.0555 -0.0253 -0.3807
  415loPI   GL2 6630  16.669   0.238   9.607 -0.0128  0.3062 -0.0271
  415loPI   C1A 6631  16.555  -0.121   9.234  0.5053  0.0037 -0.0408
  415loPI   C2A 6632  16.385  -0.376   8.978 -0.2793  0.2294  0.0473
  415loPI   C3A 6633  16.062  -0.384   8.591 -0.2616 -0.2231  0.1966
  415loPI   C4A 6634  16.024  -0.249   8.120  0.1415 -0.0317 -0.2663
  415loPI   C5A 6635  15.864  -0.005   7.813  0.0848  0.0618 -0.0958
  415loPI   C6A 6636  16.123  -0.049   7.419 -0.0083  0.1238  0.0138
  415loPI   C1B 6637  16.731   0.426   9.245  0.0003 -0.1922  0.0223
  415loPI   C2B 6638  16.696   0.231   8.795  0.3530 -0.0773 -0.1392
  415loPI   C3B 6639  16.999   0.108   8.415 -0.1586 -0.1587  0.1927
  415loPI   C4B 6640  17.225  -0.286   8.279  0.1216 -0.0631 -0.0566
  416loPI    C1 6641   5.388   0.492  10.859  0.1027  0.0625 -0.0986
  416loPI    C2 6642   5.770   0.598  10.804  0.1285  0.1550  0.2411
  416loPI    C3 6643   5.646   0.474  11.164 -0.1107 -0.0975  0.0756
  416loPI   PO4 6644   5.362   0.492  10.458  0.2634  0.1931 -0.2364
  416loPI   GL1 6645   5.473   0.517   9.986  0.1975 -0.0155 -0.1039
  416loPI   GL2 6646   5.429   0.186  10.046 -0.0521  0.1760  0.1655
  416loPI   C1A 6647   5.632   0.692   9.657  0.3729  0.3217  0.0040
  416loPI   C2A 6648   5.624   0.679   9.237 -0.0674  0.0916  0.1322
  416loPI   C3A 6649   5.628   0.657   8.818 -0.0048  0.4261  0.1686
  416loPI   C4A 6650   5.704   0.615   8.463  0.3245  0.3376 -0.0476
  416loPI   C5A 6651   5.644   0.546   8.057 -0.1100  0.0718 -0.1147
  416loPI   C6A 6652   5.459   0.182   7.864  0.1581  0.1664 -0.0660
  416loPI   C1B 6653   5.449   0.214   9.581  0.1478 -0.5354 -0.1207
  416loPI   C2B 6654   5.441   0.242   9.120  0.2671 -0.2714 -0.1289
  416loPI   C3B 6655   5.399   0.188   8.623  0.3282  0.0740 -0.0456
  416loPI   C4B 6656   5.192   0.247   8.246  0.0299  0.1300  0.0822
  417loPI    C1 6657   5.789  10.504  11.213 -0.2350  0.0008  0.0050
  417loPI    C2 6658   5.819  10.311  11.562  0.1513 -0.0093 -0.0303
  417loPI    C3 6659   5.839  10.711  11.552 -0.2216  0.0131 -0.0045
  417loPI   PO4 6660   5.971  10.384  11.063  0.0656  0.0563  0.2983
  417loPI   GL1 6661   5.976  10.285  10.654 -0.0339 -0.2698  0.2486
  417loPI   GL2 6662   6.204  10.470  10.424  0.2507  0.0585  0.2214
  417loPI   C1A 6663   5.873  10.008  10.350 -0.1467  0.0420 -0.1601
  417loPI   C2A 6664   5.818   9.977   9.967 -0.2284  0.0589 -0.1719
  417loPI   C3A 6665   5.855  10.034   9.503 -0.1750  0.0193 -0.2753
  417loPI   C4A 6666   5.950  10.042   9.085  0.0273 -0.2745  0.0301
  417loPI   C5A 6667   5.986  10.135   8.669  0.2721 -0.2395 -0.0923
  417loPI   C6A 6668   6.141  10.197   8.302  0.0390 -0.2411 -0.0300
  417loPI   C1B 6669   6.234  10.289   9.972  0.1469  0.3622 -0.3678
  417loPI   C2B 6670   6.221  10.386   9.505 -0.1248 -0.1066 -0.0059
  417loPI   C3B 6671   6.386  10.389   9.135 -0.3144  0.1180  0.0569
  417loPI   C4B 6672   6.384  10.458   8.749 -0.2021  0.0242 -0.2188
  418loPI    C1 6673   2.790   4.362  11.058 -0.1058 -0.0931 -0.0960
  418loPI    C2 6674   2.553   4.657  11.187  0.1147  0.1504 -0.2387
  418loPI    C3 6675   2.688   4.383  11.444 -0.0532  0.1999 -0.0957
  418loPI   PO4 6676   3.066   4.494  10.967  0.1309 -0.0653 -0.0421
  418loPI   GL1 6677   3.175   4.501  10.463 -0.1663 -0.0237 -0.3694
  418loPI   GL2 6678   3.369   4.268  10.358  0.1786  0.0237  0.0200
  418loPI   C1A 6679   3.236   4.639   9.990 -0.1705  0.0592  0.1478
  418loPI   C2A 6680   3.301   4.696   9.537 -0.3034 -0.1390  0.0822
  418loPI   C3A 6681   3.294   4.710   9.004 -0.0350  0.1525 -0.0915
  418loPI   C4A 6682   3.301   4.648   8.530 -0.2540  0.1681 -0.0528
  418loPI   C5A 6683   3.516   4.676   8.219  0.2429 -0.2414 -0.0172
  418loPI   C6A 6684   3.769   4.808   7.868  0.1773 -0.1105  0.3393
  418loPI   C1B 6685   3.548   4.268   9.980  0.0932 -0.1692 -0.1026
  418loPI   C2B 6686   3.669   4.356   9.537  0.1652  0.2570 -0.2484
  418loPI   C3B 6687   3.592   4.348   9.207 -0.0999 -0.1683 -0.1838
  418loPI   C4B 6688   3.612   4.353   8.837 -0.1278 -0.0563  0.0061
  419loPI    C1 6689   2.735  10.589  11.148 -0.3459 -0.0847  0.1661
  419loPI    C2 6690   2.790  10.853  11.444 -0.2812 -0.2120  0.2685
  419loPI    C3 6691   2.826  10.461  11.515 -0.1143 -0.2369  0.0576
  419loPI   PO4 6692   2.448  10.594  11.090  0.0663 -0.1945  0.1079
  419loPI   GL1 6693   2.014  10.588  10.790 -0.0758  0.1457  0.0306
  419loPI   GL2 6694   1.795  10.868  10.512 -0.0747 -0.1013 -0.0889
  419loPI   C1A 6695   2.148  10.325  10.404 -0.2415  0.1409 -0.0990
  419loPI   C2A 6696   2.301  10.363   9.991 -0.1313 -0.0155 -0.1691
  419loPI   C3A 6697   2.323  10.435   9.588  0.0232 -0.1649 -0.1184
  419loPI   C4A 6698   2.364  10.489   9.203 -0.1092 -0.1158  0.2110
  419loPI   C5A 6699   2.506  10.798   8.933 -0.1017  0.1696 -0.0986
  419loPI   C6A 6700   2.700  10.901   8.501 -0.0147 -0.1136 -0.0771
  419loPI   C1B 6701   2.032  10.773  10.018  0.0014 -0.2551  0.1449
  419loPI   C2B 6702   2.019  10.833   9.616  0.0671  0.1719  0.2073
  419loPI   C3B 6703   2.003  10.873   9.110 -0.1066  0.0307  0.2092
  419loPI   C4B 6704   2.054  10.978   8.714 -0.1896 -0.0571  0.0101
  420loPI    C1 6705  13.400   1.238  10.523 -0.0225  0.1126  0.1404
  420loPI    C2 6706  13.603   1.253  10.867  0.2644  0.0955 -0.0252
  420loPI    C3 6707  13.611   1.565  10.617  0.0895  0.0921 -0.0362
  420loPI   PO4 6708  13.288   0.994  10.514 -0.3178 -0.2783 -0.0330
  420loPI   GL1 6709  13.136   0.840  10.132 -0.1717 -0.0884  0.4006
  420loPI   GL2 6710  13.520   0.996  10.015 -0.3442 -0.1220  0.0001
  420loPI   C1A 6711  12.912   0.621   9.782 -0.1731 -0.1997 -0.0287
  420loPI   C2A 6712  12.888   0.368   9.381  0.3257  0.3066 -0.0222
  420loPI   C3A 6713  12.819   0.530   9.021  0.0077  0.0493 -0.0575
  420loPI   C4A 6714  12.841   0.506   8.619 -0.2234  0.1094  0.2702
  420loPI   C5A 6715  12.645   0.352   8.248  0.3305  0.0137  0.0295
  420loPI   C6A 6716  12.431   0.652   8.071 -0.0715 -0.0236  0.0877
  420loPI   C1B 6717  13.398   0.787   9.596  0.1896  0.0222  0.0578
  420loPI   C2B 6718  13.210   0.839   9.219 -0.0642 -0.3138  0.0660
  420loPI   C3B 6719  13.190   0.820   8.772 -0.1400 -0.0952 -0.1065
  420loPI   C4B 6720  13.147   1.033   8.460  0.0716 -0.0568  0.2443
  421loPI    C1 6721  10.771   4.671   9.618 -0.0057 -0.1376  0.0810
  421loPI    C2 6722  11.043   4.584   9.339  0.1369 -0.0573  0.1935
  421loPI    C3 6723  11.035   4.949   9.503 -0.2052  0.0234  0.0061
  421loPI   PO4 6724  10.793   4.443   9.807 -0.1759  0.1219 -0.1316
  421loPI   GL1 6725  10.916   4.047   9.633  0.0164  0.0678 -0.0582
  421loPI   GL2 6726  11.195   3.908   9.516  0.0678 -0.2057  0.0334
  421loPI   C1A 6727  10.862   4.148   9.198 -0.0744  0.3535 -0.0901
  421loPI   C2A 6728  11.015   4.403   8.829 -0.0435 -0.0415  0.1720
  421loPI   C3A 6729  11.081   4.298   8.357 -0.1082  0.0385 -0.0725
  421loPI   C4A 6730  11.167   4.472   8.039  0.1913  0.2874  0.1021
  421loPI   C5A 6731  11.457   4.576   7.738 -0.1380  0.0276  0.2688
  421loPI   C6A 6732  11.760   4.457   7.385  0.4329  0.0282  0.1351
  421loPI   C1B 6733  11.162   3.755   9.094  0.1649  0.1545 -0.2393
  421loPI   C2B 6734  11.061   3.892   8.660  0.0400 -0.2185 -0.0244
  421loPI   C3B 6735  11.144   3.834   8.160  0.3988 -0.0503 -0.0283
  421loPI   C4B 6736  11.260   3.509   7.842 -0.0868 -0.3285  0.2200
  422loPI    C1 6737  18.167   1.936  10.610  0.2522 -0.0342 -0.1673
  422loPI    C2 6738  17.991   1.579  10.651  0.1699  0.0006 -0.2152
  422loPI    C3 6739  18.172   1.750  10.964 -0.0249  0.0392 -0.1227
  422loPI   PO4 6740  17.997   2.127  10.509 -0.0861 -0.3266 -0.1173
  422loPI   GL1 6741  17.976   2.218  10.018  0.2831 -0.2678 -0.0168
  422loPI   GL2 6742  18.238   2.092  10.036  0.0059  0.0164  0.0238
  422loPI   C1A 6743  18.155   2.337   9.569  0.0626 -0.2403 -0.2347
  422loPI   C2A 6744  18.248   2.405   9.218  0.0219  0.1524  0.0238
  422loPI   C3A 6745  18.341   2.520   8.844  0.0280 -0.1343  0.0165
  422loPI   C4A 6746  18.538   2.398   8.485 -0.0640 -0.1090  0.0036
  422loPI   C5A 6747  18.532   2.332   8.079  0.0349 -0.0825 -0.3705
  422loPI   C6A 6748  18.670   2.626   7.785 -0.2035 -0.0626  0.2231
  422loPI   C1B 6749  18.117   1.851   9.672 -0.0154  0.0132  0.2794
  422loPI   C2B 6750  18.036   1.965   9.219 -0.0040 -0.1707  0.2677
  422loPI   C3B 6751  18.226   2.043   8.788 -0.3372 -0.2213 -0.0024
  422loPI   C4B 6752  18.261   1.964   8.384  0.3793  0.3739 -0.0632
  423loPI    C1 6753  17.400   5.045  10.152 -0.0649 -0.0326  0.1014
  423loPI    C2 6754  17.025   5.030  10.290 -0.0786 -0.1270  0.0545
  423loPI    C3 6755  17.194   5.383  10.209 -0.2292 -0.0934 -0.1189
  423loPI   PO4 6756  17.366   4.859   9.959  0.0153  0.2063 -0.0315
  423loPI   GL1 6757  17.581   4.677   9.601  0.0017 -0.1230  0.3430
  423loPI   GL2 6758  17.464   5.006   9.494  0.0886  0.0895 -0.0949
  423loPI   C1A 6759  17.792   4.596   9.179  0.1959 -0.0921 -0.4440
  423loPI   C2A 6760  17.653   4.339   8.890  0.1664  0.1316  0.0476
  423loPI   C3A 6761  17.544   4.260   8.518  0.0252  0.0905  0.1337
  423loPI   C4A 6762  17.304   4.128   8.050  0.0222 -0.0462 -0.1542
  423loPI   C5A 6763  17.351   4.058   7.653  0.2605 -0.0485 -0.2271
  423loPI   C6A 6764  17.498   4.124   7.203 -0.0773  0.0113 -0.4187
  423loPI   C1B 6765  17.732   5.123   9.162  0.0985 -0.1358 -0.1902
  423loPI   C2B 6766  17.995   5.185   8.817 -0.0423  0.1216  0.1109
  423loPI   C3B 6767  18.022   5.274   8.383 -0.1977  0.1582 -0.3417
  423loPI   C4B 6768  17.851   5.526   8.070 -0.2564  0.4102 -0.2191
  424loPI    C1 6769   6.434  17.119  10.490  0.0898  0.1063  0.0522
  424loPI    C2 6770   6.207  16.810  10.378 -0.0205  0.2014  0.0120
  424loPI    C3 6771   6.043  17.116  10.576  0.0735  0.2677 -0.0123
  424loPI   PO4 6772   6.619  17.120  10.283 -0.1719 -0.0426 -0.0367
  424loPI   GL1 6773   6.571  17.272   9.989  0.3030  0.2537 -0.2868
  424loPI   GL2 6774   6.381  17.385   9.780 -0.0763 -0.1624  0.1662
  424loPI   C1A 6775   6.871  17.438   9.721 -0.2298 -0.5136 -0.2341
  424loPI   C2A 6776   6.812  17.384   9.303 -0.0195  0.1855 -0.0677
  424loPI   C3A 6777   6.865  17.328   8.872  0.1897 -0.1294 -0.0572
  424loPI   C4A 6778   6.999  17.425   8.462 -0.1121 -0.0772 -0.2711
  424loPI   C5A 6779   7.028  17.297   8.041 -0.4151  0.3939  0.0369
  424loPI   C6A 6780   6.995  17.048   7.777 -0.0778  0.0038  0.1004
  424loPI   C1B 6781   6.336  17.278   9.333 -0.1260 -0.0484 -0.1769
  424loPI   C2B 6782   6.368  17.330   8.952 -0.0420  0.0900  0.1177
  424loPI   C3B 6783   6.437  17.316   8.515  0.0510  0.1087 -0.0092
  424loPI   C4B 6784   6.352  17.539   8.153  0.0743  0.0659 -0.3698
  425loPI    C1 6785   1.099   8.959  10.960 -0.1029 -0.0472 -0.1317
  425loPI    C2 6786   1.371   8.805  10.712  0.1194 -0.2461  0.2267
  425loPI    C3 6787   1.156   8.564  10.947 -0.3279 -0.0856 -0.0070
  425loPI   PO4 6788   0.979   9.140  10.829  0.1258 -0.3186  0.1955
  425loPI   GL1 6789   0.900   9.235  10.444  0.1772  0.4517  0.0469
  425loPI   GL2 6790   1.099   9.434  10.413  0.1176  0.2136  0.0041
  425loPI   C1A 6791   0.891   9.268  10.012  0.0480  0.0533 -0.3700
  425loPI   C2A 6792   0.978   9.291   9.598 -0.0361 -0.2518 -0.0185
  425loPI   C3A 6793   0.835   9.469   9.144 -0.3184  0.1384 -0.2027
  425loPI   C4A 6794   0.860   9.525   8.771 -0.0793 -0.3845 -0.0485
  425loPI   C5A 6795   0.731   9.713   8.352 -0.0558 -0.3057  0.1385
  425loPI   C6A 6796   0.588   9.313   8.059  0.1515  0.0373  0.2913
  425loPI   C1B 6797   1.157   9.726   9.950  0.2978  0.0052  0.1951
  425loPI   C2B 6798   1.191   9.744   9.531  0.2895 -0.0654  0.1128
  425loPI   C3B 6799   1.186   9.840   9.077 -0.0646  0.2700 -0.1397
  425loPI   C4B 6800   1.205   9.946   8.645 -0.1153  0.0015  0.1802
  426loPI    C1 6801   9.321  10.804  10.948 -0.0674  0.1384 -0.0235
  426loPI    C2 6802   9.113  10.952  11.256 -0.1793 -0.1208  0.0278
  426loPI    C3 6803   9.410  10.692  11.322 -0.0848 -0.0389 -0.0716
  426loPI   PO4 6804   9.076  10.718  10.795 -0.1202 -0.0367  0.0396
  426loPI   GL1 6805   8.880  10.593  10.504  0.0486  0.2084  0.0644
  426loPI   GL2 6806   8.957  10.946  10.256 -0.0581 -0.0478  0.0924
  426loPI   C1A 6807   9.042  10.437  10.055 -0.1302  0.0565 -0.0894
  426loPI   C2A 6808   9.024  10.403   9.646  0.1765  0.0130  0.0928
  426loPI   C3A 6809   9.034  10.447   9.234  0.2529  0.1765  0.3238
  426loPI   C4A 6810   9.043  10.450   8.740 -0.1777 -0.3585  0.0908
  426loPI   C5A 6811   9.103  10.731   8.418 -0.0492  0.2112 -0.1923
  426loPI   C6A 6812   9.292  11.184   8.383  0.1627 -0.0669  0.0676
  426loPI   C1B 6813   8.842  10.800   9.867  0.0674 -0.0628 -0.1090
  426loPI   C2B 6814   8.889  10.904   9.455  0.2099  0.1961 -0.1619
  426loPI   C3B 6815   8.930  10.918   9.051  0.1937 -0.1387 -0.2104
  426loPI   C4B 6816   8.989  11.193   8.752  0.0116  0.2156  0.0544
  427loPI    C1 6817   5.492  17.421  10.523  0.1157 -0.1980  0.0243
  427loPI    C2 6818   5.849  17.556  10.406  0.0530  0.0891  0.1555
  427loPI    C3 6819   5.779  17.488  10.794 -0.0820  0.1808  0.1479
  427loPI   PO4 6820   5.367  17.398  10.275  0.1013 -0.2874  0.0850
  427loPI   GL1 6821   5.468  17.377   9.962  0.3353 -0.1257  0.2476
  427loPI   GL2 6822   5.328  17.063   9.880 -0.2834 -0.0343 -0.0815
  427loPI   C1A 6823   5.647  17.692   9.681  0.0682  0.1847  0.0589
  427loPI   C2A 6824   5.630  17.757   9.202  0.2022  0.0539 -0.3623
  427loPI   C3A 6825   5.539  17.711   8.744 -0.0429  0.0992 -0.2077
  427loPI   C4A 6826   5.642  17.532   8.390 -0.0097  0.3293 -0.3532
  427loPI   C5A 6827   5.546  17.716   8.074 -0.2500  0.1351  0.0462
  427loPI   C6A 6828   5.352  17.986   7.819 -0.0268 -0.1465 -0.1005
  427loPI   C1B 6829   5.387  17.201   9.435  0.2923  0.1161  0.0111
  427loPI   C2B 6830   5.417  17.203   9.017  0.2345  0.1785 -0.0703
  427loPI   C3B 6831   5.470  17.067   8.608 -0.2614  0.1319  0.0196
  427loPI   C4B 6832   5.405  17.108   8.201  0.1121  0.2475 -0.0557
  428loPI    C1 6833  17.485   5.428  10.641 -0.0100 -0.2024  0.0396
  428loPI    C2 6834  17.099   5.347  10.706 -0.0351 -0.0710  0.0568
  428loPI    C3 6835  17.360   5.335  11.009 -0.0729  0.1012  0.0976
  428loPI   PO4 6836  17.505   5.695  10.454 -0.2197  0.2055 -0.2184
  428loPI   GL1 6837  17.653   5.514  10.101  0.0079  0.1112  0.0244
  428loPI   GL2 6838  17.477   5.421   9.825 -0.1587  0.2912 -0.1116
  428loPI   C1A 6839  17.783   5.846   9.823  0.2605  0.2194  0.0044
  428loPI   C2A 6840  17.769   5.923   9.384  0.3240  0.0512  0.0427
  428loPI   C3A 6841  17.935   6.063   8.916  0.0217 -0.1120  0.2286
  428loPI   C4A 6842  17.847   6.227   8.533  0.1661  0.2293  0.1418
  428loPI   C5A 6843  17.845   6.378   8.092 -0.0139  0.1586  0.0587
  428loPI   C6A 6844  17.916   6.687   7.770  0.1480 -0.0951  0.0411
  428loPI   C1B 6845  17.506   5.520   9.342 -0.0277 -0.0907 -0.2044
  428loPI   C2B 6846  17.652   5.643   9.008  0.1552  0.2106  0.2957
  428loPI   C3B 6847  17.527   5.822   8.632  0.0749  0.0295 -0.2024
  428loPI   C4B 6848  17.274   5.590   8.297  0.2923  0.0588 -0.4725
  429loPI    C1 6849  10.209   9.912  10.765  0.0285 -0.1555  0.0910
  429loPI    C2 6850  10.396  10.265  10.779 -0.1193 -0.0755  0.0661
  429loPI    C3 6851  10.018  10.244  10.650 -0.0815 -0.2555 -0.0183
  429loPI   PO4 6852  10.372   9.790  10.670  0.1307  0.1709  0.0981
  429loPI   GL1 6853  10.585   9.738  10.278 -0.0726 -0.0360  0.0817
  429loPI   GL2 6854  10.390   9.522  10.262  0.2635  0.0082 -0.2827
  429loPI   C1A 6855  10.524   9.928   9.911  0.1873 -0.1283  0.1591
  429loPI   C2A 6856  10.469  10.027   9.518 -0.2819  0.2926  0.0353
  429loPI   C3A 6857  10.523  10.114   9.003 -0.1081  0.0403  0.1040
  429loPI   C4A 6858  10.477  10.025   8.585 -0.0152 -0.2004  0.1036
  429loPI   C5A 6859  10.622   9.692   8.196 -0.1581  0.4141  0.2611
  429loPI   C6A 6860  10.759   9.732   7.837  0.0727  0.1989  0.3196
  429loPI   C1B 6861  10.090   9.551   9.903 -0.1467  0.0671 -0.1873
  429loPI   C2B 6862  10.125   9.635   9.413 -0.2017 -0.1151  0.0352
  429loPI   C3B 6863  10.130   9.692   9.009 -0.1434 -0.2214  0.0579
  429loPI   C4B 6864  10.055   9.723   8.678 -0.0250 -0.1756 -0.0041
  430loPI    C1 6865  11.720   8.849  10.429 -0.0192  0.2958  0.1090
  430loPI    C2 6866  12.005   9.028  10.212  0.0181  0.0734 -0.0288
  430loPI    C3 6867  11.919   9.162  10.579  0.1408  0.2848 -0.0755
  430loPI   PO4 6868  11.576   8.714  10.246 -0.0240  0.1458 -0.1302
  430loPI   GL1 6869  11.258   8.805  10.009 -0.2219 -0.0036 -0.2247
  430loPI   GL2 6870  11.322   8.349   9.975 -0.1173 -0.0234  0.0060
  430loPI   C1A 6871  11.200   8.783   9.596 -0.1212  0.0775 -0.1215
  430loPI   C2A 6872  11.219   8.933   9.185 -0.0029  0.0951 -0.0007
  430loPI   C3A 6873  11.230   8.850   8.711 -0.1062  0.1708  0.0965
  430loPI   C4A 6874  11.152   8.911   8.246  0.0040 -0.5664 -0.0264
  430loPI   C5A 6875  11.173   8.861   7.839 -0.0586  0.0136  0.0248
  430loPI   C6A 6876  11.091   8.897   7.426  0.0923 -0.2694  0.0560
  430loPI   C1B 6877  11.286   8.314   9.501 -0.0959  0.2888  0.0218
  430loPI   C2B 6878  11.317   8.420   8.988  0.0841 -0.0318 -0.2395
  430loPI   C3B 6879  11.256   8.395   8.544  0.1603 -0.1669  0.0440
  430loPI   C4B 6880  11.245   8.373   8.162  0.1471  0.2229 -0.2209
  431loPI    C1 6881   6.969   2.154  10.868  0.0711 -0.0546  0.0013
  431loPI    C2 6882   7.353   2.042  10.875  0.1122  0.0836 -0.0125
  431loPI    C3 6883   7.083   1.847  11.098  0.1824 -0.0410 -0.0356
  431loPI   PO4 6884   6.933   2.244  10.606  0.0548 -0.0601  0.3210
  431loPI   GL1 6885   7.169   2.188  10.216  0.0781  0.0185 -0.0803
  431loPI   GL2 6886   7.271   1.913  10.063  0.0537  0.0442 -0.1685
  431loPI   C1A 6887   7.104   2.314   9.811  0.0750  0.0260  0.0086
  431loPI   C2A 6888   7.114   2.397   9.423 -0.1864 -0.1869  0.1649
  431loPI   C3A 6889   7.170   2.467   9.003  0.0918 -0.1725  0.0263
  431loPI   C4A 6890   7.163   2.411   8.600  0.1482 -0.0493  0.3168
  431loPI   C5A 6891   7.046   2.449   8.154  0.2183  0.2060 -0.0406
  431loPI   C6A 6892   6.615   2.635   8.044  0.3795 -0.0068 -0.2165
  431loPI   C1B 6893   7.433   1.944   9.598 -0.1657  0.0407  0.0732
  431loPI   C2B 6894   7.352   1.996   9.190  0.1678  0.0813 -0.1268
  431loPI   C3B 6895   7.390   1.955   8.703 -0.5243 -0.1005  0.0618
  431loPI   C4B 6896   7.443   2.009   8.260  0.2918  0.2768 -0.0306
  432loPI    C1 6897   4.700  15.522  10.733 -0.1256 -0.1314 -0.0896
  432loPI    C2 6898   4.923  15.425  10.415  0.1804 -0.0433  0.0943
  432loPI    C3 6899   5.088  15.437  10.779 -0.0838  0.2005  0.2097
  432loPI   PO4 6900   4.435  15.674  10.610 -0.1474 -0.1982  0.1014
  432loPI   GL1 6901   4.551  15.866  10.243  0.0468 -0.2143  0.0184
  432loPI   GL2 6902   4.330  15.692  10.058 -0.2461 -0.0342  0.1892
  432loPI   C1A 6903   4.592  16.064   9.829 -0.0327  0.0981  0.0399
  432loPI   C2A 6904   4.522  16.049   9.442  0.3375 -0.0898  0.1671
  432loPI   C3A 6905   4.624  15.983   9.098 -0.0210  0.0767  0.1997
  432loPI   C4A 6906   4.642  16.184   8.731  0.0675  0.1432 -0.0908
  432loPI   C5A 6907   4.843  16.130   8.276 -0.1591 -0.1294  0.1143
  432loPI   C6A 6908   5.164  15.980   7.966 -0.2269 -0.1755  0.1725
  432loPI   C1B 6909   4.161  15.806   9.653  0.0931  0.0051 -0.2728
  432loPI   C2B 6910   4.102  15.904   9.221  0.1395 -0.2827  0.0623
  432loPI   C3B 6911   4.215  15.954   8.833 -0.3703  0.0799 -0.2401
  432loPI   C4B 6912   4.164  15.970   8.413  0.0063  0.0485  0.0050
  433loPI    C1 6913   3.176   2.964  10.903 -0.0653  0.0640 -0.0662
  433loPI    C2 6914   2.786   2.880  10.882 -0.0343 -0.0467 -0.2202
  433loPI    C3 6915   2.939   3.040  11.215 -0.1781 -0.1740 -0.0916
  433loPI   PO4 6916   3.352   2.719  10.935 -0.1930 -0.1524 -0.2721
  433loPI   GL1 6917   3.347   2.519  10.614  0.1068  0.1161 -0.3234
  433loPI   GL2 6918   3.057   2.626  10.509 -0.3102  0.0614  0.0954
  433loPI   C1A 6919   3.600   2.465  10.233  0.0674  0.2442  0.2321
  433loPI   C2A 6920   3.710   2.508   9.942  0.0982  0.3738  0.1616
  433loPI   C3A 6921   3.757   2.534   9.577 -0.4976  0.2342  0.1550
  433loPI   C4A 6922   3.861   2.633   9.235  0.2678 -0.0217  0.2880
  433loPI   C5A 6923   3.992   2.669   8.877 -0.2116 -0.0832 -0.0036
  433loPI   C6A 6924   4.054   2.688   8.403  0.1269 -0.1481 -0.1688
  433loPI   C1B 6925   3.132   2.574  10.060 -0.1543 -0.3051 -0.0166
  433loPI   C2B 6926   3.269   2.473   9.680  0.0677 -0.0688 -0.1443
  433loPI   C3B 6927   3.362   2.551   9.228  0.2723  0.0692 -0.1312
  433loPI   C4B 6928   3.538   2.461   8.856  0.0392 -0.1054  0.0946
  434loPI    C1 6929   9.086   4.259  10.488  0.1689  0.1608  0.0285
  434loPI    C2 6930   8.845   4.509  10.688  0.1090  0.2330 -0.1314
  434loPI    C3 6931   9.223   4.456  10.808  0.0006  0.0796  0.1520
  434loPI   PO4 6932   9.105   4.260  10.225  0.0351  0.0205 -0.1463
  434loPI   GL1 6933   9.022   4.351   9.783  0.2965  0.2970  0.2217
  434loPI   GL2 6934   9.208   4.699   9.878  0.3347 -0.0828 -0.1037
  434loPI   C1A 6935   8.805   4.264   9.427 -0.0992 -0.2840 -0.3125
  434loPI   C2A 6936   8.821   4.445   9.011 -0.1966 -0.1919 -0.0907
  434loPI   C3A 6937   8.766   4.524   8.588 -0.1809 -0.1792  0.2249
  434loPI   C4A 6938   8.642   4.633   8.195 -0.0768  0.1523 -0.0999
  434loPI   C5A 6939   8.446   5.008   7.976  0.2561  0.1567  0.1756
  434loPI   C6A 6940   8.421   5.428   7.665  0.2269  0.2905 -0.3210
  434loPI   C1B 6941   9.241   4.662   9.461 -0.3201 -0.0366 -0.1255
  434loPI   C2B 6942   9.339   4.646   9.011 -0.1301  0.0605  0.2749
  434loPI   C3B 6943   9.241   4.743   8.702 -0.0138 -0.1676 -0.0970
  434loPI   C4B 6944   9.101   4.724   8.273 -0.0516  0.0997  0.0324
  435loPI    C1 6945  10.013  12.686  10.871 -0.0304 -0.0950  0.0325
  435loPI    C2 6946  10.084  12.943  11.170  0.3634 -0.0518 -0.0923
  435loPI    C3 6947  10.211  12.565  11.197  0.0673 -0.1510 -0.0472
  435loPI   PO4 6948   9.849  12.796  10.726 -0.2343  0.2179 -0.1147
  435loPI   GL1 6949   9.731  13.180  10.449 -0.0107 -0.0180 -0.5014
  435loPI   GL2 6950   9.651  12.920  10.263 -0.0609  0.1321 -0.3622
  435loPI   C1A 6951   9.638  13.379  10.056 -0.2584  0.0343 -0.0963
  435loPI   C2A 6952   9.522  13.429   9.601 -0.1551  0.0674  0.1366
  435loPI   C3A 6953   9.520  13.318   9.228  0.1721  0.1875  0.2574
  435loPI   C4A 6954   9.518  13.475   8.855 -0.0368 -0.0826  0.0646
  435loPI   C5A 6955   9.344  13.128   8.502 -0.0958  0.2105 -0.2585
  435loPI   C6A 6956   9.117  12.920   8.086 -0.0131 -0.2714  0.2165
  435loPI   C1B 6957   9.555  12.898   9.907  0.1007  0.1057 -0.0927
  435loPI   C2B 6958   9.595  12.867   9.419  0.0909  0.1427 -0.1843
  435loPI   C3B 6959   9.455  12.669   8.976 -0.0841  0.0991  0.4216
  435loPI   C4B 6960   9.213  12.535   8.723 -0.1575  0.1860 -0.1592
  436loPI    C1 6961   1.272   2.622  10.495 -0.0402 -0.0905  0.0103
  436loPI    C2 6962   1.221   2.244  10.372 -0.2678 -0.0313 -0.0819
  436loPI    C3 6963   1.247   2.326  10.763  0.2549 -0.1959 -0.0739
  436loPI   PO4 6964   1.499   2.768  10.363  0.1275 -0.1178  0.0839
  436loPI   GL1 6965   1.425   3.066   9.981 -0.0523  0.1757  0.1584
  436loPI   GL2 6966   1.184   3.069  10.123 -0.0309  0.1864 -0.0812
  436loPI   C1A 6967   1.628   3.047   9.721 -0.2939  0.0341  0.0807
  436loPI   C2A 6968   1.740   3.016   9.287  0.1842  0.1027 -0.0850
  436loPI   C3A 6969   2.207   3.222   9.080  0.1060 -0.1208  0.0796
  436loPI   C4A 6970   2.294   3.206   8.645 -0.2861 -0.1009 -0.1808
  436loPI   C5A 6971   2.165   3.255   8.235 -0.1130  0.0939 -0.0739
  436loPI   C6A 6972   1.879   3.054   7.895  0.1752 -0.1410 -0.0091
  436loPI   C1B 6973   1.025   2.961   9.671  0.0251  0.0569  0.2150
  436loPI   C2B 6974   1.172   2.976   9.312  0.1955 -0.0346  0.0189
  436loPI   C3B 6975   1.346   3.076   8.900 -0.1553  0.2909  0.0249
  436loPI   C4B 6976   1.790   3.056   8.681  0.2455 -0.0916 -0.1618
  437loPI    C1 6977   9.198   5.117  11.028 -0.0883  0.0135  0.1847
  437loPI    C2 6978   8.876   4.879  11.042 -0.0321 -0.0627  0.1889
  437loPI    C3 6979   9.035   5.020  11.380 -0.0277 -0.0702  0.1900
  437loPI   PO4 6980   9.367   4.956  10.767 -0.1043 -0.0922  0.1446
  437loPI   GL1 6981   9.024   4.937  10.519 -0.2179  0.0822 -0.0691
  437loPI   GL2 6982   8.918   4.745  10.260 -0.1359 -0.0044  0.2163
  437loPI   C1A 6983   9.048   5.178  10.063  0.0088 -0.0669  0.0063
  437loPI   C2A 6984   9.158   5.129   9.642  0.2120  0.0587 -0.0378
  437loPI   C3A 6985   9.185   5.130   9.203 -0.1250 -0.0808  0.1661
  437loPI   C4A 6986   9.200   5.215   8.841  0.0356 -0.0678 -0.0847
  437loPI   C5A 6987   9.224   5.257   8.339 -0.4345  0.0727 -0.1336
  437loPI   C6A 6988   9.224   5.180   7.934  0.1290 -0.0376 -0.0746
  437loPI   C1B 6989   8.736   4.880   9.848  0.1165 -0.1675 -0.1456
  437loPI   C2B 6990   8.765   4.849   9.411  0.1167  0.2830 -0.2417
  437loPI   C3B 6991   8.756   4.908   8.944  0.0599  0.1574  0.2300
  437loPI   C4B 6992   8.858   5.069   8.543  0.0004 -0.1527  0.1364
  438loPI    C1 6993   9.499   1.457  10.664  0.0508  0.1063  0.0530
  438loPI    C2 6994   9.367   1.106  10.525 -0.0927  0.3067 -0.3315
  438loPI    C3 6995   9.343   1.188  10.916 -0.0721 -0.1017 -0.2400
  438loPI   PO4 6996   9.448   1.555  10.348  0.1044 -0.1406 -0.2305
  438loPI   GL1 6997   9.520   1.477   9.995 -0.0042  0.2756 -0.0620
  438loPI   GL2 6998   9.485   1.176   9.912  0.0908 -0.1941  0.0090
  438loPI   C1A 6999   9.585   1.458   9.567 -0.1361  0.0592 -0.1673
  438loPI   C2A 7000   9.611   1.428   9.180  0.0662  0.0772 -0.2077
  438loPI   C3A 7001   9.559   1.480   8.767  0.0517 -0.1933 -0.1030
  438loPI   C4A 7002   9.532   1.393   8.295 -0.1607 -0.3293  0.0950
  438loPI   C5A 7003   9.278   1.308   7.934  0.0109 -0.1611  0.0095
  438loPI   C6A 7004   8.850   1.183   7.968 -0.1092 -0.1952  0.0194
  438loPI   C1B 7005   9.407   0.970   9.536  0.1701 -0.0650  0.0757
  438loPI   C2B 7006   9.400   0.984   9.073 -0.1496  0.0224  0.0854
  438loPI   C3B 7007   9.361   0.970   8.669  0.2706 -0.1410  0.0680
  438loPI   C4B 7008   9.293   0.927   8.213 -0.0546  0.2559  0.4762
  439loPI    C1 7009   6.417   4.455  10.707  0.0654 -0.0150  0.0692
  439loPI    C2 7010   6.657   4.140  10.652 -0.0740 -0.1423  0.1793
  439loPI    C3 7011   6.708   4.377  10.970  0.0677 -0.0180  0.0658
  439loPI   PO4 7012   6.233   4.391  10.499 -0.1523 -0.1073  0.1926
  439loPI   GL1 7013   6.195   4.465  10.111  0.0808  0.1010  0.1157
  439loPI   GL2 7014   6.270   4.139  10.060 -0.3506 -0.0168  0.2850
  439loPI   C1A 7015   6.220   4.413   9.674 -0.2214  0.0859  0.0232
  439loPI   C2A 7016   6.286   4.602   9.197 -0.2209 -0.0610 -0.3763
  439loPI   C3A 7017   6.456   4.537   8.725 -0.0780 -0.0667  0.0084
  439loPI   C4A 7018   6.532   4.705   8.341 -0.1154 -0.0108  0.2092
  439loPI   C5A 7019   6.548   4.976   7.962 -0.0774 -0.2277  0.0473
  439loPI   C6A 7020   6.867   4.945   7.591  0.1608  0.2406  0.4049
  439loPI   C1B 7021   6.205   3.923   9.639  0.1717  0.2562 -0.2509
  439loPI   C2B 7022   6.198   3.997   9.174 -0.0703 -0.2233  0.0959
  439loPI   C3B 7023   6.307   4.061   8.787  0.3928 -0.0979 -0.0631
  439loPI   C4B 7024   6.313   4.145   8.365  0.2183 -0.0420 -0.1536
  440loPI    C1 7025  11.996  14.737  10.869 -0.0840 -0.1100  0.1436
  440loPI    C2 7026  12.014  15.126  10.960  0.0900 -0.0615 -0.0901
  440loPI    C3 7027  12.168  14.855  11.211  0.1046  0.0314  0.0019
  440loPI   PO4 7028  12.059  14.687  10.656  0.1996 -0.2452 -0.1248
  440loPI   GL1 7029  12.391  14.834  10.414  0.2588 -0.0254  0.0381
  440loPI   GL2 7030  12.224  15.135  10.488 -0.1039 -0.0344  0.0813
  440loPI   C1A 7031  12.387  14.610  10.098  0.0607 -0.2232 -0.0648
  440loPI   C2A 7032  12.640  14.552   9.683 -0.0098  0.0046  0.1715
  440loPI   C3A 7033  12.552  14.548   9.334  0.1651  0.0165  0.0049
  440loPI   C4A 7034  12.527  14.519   8.845  0.0417 -0.0631  0.1086
  440loPI   C5A 7035  12.528  14.220   8.417 -0.0709 -0.1579  0.2949
  440loPI   C6A 7036  12.477  14.260   8.032 -0.1538  0.0899 -0.1473
  440loPI   C1B 7037  12.091  14.952  10.040  0.0916  0.2006  0.2810
  440loPI   C2B 7038  12.126  14.789   9.628  0.0794  0.0786 -0.0362
  440loPI   C3B 7039  12.063  14.653   9.248  0.4891 -0.1422 -0.1152
  440loPI   C4B 7040  11.987  14.714   8.836 -0.0904  0.0994  0.0875
  441loPI    C1 7041   3.129  12.679  11.245 -0.0892  0.0337 -0.1366
  441loPI    C2 7042   3.496  12.805  11.145  0.0710 -0.2496  0.0782
  441loPI    C3 7043   3.372  12.829  11.525 -0.2454  0.1103 -0.0408
  441loPI   PO4 7044   2.962  12.693  11.010  0.0989  0.0908  0.1813
  441loPI   GL1 7045   2.946  12.455  10.647  0.1726  0.0120  0.1418
  441loPI   GL2 7046   2.947  12.710  10.430 -0.0528  0.0300  0.1014
  441loPI   C1A 7047   3.005  12.312  10.148  0.1778 -0.2114 -0.2236
  441loPI   C2A 7048   2.984  12.428   9.749 -0.1590 -0.0980  0.1383
  441loPI   C3A 7049   2.731  12.554   9.424 -0.1673  0.2934  0.0698
  441loPI   C4A 7050   2.761  12.643   8.983  0.4083  0.1556  0.3056
  441loPI   C5A 7051   3.059  12.515   8.578 -0.0739 -0.0345 -0.0890
  441loPI   C6A 7052   3.091  12.209   8.317  0.0215  0.0229 -0.0493
  441loPI   C1B 7053   2.702  12.796   9.984  0.1059  0.2289 -0.2598
  441loPI   C2B 7054   2.355  12.913   9.623  0.3613 -0.0602 -0.1679
  441loPI   C3B 7055   1.941  13.067   9.426 -0.4034 -0.0839  0.2841
  441loPI   C4B 7056   1.777  13.046   8.970 -0.1257 -0.1685  0.2317
  442loPI    C1 7057   1.013   7.581  10.874 -0.1577  0.1563 -0.1125
  442loPI    C2 7058   0.670   7.637  11.072 -0.1125  0.2298 -0.0545
  442loPI    C3 7059   0.898   7.318  11.153 -0.1476  0.2020 -0.0652
  442loPI   PO4 7060   1.045   7.566  10.626  0.3280 -0.0812  0.1919
  442loPI   GL1 7061   1.274   7.412  10.380 -0.0822  0.1177 -0.0072
  442loPI   GL2 7062   1.515   7.509  10.169 -0.1935  0.3894  0.0677
  442loPI   C1A 7063   1.084   7.485   9.869  0.2476  0.0795  0.0199
  442loPI   C2A 7064   1.151   7.441   9.488 -0.0963  0.0241  0.0388
  442loPI   C3A 7065   1.093   7.661   9.179  0.0975 -0.0070 -0.0692
  442loPI   C4A 7066   1.213   7.601   8.772  0.2227 -0.0298  0.0397
  442loPI   C5A 7067   1.248   7.675   8.359  0.0063  0.0601  0.4663
  442loPI   C6A 7068   1.539   7.990   8.273  0.0819  0.3437 -0.2172
  442loPI   C1B 7069   1.603   7.539   9.754  0.2265  0.0608 -0.0506
  442loPI   C2B 7070   1.703   7.599   9.406  0.2292 -0.2310  0.1172
  442loPI   C3B 7071   1.705   7.675   8.979  0.3268  0.1557  0.4078
  442loPI   C4B 7072   1.739   7.647   8.558 -0.2044 -0.0869 -0.1615
  443loPI    C1 7073   5.684   4.597  11.066 -0.0290  0.0603  0.0214
  443loPI    C2 7074   5.994   4.652  10.818  0.0383  0.2782  0.1513
  443loPI    C3 7075   6.021   4.388  11.117 -0.0405  0.0201 -0.0655
  443loPI   PO4 7076   5.508   4.539  10.940  0.0444 -0.2388  0.0340
  443loPI   GL1 7077   5.490   4.556  10.547 -0.0017  0.2356 -0.0227
  443loPI   GL2 7078   5.774   4.479  10.358  0.0190  0.0146 -0.2998
  443loPI   C1A 7079   5.255   4.434  10.064 -0.0136  0.1001  0.0183
  443loPI   C2A 7080   5.177   4.380   9.606 -0.3948 -0.0750 -0.1304
  443loPI   C3A 7081   5.014   4.305   9.168 -0.0531  0.1107 -0.0824
  443loPI   C4A 7082   4.826   4.340   8.835  0.2280  0.5342 -0.2010
  443loPI   C5A 7083   4.590   4.482   8.455  0.1464  0.4064  0.0069
  443loPI   C6A 7084   4.100   4.500   8.504 -0.1947  0.2697 -0.0504
  443loPI   C1B 7085   5.690   4.709   9.976  0.1871  0.1696  0.1910
  443loPI   C2B 7086   5.823   4.849   9.545 -0.2463  0.0604 -0.2116
  443loPI   C3B 7087   6.027   5.309   9.548 -0.2483 -0.0518  0.0246
  443loPI   C4B 7088   6.124   5.627   9.283  0.1891  0.1320 -0.0537
  444loPI    C1 7089  13.449  17.878  11.165 -0.1002  0.2702 -0.4086
  444loPI    C2 7090  13.751  18.138  11.137  0.3387 -0.1670  0.0486
  444loPI    C3 7091  13.610  18.034  11.496 -0.1539 -0.2049 -0.1487
  444loPI   PO4 7092  13.431  17.871  10.863  0.1362  0.1506  0.0991
  444loPI   GL1 7093  13.569  17.952  10.507 -0.0584  0.2392 -0.0054
  444loPI   GL2 7094  13.814  17.819  10.399 -0.1142  0.1333 -0.2169
  444loPI   C1A 7095  13.461  17.725  10.071 -0.0183  0.0612 -0.1609
  444loPI   C2A 7096  13.578  17.556   9.695 -0.0832 -0.0022 -0.0684
  444loPI   C3A 7097  13.599  17.479   9.294 -0.0678 -0.2358  0.0219
  444loPI   C4A 7098  13.415  17.629   8.868  0.0513  0.0326  0.0588
  444loPI   C5A 7099  13.436  17.630   8.418  0.1694 -0.0501 -0.0050
  444loPI   C6A 7100  13.376  17.283   8.090 -0.0393 -0.7207  0.1506
  444loPI   C1B 7101  13.903  17.949   9.884  0.0039  0.1366  0.0495
  444loPI   C2B 7102  13.932  17.931   9.516 -0.0132  0.1046 -0.1011
  444loPI   C3B 7103  13.873  17.957   9.107 -0.1055 -0.1859 -0.1636
  444loPI   C4B 7104  13.835  17.926   8.567 -0.2484 -0.0815  0.1487
  445loPI    C1 7105   7.220   2.721  10.541  0.0049 -0.1062  0.1250
  445loPI    C2 7106   7.256   2.571  10.910 -0.1551  0.1620  0.2528
  445loPI    C3 7107   7.470   2.416  10.610 -0.0321 -0.0664  0.4542
  445loPI   PO4 7108   7.262   2.929  10.490  0.0980 -0.1206  0.0074
  445loPI   GL1 7109   7.375   3.206  10.230  0.1403 -0.3455  0.0198
  445loPI   GL2 7110   7.706   3.147  10.057  0.0133  0.1184 -0.0758
  445loPI   C1A 7111   7.331   3.356   9.845  0.1546  0.1745  0.4038
  445loPI   C2A 7112   7.411   3.321   9.392  0.0038 -0.2661  0.0902
  445loPI   C3A 7113   7.438   3.291   8.971 -0.1544  0.3554  0.0731
  445loPI   C4A 7114   7.432   3.372   8.552 -0.4358  0.1543  0.2029
  445loPI   C5A 7115   7.523   3.308   8.167  0.0357 -0.0561  0.0443
  445loPI   C6A 7116   7.730   3.502   7.785 -0.2188  0.0834  0.0834
  445loPI   C1B 7117   7.729   2.988   9.673 -0.1196  0.0569 -0.1667
  445loPI   C2B 7118   7.872   2.962   9.256 -0.1915  0.4183 -0.0790
  445loPI   C3B 7119   7.765   2.891   8.908  0.1920  0.0685 -0.1638
  445loPI   C4B 7120   7.771   2.940   8.464 -0.0265  0.1065 -0.1231
  446loPI    C1 7121   4.999   7.304  10.710  0.1056 -0.1641  0.0045
  446loPI    C2 7122   5.253   7.596  10.607  0.0360 -0.1473 -0.1217
  446loPI    C3 7123   5.292   7.411  10.960 -0.0551  0.1662  0.0565
  446loPI   PO4 7124   5.048   7.138  10.492  0.1359  0.0580 -0.0591
  446loPI   GL1 7125   5.126   7.055  10.150 -0.0169 -0.2796 -0.3890
  446loPI   GL2 7126   5.377   7.374  10.199 -0.2492 -0.0397 -0.0329
  446loPI   C1A 7127   5.231   7.043   9.796 -0.3208 -0.0495 -0.0014
  446loPI   C2A 7128   5.355   7.357   9.462  0.0412  0.0312 -0.0352
  446loPI   C3A 7129   5.548   7.344   9.100  0.3143  0.0180  0.0104
  446loPI   C4A 7130   5.946   7.343   8.838 -0.1188  0.1852  0.1304
  446loPI   C5A 7131   6.153   7.112   8.512  0.1515  0.2763  0.2062
  446loPI   C6A 7132   6.111   6.637   8.306 -0.1732 -0.0793 -0.3187
  446loPI   C1B 7133   5.395   7.670   9.841 -0.1505  0.0486  0.2989
  446loPI   C2B 7134   5.445   7.851   9.458 -0.2598 -0.0896  0.2358
  446loPI   C3B 7135   5.436   7.900   9.067 -0.0073 -0.0408  0.3381
  446loPI   C4B 7136   5.233   8.074   8.735  0.0323  0.2714 -0.0828
  447loPI    C1 7137   4.421   3.897  10.539 -0.0783  0.0539  0.1158
  447loPI    C2 7138   4.561   3.522  10.535  0.2792  0.1848 -0.1352
  447loPI    C3 7139   4.516   3.715  10.882 -0.4483 -0.2775  0.0507
  447loPI   PO4 7140   4.318   3.858  10.241 -0.2044 -0.0610 -0.0772
  447loPI   GL1 7141   4.394   3.809   9.846  0.2829 -0.1094  0.2705
  447loPI   GL2 7142   3.998   3.930   9.851 -0.3372 -0.0611  0.0471
  447loPI   C1A 7143   4.610   3.559   9.640  0.1550 -0.0645 -0.1706
  447loPI   C2A 7144   4.981   3.375   9.298  0.1423 -0.0488  0.0076
  447loPI   C3A 7145   5.123   3.285   8.842  0.0483 -0.0708 -0.0001
  447loPI   C4A 7146   5.207   3.188   8.370 -0.0871  0.0905  0.3280
  447loPI   C5A 7147   5.196   3.256   7.960 -0.1032  0.0052 -0.0255
  447loPI   C6A 7148   5.380   3.300   7.648 -0.0198 -0.2476 -0.1633
  447loPI   C1B 7149   3.939   3.941   9.437 -0.0474  0.0605  0.0513
  447loPI   C2B 7150   3.936   3.960   8.953 -0.0053 -0.0349  0.1161
  447loPI   C3B 7151   4.026   3.975   8.479 -0.3255  0.0025  0.1953
  447loPI   C4B 7152   4.312   4.036   8.164  0.0130 -0.0739 -0.0392
  448loPI    C1 7153  13.179  10.431  10.471 -0.0601  0.1402  0.2666
  448loPI    C2 7154  13.517  10.465  10.682  0.0172 -0.1217  0.1885
  448loPI    C3 7155  13.259  10.170  10.763  0.0410 -0.2162 -0.0719
  448loPI   PO4 7156  13.212  10.447  10.241  0.2930  0.0431 -0.0008
  448loPI   GL1 7157  13.408  10.585   9.883 -0.0069  0.2731 -0.0394
  448loPI   GL2 7158  13.701  10.860   9.826 -0.2526  0.2329  0.0554
  448loPI   C1A 7159  13.184  10.523   9.501 -0.1571 -0.1523  0.0385
  448loPI   C2A 7160  13.132  10.438   9.080  0.0028 -0.1641  0.0449
  448loPI   C3A 7161  13.129  10.421   8.608 -0.0516 -0.0912 -0.0375
  448loPI   C4A 7162  13.149  10.510   8.155  0.0284 -0.3410 -0.1422
  448loPI   C5A 7163  12.959  10.315   7.831  0.0674  0.0114  0.1039
  448loPI   C6A 7164  12.639  10.025   7.848 -0.1533  0.1442 -0.1862
  448loPI   C1B 7165  13.645  10.742   9.465 -0.0487 -0.1395 -0.0845
  448loPI   C2B 7166  13.539  10.778   8.983  0.0968 -0.2164  0.3285
  448loPI   C3B 7167  13.550  10.735   8.535  0.0274  0.2468 -0.2416
  448loPI   C4B 7168  13.607  10.762   8.081 -0.4223 -0.0149  0.0838
  449loPI    C1 7169  15.918   6.737  10.151 -0.1010 -0.2092 -0.0608
  449loPI    C2 7170  15.646   6.672  10.438 -0.0770 -0.0457 -0.0001
  449loPI    C3 7171  16.018   6.784  10.536 -0.0477 -0.0610 -0.0921
  449loPI   PO4 7172  15.792   6.903   9.953 -0.0037 -0.0422  0.2848
  449loPI   GL1 7173  15.595   6.866   9.632  0.0452  0.1329 -0.1667
  449loPI   GL2 7174  15.879   6.829   9.376 -0.1141 -0.0814  0.3140
  449loPI   C1A 7175  15.477   7.073   9.189  0.1377  0.0000  0.1867
  449loPI   C2A 7176  15.525   7.165   8.793 -0.2818  0.2503 -0.0024
  449loPI   C3A 7177  15.545   7.130   8.368 -0.0615  0.1695 -0.0007
  449loPI   C4A 7178  15.489   7.037   7.921  0.2791 -0.2149  0.0694
  449loPI   C5A 7179  15.426   6.910   7.404  0.2373 -0.1886 -0.0729
  449loPI   C6A 7180  15.408   7.030   6.927 -0.2348 -0.0277 -0.0601
  449loPI   C1B 7181  16.007   6.912   8.900  0.0086 -0.1142  0.1342
  449loPI   C2B 7182  16.000   6.944   8.506  0.2374 -0.2909 -0.1934
  449loPI   C3B 7183  15.947   6.909   8.115 -0.0887 -0.1131  0.1567
  449loPI   C4B 7184  15.873   6.975   7.592 -0.0048  0.1765  0.2082
  450loPI    C1 7185  13.433  15.491  11.196 -0.0436 -0.0032 -0.1810
  450loPI    C2 7186  13.419  15.134  11.016  0.0094  0.0221 -0.2357
  450loPI    C3 7187  13.089  15.286  11.183  0.0588 -0.1962  0.0702
  450loPI   PO4 7188  13.695  15.568  11.038  0.0731 -0.0277  0.1074
  450loPI   GL1 7189  13.914  15.367  10.619  0.1675  0.3770  0.1549
  450loPI   GL2 7190  13.541  15.155  10.474  0.1394  0.1853  0.1240
  450loPI   C1A 7191  13.983  15.399  10.232  0.2497 -0.2329 -0.0055
  450loPI   C2A 7192  13.821  15.467   9.823  0.5410  0.2193  0.1148
  450loPI   C3A 7193  13.902  15.481   9.430 -0.1836 -0.1473  0.3261
  450loPI   C4A 7194  13.849  15.485   8.951 -0.0029  0.0118 -0.1491
  450loPI   C5A 7195  13.599  15.380   8.484  0.0652 -0.1240 -0.1306
  450loPI   C6A 7196  13.776  15.639   8.101 -0.3632  0.2995 -0.0121
  450loPI   C1B 7197  13.416  15.148  10.054 -0.0092 -0.1393  0.0097
  450loPI   C2B 7198  13.425  15.265   9.603 -0.2440  0.1125 -0.0281
  450loPI   C3B 7199  13.282  15.193   9.277  0.1655 -0.4060 -0.1084
  450loPI   C4B 7200  13.374  15.177   8.903 -0.1741 -0.0099 -0.0191
  451loPI    C1 7201  16.496  12.087  10.689 -0.0799 -0.1052 -0.0117
  451loPI    C2 7202  16.216  12.109  10.974 -0.2514 -0.1867 -0.1718
  451loPI    C3 7203  16.555  11.909  11.042 -0.1784  0.0127  0.0655
  451loPI   PO4 7204  16.463  12.087  10.470 -0.1931  0.1070  0.0629
  451loPI   GL1 7205  16.878  12.069  10.200 -0.0381  0.4698  0.0829
  451loPI   GL2 7206  17.234  12.129  10.095  0.1454  0.1086 -0.0663
  451loPI   C1A 7207  16.939  11.963   9.746 -0.1148  0.0084  0.0090
  451loPI   C2A 7208  17.141  11.866   9.430 -0.2761  0.1288 -0.2100
  451loPI   C3A 7209  16.982  11.836   9.125 -0.0452  0.3142 -0.1784
  451loPI   C4A 7210  16.949  11.672   8.825  0.2817  0.0739  0.0602
  451loPI   C5A 7211  16.636  11.426   8.690  0.0205  0.0471 -0.0727
  451loPI   C6A 7212  16.557  10.965   8.465  0.0218  0.0497 -0.1455
  451loPI   C1B 7213  17.418  12.143   9.722  0.0592 -0.0745 -0.1720
  451loPI   C2B 7214  17.475  12.195   9.276 -0.2861  0.0149 -0.1089
  451loPI   C3B 7215  17.497  12.053   8.797  0.0065 -0.1781  0.1364
  451loPI   C4B 7216  17.509  12.177   8.350 -0.1659  0.1223  0.0402
  452loPI    C1 7217  10.246   3.697  10.476 -0.0855  0.1364  0.1347
  452loPI    C2 7218  10.330   3.841  10.840  0.2252 -0.0835  0.1545
  452loPI    C3 7219  10.143   3.489  10.802  0.0377  0.0203  0.1008
  452loPI   PO4 7220  10.183   3.956  10.315  0.2440 -0.1118  0.1623
  452loPI   GL1 7221  10.084   4.052   9.942  0.1915  0.0524 -0.0286
  452loPI   GL2 7222  10.328   4.301   9.684  0.0507 -0.1124  0.0202
  452loPI   C1A 7223   9.859   4.055   9.525 -0.3857 -0.5162  0.2021
  452loPI   C2A 7224   9.741   4.056   9.140  0.0915 -0.0680 -0.4269
  452loPI   C3A 7225   9.842   4.010   8.698 -0.3734 -0.0166 -0.0493
  452loPI   C4A 7226   9.621   4.317   8.467 -0.0136 -0.0711 -0.0441
  452loPI   C5A 7227   9.496   4.478   8.143 -0.4642  0.0275 -0.1118
  452loPI   C6A 7228   9.380   4.702   7.777  0.1937 -0.3082 -0.0207
  452loPI   C1B 7229  10.290   4.167   9.170  0.2298 -0.1551  0.1478
  452loPI   C2B 7230  10.278   4.181   8.760 -0.1966  0.4303 -0.1351
  452loPI   C3B 7231  10.161   4.211   8.271  0.1561  0.1828  0.1092
  452loPI   C4B 7232  10.098   4.046   7.732 -0.1941  0.1998 -0.3541
  453loPI    C1 7233   7.651   6.844  11.038 -0.2016 -0.0479 -0.1306
  453loPI    C2 7234   7.324   6.967  11.234 -0.1184 -0.0049 -0.0178
  453loPI    C3 7235   7.567   6.696  11.400 -0.1072 -0.0518 -0.1100
  453loPI   PO4 7236   7.600   6.869  10.762 -0.3973  0.1204 -0.1862
  453loPI   GL1 7237   7.559   7.001  10.269  0.0137 -0.0100 -0.1969
  453loPI   GL2 7238   7.318   7.207  10.098 -0.0093 -0.1657  0.1468
  453loPI   C1A 7239   7.912   7.017   9.914  0.1037  0.1084 -0.1665
  453loPI   C2A 7240   7.891   7.032   9.422  0.1026  0.2091 -0.0724
  453loPI   C3A 7241   8.018   7.003   9.016 -0.0034  0.1398  0.0954
  453loPI   C4A 7242   7.945   7.028   8.495  0.0121 -0.3508  0.1546
  453loPI   C5A 7243   7.749   6.973   8.140  0.0955  0.0424 -0.2235
  453loPI   C6A 7244   7.409   7.037   7.906  0.0429 -0.1732 -0.0152
  453loPI   C1B 7245   7.402   7.122   9.669  0.3667  0.1520 -0.3202
  453loPI   C2B 7246   7.448   7.092   9.249  0.2568 -0.2087  0.2387
  453loPI   C3B 7247   7.229   7.143   8.888  0.0728 -0.2760  0.0667
  453loPI   C4B 7248   6.838   7.303   8.670  0.0454 -0.0404 -0.1698
  454loPI    C1 7249   3.486   7.225  10.933  0.2147 -0.0309  0.0853
  454loPI    C2 7250   3.405   7.199  11.324  0.1141  0.1252  0.0757
  454loPI    C3 7251   3.779   7.146  11.193  0.1170 -0.1099  0.1729
  454loPI   PO4 7252   3.318   7.509  10.757  0.0247  0.1286 -0.2357
  454loPI   GL1 7253   3.329   7.755  10.343  0.1896  0.0724 -0.1642
  454loPI   GL2 7254   3.649   7.733  10.411  0.0503 -0.1504 -0.0025
  454loPI   C1A 7255   3.230   7.846   9.931 -0.1698  0.2573 -0.0010
  454loPI   C2A 7256   3.284   7.890   9.497 -0.2962  0.1141  0.0110
  454loPI   C3A 7257   3.251   7.883   9.135 -0.0411 -0.0620 -0.3482
  454loPI   C4A 7258   3.465   7.843   8.817  0.0408  0.0907 -0.0780
  454loPI   C5A 7259   3.639   7.836   8.447 -0.2701  0.1540 -0.1275
  454loPI   C6A 7260   3.796   7.866   8.010  0.3239  0.2213 -0.1674
  454loPI   C1B 7261   3.439   7.392  10.026  0.0591  0.0553  0.0918
  454loPI   C2B 7262   3.548   7.404   9.628 -0.1025 -0.1618 -0.0946
  454loPI   C3B 7263   3.513   7.434   9.180 -0.1640 -0.2279  0.1333
  454loPI   C4B 7264   3.624   7.388   8.717  0.0174 -0.0997  0.1212
  455loPI    C1 7265   7.387  17.272  10.619  0.0514 -0.2184  0.2051
  455loPI    C2 7266   7.032  17.094  10.570 -0.0438  0.0213  0.0022
  455loPI    C3 7267   7.165  17.179  10.938 -0.0572 -0.3423  0.0948
  455loPI   PO4 7268   7.515  17.328  10.385  0.4297  0.1759 -0.1197
  455loPI   GL1 7269   7.781  17.403  10.088  0.1719 -0.2159  0.1954
  455loPI   GL2 7270   7.707  17.096   9.946 -0.2106 -0.3120  0.0536
  455loPI   C1A 7271   7.422  17.542   9.686 -0.1502  0.0652  0.0898
  455loPI   C2A 7272   7.305  17.455   9.295  0.4202  0.2081 -0.0974
  455loPI   C3A 7273   7.408  17.519   8.834  0.0725  0.0337  0.0894
  455loPI   C4A 7274   7.462  17.598   8.350  0.1244  0.0033 -0.2892
  455loPI   C5A 7275   7.393  17.663   7.944  0.1408  0.0696  0.2321
  455loPI   C6A 7276   7.566  17.671   7.585 -0.0063 -0.0634  0.0094
  455loPI   C1B 7277   7.760  17.122   9.509  0.1156 -0.0936  0.1754
  455loPI   C2B 7278   7.590  17.102   9.066  0.1336  0.1559 -0.0152
  455loPI   C3B 7279   7.452  17.089   8.648  0.1410  0.0852  0.1143
  455loPI   C4B 7280   7.477  17.053   8.236 -0.2623  0.1677 -0.2138
  456loPI    C1 7281  10.865   0.212  10.993  0.1541 -0.0371 -0.0416
  456loPI    C2 7282  10.650   0.549  10.976  0.1484 -0.0367  0.0351
  456loPI    C3 7283  10.945   0.513  11.244  0.0499 -0.1504  0.1293
  456loPI   PO4 7284  10.771   0.104  10.722 -0.0393 -0.2832 -0.2754
  456loPI   GL1 7285  10.774   0.158  10.209  0.0698  0.0513  0.3919
  456loPI   GL2 7286  11.057   0.387  10.096  0.2789 -0.0867  0.1309
  456loPI   C1A 7287  10.607   0.202   9.683 -0.1705 -0.3221 -0.0556
  456loPI   C2A 7288  10.246   0.199   9.372  0.2046 -0.0872 -0.1245
  456loPI   C3A 7289  10.034   0.212   9.010 -0.5253 -0.0827  0.1599
  456loPI   C4A 7290   9.991   0.187   8.561  0.0091 -0.2008  0.3072
  456loPI   C5A 7291  10.100  -0.005   8.173 -0.0656 -0.0862 -0.1358
  456loPI   C6A 7292  10.444  -0.047   7.992  0.0712 -0.1536 -0.0101
  456loPI   C1B 7293  11.180   0.192   9.759  0.0760 -0.1964 -0.2179
  456loPI   C2B 7294  10.991   0.230   9.351  0.3374  0.1400  0.1587
  456loPI   C3B 7295  11.088   0.195   8.976 -0.3112  0.0110  0.2044
  456loPI   C4B 7296  10.995   0.305   8.628  0.0529 -0.2538  0.1262
  457loPI    C1 7297  16.763   2.437  10.141  0.0487  0.3062 -0.0701
  457loPI    C2 7298  16.401   2.502  10.298  0.0513  0.1664 -0.0057
  457loPI    C3 7299  16.470   2.171  10.083  0.2058  0.0732  0.1849
  457loPI   PO4 7300  16.808   2.769   9.983  0.1436  0.1363  0.0104
  457loPI   GL1 7301  16.775   2.688   9.579 -0.0271  0.2901  0.4792
  457loPI   GL2 7302  16.650   2.382   9.556  0.0578 -0.0075  0.0911
  457loPI   C1A 7303  16.822   2.735   9.169 -0.1358 -0.1588  0.3538
  457loPI   C2A 7304  17.009   2.854   8.864  0.2462 -0.1782  0.0626
  457loPI   C3A 7305  17.143   2.763   8.469  0.2930 -0.0865 -0.0041
  457loPI   C4A 7306  17.230   2.938   8.001  0.0169 -0.2322  0.0794
  457loPI   C5A 7307  17.059   2.873   7.632 -0.2037  0.1865  0.3762
  457loPI   C6A 7308  16.735   3.222   7.425 -0.2537  0.1350 -0.0971
  457loPI   C1B 7309  16.669   2.186   9.139 -0.0638 -0.0579 -0.2020
  457loPI   C2B 7310  16.718   2.281   8.748  0.3068  0.0340 -0.0909
  457loPI   C3B 7311  17.021   2.280   8.459  0.1138  0.2217 -0.2432
  457loPI   C4B 7312  17.098   2.382   8.143  0.0825 -0.2966 -0.1582
  458loPI    C1 7313   7.646   5.532  10.693 -0.3373  0.4009  0.0228
  458loPI    C2 7314   7.926   5.817  10.691 -0.0265  0.1022  0.0218
  458loPI    C3 7315   7.648   5.813  10.978  0.0923  0.2851  0.1418
  458loPI   PO4 7316   7.463   5.429  10.408  0.0856  0.0562 -0.1704
  458loPI   GL1 7317   7.356   5.633  10.136 -0.0744 -0.1423  0.2488
  458loPI   GL2 7318   7.190   5.363   9.969  0.0224 -0.0317  0.0668
  458loPI   C1A 7319   7.584   5.662   9.806  0.0230 -0.2641 -0.1383
  458loPI   C2A 7320   7.560   5.960   9.483  0.0240  0.1597  0.1976
  458loPI   C3A 7321   7.491   6.235   9.099 -0.0239  0.0058  0.0263
  458loPI   C4A 7322   7.231   6.687   9.043  0.1756 -0.1220 -0.1297
  458loPI   C5A 7323   6.795   6.835   8.859 -0.2889  0.2446  0.0999
  458loPI   C6A 7324   6.615   6.795   8.432 -0.2389 -0.0520 -0.3429
  458loPI   C1B 7325   7.314   5.416   9.554  0.0646 -0.0937  0.1103
  458loPI   C2B 7326   7.358   5.520   9.243 -0.1720  0.1433  0.0807
  458loPI   C3B 7327   7.593   5.737   9.050 -0.0783  0.2797  0.0696
  458loPI   C4B 7328   7.758   6.052   8.698  0.3216  0.2708 -0.1718
  459loPI    C1 7329   2.184  14.655  10.747 -0.0810 -0.0299 -0.0144
  459loPI    C2 7330   2.504  14.718  10.979 -0.1562 -0.5269  0.2370
  459loPI    C3 7331   2.142  14.834  11.102 -0.0653  0.1955 -0.1244
  459loPI   PO4 7332   2.274  14.606  10.525  0.1667  0.1083 -0.0616
  459loPI   GL1 7333   2.313  14.526  10.110 -0.2119  0.0810 -0.1199
  459loPI   GL2 7334   2.433  14.257  10.208  0.0925  0.0419  0.3761
  459loPI   C1A 7335   2.201  14.466   9.700 -0.2144 -0.0679 -0.0583
  459loPI   C2A 7336   2.136  14.374   9.267 -0.2312 -0.0343 -0.0027
  459loPI   C3A 7337   2.013  14.143   8.881  0.2422  0.0503  0.0987
  459loPI   C4A 7338   2.078  13.859   8.498  0.0619  0.3876  0.1239
  459loPI   C5A 7339   2.231  13.560   8.377 -0.2740  0.1575 -0.0713
  459loPI   C6A 7340   2.522  13.200   8.256 -0.2953  0.1016  0.1436
  459loPI   C1B 7341   2.310  14.007   9.858 -0.1707 -0.0137  0.1542
  459loPI   C2B 7342   2.214  13.878   9.368 -0.2622  0.0512 -0.2330
  459loPI   C3B 7343   2.158  13.574   9.051 -0.2431  0.1168 -0.0212
  459loPI   C4B 7344   2.258  13.241   8.747  0.2177  0.3914  0.0641
  460loPI    C1 7345  11.923  11.485  10.675  0.3924  0.2220  0.0106
  460loPI    C2 7346  11.943  11.685  11.020  0.2844  0.1957  0.0326
  460loPI    C3 7347  12.268  11.501  10.876  0.3280  0.2005  0.1237
  460loPI   PO4 7348  11.787  11.548  10.535 -0.0881  0.1053  0.2464
  460loPI   GL1 7349  11.837  11.786  10.259  0.1059 -0.0957 -0.0198
  460loPI   GL2 7350  11.760  12.078  10.205  0.2242  0.1327 -0.0677
  460loPI   C1A 7351  12.014  11.833   9.836 -0.0885 -0.1271  0.0362
  460loPI   C2A 7352  12.059  11.828   9.387  0.0269  0.0019  0.2527
  460loPI   C3A 7353  12.015  11.858   8.957 -0.2652 -0.0037  0.0552
  460loPI   C4A 7354  12.083  11.845   8.428  0.1061 -0.2129 -0.0897
  460loPI   C5A 7355  11.782  11.647   8.092 -0.0820 -0.0696  0.1463
  460loPI   C6A 7356  11.329  11.506   8.075  0.3473  0.0282  0.1059
  460loPI   C1B 7357  11.538  11.933   9.831 -0.0122  0.1987  0.3228
  460loPI   C2B 7358  11.556  12.037   9.424  0.0776  0.1203 -0.0256
  460loPI   C3B 7359  11.583  11.999   9.024  0.0040  0.0580  0.1458
  460loPI   C4B 7360  11.517  11.980   8.565  0.2976  0.0282  0.1503
  461loPI    C1 7361  15.545   1.937  10.322 -0.0085 -0.0015  0.1022
  461loPI    C2 7362  15.192   1.755  10.370  0.0418 -0.0622  0.2464
  461loPI    C3 7363  15.275   2.088  10.575 -0.0675  0.1513 -0.0506
  461loPI   PO4 7364  15.594   2.010  10.089  0.0344  0.0244 -0.0387
  461loPI   GL1 7365  15.721   1.901   9.734  0.4252 -0.1123  0.0205
  461loPI   GL2 7366  15.773   1.576   9.746 -0.2897 -0.0742  0.1213
  461loPI   C1A 7367  15.709   2.089   9.347 -0.1384  0.0490 -0.2359
  461loPI   C2A 7368  15.757   2.224   8.960  0.2702 -0.0517  0.0561
  461loPI   C3A 7369  15.737   2.312   8.493  0.1923 -0.0690  0.1891
  461loPI   C4A 7370  15.653   2.163   8.124  0.1122 -0.0027 -0.3144
  461loPI   C5A 7371  15.642   1.909   7.801 -0.0848  0.0551  0.2985
  461loPI   C6A 7372  15.679   1.541   7.655 -0.0204  0.0897 -0.2329
  461loPI   C1B 7373  15.976   1.673   9.323  0.1432 -0.1870  0.0073
  461loPI   C2B 7374  16.081   1.856   8.931  0.2311  0.2593 -0.1187
  461loPI   C3B 7375  16.195   2.102   8.639  0.0518 -0.1920 -0.0163
  461loPI   C4B 7376  16.108   2.121   8.096 -0.2994  0.0268  0.1166
  462loPI    C1 7377   6.011   6.101  10.519  0.1438 -0.3389 -0.0139
  462loPI    C2 7378   5.873   6.275  10.852 -0.0475 -0.1511 -0.1889
  462loPI    C3 7379   6.250   6.338  10.736 -0.0124 -0.1315 -0.0657
  462loPI   PO4 7380   5.704   5.993  10.464 -0.0579 -0.1456  0.0961
  462loPI   GL1 7381   5.650   5.755  10.077 -0.0779  0.0529  0.3232
  462loPI   GL2 7382   5.824   6.125   9.983  0.0167  0.3522  0.2492
  462loPI   C1A 7383   5.765   5.727   9.675 -0.0161 -0.1123 -0.1069
  462loPI   C2A 7384   5.757   5.941   9.200  0.2681 -0.0933 -0.3491
  462loPI   C3A 7385   6.010   5.855   8.806 -0.0269  0.0986  0.2794
  462loPI   C4A 7386   6.221   5.519   8.648  0.1912  0.1111  0.1086
  462loPI   C5A 7387   6.248   5.104   8.584 -0.0185  0.1440  0.0231
  462loPI   C6A 7388   6.043   4.643   8.492  0.2213  0.0027  0.4127
  462loPI   C1B 7389   6.254   6.401   9.855  0.0794  0.1123 -0.0360
  462loPI   C2B 7390   6.514   6.655   9.639  0.0499 -0.2092 -0.2184
  462loPI   C3B 7391   6.667   6.941   9.782  0.2144 -0.0918  0.2483
  462loPI   C4B 7392   6.945   7.305   9.735  0.1360  0.1239 -0.0233
  463loPI    C1 7393  17.562  18.203  10.610  0.3338  0.0880 -0.0270
  463loPI    C2 7394  17.463  18.520  10.833  0.0221 -0.1164  0.1319
  463loPI    C3 7395  17.767  18.284  10.943  0.0563 -0.0494  0.1812
  463loPI   PO4 7396  17.321  18.092  10.548 -0.2843  0.0191  0.0178
  463loPI   GL1 7397  17.051  18.043  10.122 -0.2362 -0.1839  0.2108
  463loPI   GL2 7398  16.957  18.291   9.914  0.2352 -0.1441  0.4306
  463loPI   C1A 7399  17.387  17.925   9.784  0.1056 -0.2222 -0.2853
  463loPI   C2A 7400  17.768  17.981   9.606 -0.1887  0.1511  0.0814
  463loPI   C3A 7401  17.801  17.771   9.138 -0.3004  0.2834 -0.0069
  463loPI   C4A 7402  17.944  17.582   8.719 -0.1364 -0.1314  0.2856
  463loPI   C5A 7403  18.091  17.676   8.350 -0.0822 -0.0143 -0.0676
  463loPI   C6A 7404  18.135  17.665   7.934  0.1460 -0.2632 -0.1780
  463loPI   C1B 7405  17.016  18.267   9.460  0.4921 -0.2351 -0.0010
  463loPI   C2B 7406  17.010  18.154   9.028  0.1178 -0.0858  0.1706
  463loPI   C3B 7407  16.777  18.085   8.715  0.1302  0.0612 -0.0777
  463loPI   C4B 7408  16.618  18.082   8.315  0.1685  0.4293 -0.0385
  464loPI    C1 7409  15.665   1.309  10.299  0.0281  0.0755 -0.0838
  464loPI    C2 7410  15.523   1.475  10.634 -0.0378  0.0235 -0.0858
  464loPI    C3 7411  15.880   1.585  10.492  0.0875 -0.1107  0.1205
  464loPI   PO4 7412  15.508   1.412  10.142 -0.3249  0.0245 -0.1125
  464loPI   GL1 7413  15.293   1.538   9.834  0.2028  0.0801  0.2136
  464loPI   GL2 7414  15.243   1.831   9.825  0.0567  0.2246  0.1946
  464loPI   C1A 7415  15.404   1.293   9.448  0.3732 -0.0001  0.2071
  464loPI   C2A 7416  15.528   1.234   9.043 -0.1462 -0.0528 -0.0993
  464loPI   C3A 7417  15.506   1.356   8.617 -0.2283  0.0895  0.2281
  464loPI   C4A 7418  15.547   1.366   8.213  0.0963 -0.0851 -0.0194
  464loPI   C5A 7419  15.172   1.601   7.991 -0.1570 -0.0784  0.0578
  464loPI   C6A 7420  14.718   1.677   8.058 -0.1093 -0.2624 -0.1429
  464loPI   C1B 7421  15.337   1.771   9.414 -0.1521  0.0534 -0.2883
  464loPI   C2B 7422  15.581   1.761   8.946  0.0967 -0.0240  0.2507
  464loPI   C3B 7423  15.719   1.796   8.583 -0.3226 -0.1961  0.4923
  464loPI   C4B 7424  15.876   1.705   8.193 -0.1835  0.2995 -0.0266
  465loPI    C1 7425  12.329   4.416   9.731 -0.0489  0.0585 -0.0016
  465loPI    C2 7426  11.983   4.369   9.535 -0.1459  0.0528  0.1684
  465loPI    C3 7427  12.032   4.679   9.784 -0.0947 -0.0464  0.2831
  465loPI   PO4 7428  12.539   4.358   9.587 -0.0825  0.0524 -0.0456
  465loPI   GL1 7429  12.780   4.059   9.304 -0.3044  0.3326 -0.2495
  465loPI   GL2 7430  12.747   3.852   9.167  0.0289 -0.1008  0.0009
  465loPI   C1A 7431  12.793   4.172   8.817 -0.2389  0.1630  0.0238
  465loPI   C2A 7432  12.895   4.372   8.488  0.0077 -0.1869 -0.0742
  465loPI   C3A 7433  12.842   4.346   8.099 -0.1223  0.2908 -0.0394
  465loPI   C4A 7434  12.705   4.336   7.779  0.4302  0.1888  0.1400
  465loPI   C5A 7435  12.811   4.193   7.390 -0.3620  0.0370  0.1272
  465loPI   C6A 7436  13.011   4.139   7.005 -0.0386 -0.0292 -0.2450
  465loPI   C1B 7437  12.526   3.631   8.794  0.1302 -0.2338 -0.2154
  465loPI   C2B 7438  12.438   3.467   8.479 -0.0636  0.2064 -0.3300
  465loPI   C3B 7439  12.566   3.339   8.114  0.1335  0.2071 -0.0338
  465loPI   C4B 7440  12.611   3.373   7.603 -0.1784 -0.1630 -0.1706
  466loPI    C1 7441  12.097   0.944  10.907 -0.1384 -0.0909  0.0540
  466loPI    C2 7442  12.177   0.639  11.153 -0.1719  0.0054  0.1855
  466loPI    C3 7443  12.191   1.015  11.289  0.1846  0.0844 -0.0535
  466loPI   PO4 7444  12.265   0.777  10.694 -0.0720  0.1691 -0.0453
  466loPI   GL1 7445  12.223   0.719  10.297  0.0743  0.1706 -0.3036
  466loPI   GL2 7446  12.499   0.775  10.180  0.2147 -0.0770 -0.2040
  466loPI   C1A 7447  11.898   0.828   9.962  0.2072 -0.0124  0.0717
  466loPI   C2A 7448  11.878   0.856   9.532  0.0821  0.1904  0.2725
  466loPI   C3A 7449  11.810   0.803   9.078 -0.4511 -0.0372  0.1261
  466loPI   C4A 7450  11.830   0.741   8.645 -0.1088  0.2264 -0.0337
  466loPI   C5A 7451  11.763   0.784   8.230  0.1091 -0.2155 -0.0394
  466loPI   C6A 7452  11.537   0.693   7.899  0.1306  0.1435 -0.1007
  466loPI   C1B 7453  12.316   0.623   9.831 -0.0010 -0.1696 -0.1614
  466loPI   C2B 7454  12.327   0.668   9.389 -0.1721  0.1773 -0.2951
  466loPI   C3B 7455  12.297   0.625   8.937  0.0346  0.2240 -0.0375
  466loPI   C4B 7456  12.307   0.710   8.541  0.0887 -0.3832  0.0856
  467loPI    C1 7457   4.057   2.362  11.130  0.0347  0.0106 -0.0293
  467loPI    C2 7458   3.739   2.272  10.905  0.0011 -0.1298  0.0735
  467loPI    C3 7459   3.704   2.535  11.205  0.1113  0.2751 -0.2595
  467loPI   PO4 7460   4.260   2.478  10.941  0.2655  0.1395  0.0453
  467loPI   GL1 7461   4.131   2.434  10.524  0.0716 -0.0808  0.3858
  467loPI   GL2 7462   4.121   2.155  10.263 -0.2658 -0.3388 -0.1899
  467loPI   C1A 7463   4.239   2.666  10.087 -0.2509  0.0314  0.1047
  467loPI   C2A 7464   4.258   2.620   9.639  0.1711  0.1714  0.0586
  467loPI   C3A 7465   4.379   2.642   9.266  0.1307  0.3053 -0.4196
  467loPI   C4A 7466   4.489   2.719   8.824  0.2929  0.1434  0.1253
  467loPI   C5A 7467   4.492   2.909   8.358  0.1245  0.2157  0.0824
  467loPI   C6A 7468   4.652   3.164   8.009  0.0528  0.0317 -0.0610
  467loPI   C1B 7469   4.110   2.152   9.792  0.0809 -0.1202  0.2197
  467loPI   C2B 7470   4.207   2.185   9.342 -0.0009  0.1658 -0.3094
  467loPI   C3B 7471   4.281   2.222   8.955 -0.0053  0.1644 -0.0693
  467loPI   C4B 7472   4.346   2.322   8.519  0.1933 -0.1825 -0.0702
  468loPI    C1 7473  12.973  12.985  10.867  0.1523 -0.0020 -0.0985
  468loPI    C2 7474  12.806  12.651  10.725  0.0546  0.0452 -0.0957
  468loPI    C3 7475  12.627  13.004  10.667  0.3080  0.1348 -0.3606
  468loPI   PO4 7476  13.266  13.039  10.720  0.3736  0.1905  0.2403
  468loPI   GL1 7477  13.449  13.034  10.304 -0.1719 -0.0066  0.2807
  468loPI   GL2 7478  13.568  12.753  10.175  0.0001  0.2063 -0.3903
  468loPI   C1A 7479  13.704  13.116   9.919  0.0055 -0.3366  0.0535
  468loPI   C2A 7480  13.719  13.093   9.484  0.0189  0.2069  0.1473
  468loPI   C3A 7481  13.698  13.187   9.062 -0.2032 -0.1157  0.0456
  468loPI   C4A 7482  13.723  13.165   8.646  0.1622 -0.1303  0.0421
  468loPI   C5A 7483  13.707  13.108   8.211  0.0320  0.1508  0.0852
  468loPI   C6A 7484  13.472  13.164   7.812  0.1603  0.0219  0.1789
  468loPI   C1B 7485  13.738  12.583   9.815  0.3339 -0.0362  0.0293
  468loPI   C2B 7486  13.780  12.590   9.394 -0.1220  0.1492  0.3334
  468loPI   C3B 7487  13.790  12.659   8.981  0.2343 -0.0779 -0.1414
  468loPI   C4B 7488  13.801  12.707   8.526 -0.0678 -0.3994 -0.1982
  469loPI    C1 7489   6.742  16.108  10.441  0.1435  0.0391  0.0190
  469loPI    C2 7490   6.713  16.319  10.779 -0.0473  0.2325 -0.1145
  469loPI    C3 7491   7.068  16.276  10.599  0.0820  0.0023  0.1868
  469loPI   PO4 7492   6.590  16.177  10.239  0.3759  0.0252  0.1075
  469loPI   GL1 7493   6.527  16.034   9.757  0.0836 -0.1065  0.0372
  469loPI   GL2 7494   6.589  15.689   9.809 -0.1103 -0.1100 -0.1542
  469loPI   C1A 7495   6.343  16.034   9.298 -0.1204 -0.0555  0.3398
  469loPI   C2A 7496   6.081  16.014   8.891 -0.1543 -0.1863 -0.2135
  469loPI   C3A 7497   5.819  16.014   8.623 -0.5091  0.2529 -0.1899
  469loPI   C4A 7498   5.569  15.730   8.642 -0.0221 -0.0426 -0.1414
  469loPI   C5A 7499   5.164  15.667   8.525  0.0311 -0.1716 -0.1431
  469loPI   C6A 7500   4.908  15.611   8.249  0.0791 -0.1073 -0.0943
  469loPI   C1B 7501   6.584  15.619   9.439 -0.0301  0.1338  0.3586
  469loPI   C2B 7502   6.438  15.575   9.047  0.0772 -0.0454  0.1743
  469loPI   C3B 7503   6.538  15.823   8.710 -0.0780 -0.0353  0.0999
  469loPI   C4B 7504   6.290  16.011   8.402  0.0320 -0.0930 -0.0824
  470loPI    C1 7505  15.111   9.690  10.541 -0.0257 -0.0144  0.0265
  470loPI    C2 7506  14.943   9.339  10.632  0.1215 -0.0787  0.0515
  470loPI    C3 7507  14.874   9.659  10.862  0.0513 -0.1103  0.0745
  470loPI   PO4 7508  15.112   9.640  10.272 -0.4117  0.1083 -0.2384
  470loPI   GL1 7509  14.842   9.513  10.028 -0.0971 -0.1825  0.1656
  470loPI   GL2 7510  14.651   9.819   9.988  0.2558  0.1223  0.1859
  470loPI   C1A 7511  15.103   9.724   9.683  0.1834  0.0539  0.2748
  470loPI   C2A 7512  15.114   9.735   9.298  0.3336 -0.1799 -0.0920
  470loPI   C3A 7513  15.073   9.650   8.877  0.1842 -0.1512 -0.1481
  470loPI   C4A 7514  15.071   9.695   8.533  0.2226 -0.4316 -0.0909
  470loPI   C5A 7515  15.059   9.772   8.057 -0.0518 -0.4555  0.0109
  470loPI   C6A 7516  15.083   9.737   7.588 -0.1307 -0.1954  0.2889
  470loPI   C1B 7517  14.652   9.875   9.497  0.0043 -0.0533 -0.2090
  470loPI   C2B 7518  14.611   9.855   9.124  0.2472 -0.0175  0.1026
  470loPI   C3B 7519  14.627   9.876   8.656  0.0640 -0.0809  0.1792
  470loPI   C4B 7520  14.592   9.925   8.278  0.1409 -0.0212  0.0966
  471loPI    C1 7521   0.454  15.144  10.841 -0.2303 -0.0628  0.0716
  471loPI    C2 7522   0.567  15.414  11.113  0.0766 -0.0640 -0.0509
  471loPI    C3 7523   0.504  15.035  11.223  0.0126 -0.0241  0.0523
  471loPI   PO4 7524   0.590  15.217  10.621  0.0022 -0.1841 -0.0728
  471loPI   GL1 7525   0.460  15.407  10.219 -0.3413  0.2144 -0.1513
  471loPI   GL2 7526   0.246  15.286  10.198 -0.0467  0.2118  0.1058
  471loPI   C1A 7527   0.471  15.559   9.845 -0.2707  0.0501  0.2184
  471loPI   C2A 7528   0.671  15.407   9.397 -0.2429 -0.1342  0.1060
  471loPI   C3A 7529   0.500  15.437   8.995 -0.0253  0.0877  0.1056
  471loPI   C4A 7530   0.394  15.411   8.578  0.0319 -0.1205  0.3038
  471loPI   C5A 7531   0.641  15.499   8.206 -0.0236  0.1584 -0.1047
  471loPI   C6A 7532   0.718  15.651   7.826 -0.0004  0.2939  0.0429
  471loPI   C1B 7533   0.166  15.051   9.783  0.1016 -0.0676 -0.2577
  471loPI   C2B 7534   0.146  15.200   9.450 -0.0176  0.1535 -0.1077
  471loPI   C3B 7535   0.107  15.123   9.020  0.0131 -0.0421  0.0905
  471loPI   C4B 7536  -0.038  15.058   8.534  0.3106 -0.1523  0.1388
  472loPI    C1 7537  15.625  17.264  10.639  0.2110 -0.2669  0.1627
  472loPI    C2 7538  15.358  17.327  10.930 -0.0364 -0.2573 -0.0629
  472loPI    C3 7539  15.731  17.216  11.022 -0.0142  0.0752  0.2726
  472loPI   PO4 7540  15.502  17.120  10.479 -0.0436 -0.1696  0.1528
  472loPI   GL1 7541  15.347  16.856  10.138  0.0858 -0.0791 -0.1214
  472loPI   GL2 7542  15.053  17.087  10.161  0.2123 -0.2485 -0.0401
  472loPI   C1A 7543  15.429  16.759   9.779  0.1596 -0.0918 -0.1280
  472loPI   C2A 7544  15.424  16.869   9.383 -0.1553  0.2078  0.1437
  472loPI   C3A 7545  15.482  16.831   8.953  0.2219 -0.1055  0.0229
  472loPI   C4A 7546  15.395  16.842   8.484  0.0682  0.0462  0.2714
  472loPI   C5A 7547  15.402  16.766   8.046  0.5251 -0.0444  0.1776
  472loPI   C6A 7548  14.934  16.727   7.852  0.0111 -0.2085 -0.2015
  472loPI   C1B 7549  14.993  16.987   9.759 -0.1558  0.0531 -0.2641
  472loPI   C2B 7550  14.950  17.040   9.379 -0.0955  0.3192 -0.3105
  472loPI   C3B 7551  14.961  17.052   8.950  0.1288  0.1464  0.2163
  472loPI   C4B 7552  14.805  16.967   8.607 -0.1253 -0.3820  0.1424
  473loPI    C1 7553   7.600   9.520  10.803  0.1228 -0.1615  0.2081
  473loPI    C2 7554   7.718   9.873  10.656 -0.1039 -0.1746 -0.0119
  473loPI    C3 7555   7.722   9.809  11.051  0.0052  0.0483  0.0243
  473loPI   PO4 7556   7.547   9.375  10.555  0.2954  0.0506  0.0989
  473loPI   GL1 7557   7.385   9.356  10.156 -0.2108  0.0252 -0.1330
  473loPI   GL2 7558   7.278   9.677  10.242 -0.1007  0.1099  0.3170
  473loPI   C1A 7559   7.301   9.401   9.773  0.2093 -0.1097  0.0082
  473loPI   C2A 7560   7.355   9.482   9.383 -0.4292  0.2527 -0.0182
  473loPI   C3A 7561   7.439   9.533   8.916  0.0927  0.2102 -0.0835
  473loPI   C4A 7562   7.394   9.455   8.552  0.1982  0.2832  0.1456
  473loPI   C5A 7563   7.180   9.519   8.280  0.2522  0.1037  0.0382
  473loPI   C6A 7564   6.864   9.433   7.989 -0.1000  0.0444  0.0586
  473loPI   C1B 7565   7.295   9.960   9.792 -0.0225  0.0921  0.4972
  473loPI   C2B 7566   7.297   9.962   9.377 -0.1173 -0.3171  0.1992
  473loPI   C3B 7567   7.336  10.066   8.987 -0.4433 -0.0044 -0.1914
  473loPI   C4B 7568   7.431  10.020   8.641 -0.3144 -0.0891  0.0275
  474loPI    C1 7569   2.800   3.440  10.372  0.0823 -0.0556  0.0036
  474loPI    C2 7570   2.827   3.374  10.766 -0.0757 -0.1989 -0.0087
  474loPI    C3 7571   2.988   3.114  10.508 -0.0015 -0.1223 -0.0396
  474loPI   PO4 7572   2.780   3.711  10.415  0.1598 -0.1347  0.3295
  474loPI   GL1 7573   3.013   4.002  10.175  0.0217  0.0412  0.3330
  474loPI   GL2 7574   3.074   3.740   9.959  0.2007 -0.0888 -0.3534
  474loPI   C1A 7575   3.095   4.233   9.795  0.1149  0.3067 -0.5171
  474loPI   C2A 7576   3.113   4.221   9.304  0.2403 -0.2043  0.2192
  474loPI   C3A 7577   3.113   4.269   8.773 -0.0914 -0.0164 -0.2775
  474loPI   C4A 7578   3.114   4.207   8.280 -0.0989  0.1297  0.0278
  474loPI   C5A 7579   3.024   4.317   7.850  0.1201 -0.0595  0.0474
  474loPI   C6A 7580   3.221   4.740   7.794  0.0900 -0.2187 -0.0962
  474loPI   C1B 7581   2.947   3.807   9.570 -0.0863 -0.0361  0.2750
  474loPI   C2B 7582   2.909   3.710   9.155 -0.0799 -0.0928 -0.0302
  474loPI   C3B 7583   2.972   3.801   8.672  0.0293 -0.0837 -0.0015
  474loPI   C4B 7584   3.060   3.686   8.258  0.2059  0.0693  0.0069
  475loPI    C1 7585   6.668   4.908  10.488 -0.1308 -0.1746 -0.1213
  475loPI    C2 7586   6.406   4.934  10.789 -0.0958  0.1896 -0.1185
  475loPI    C3 7587   6.790   4.854  10.865 -0.1333  0.0335 -0.0899
  475loPI   PO4 7588   6.530   4.762  10.302 -0.1120 -0.4605  0.1524
  475loPI   GL1 7589   6.765   4.562   9.943 -0.1025  0.1810 -0.0906
  475loPI   GL2 7590   6.738   4.353  10.094 -0.0083  0.2044  0.2474
  475loPI   C1A 7591   6.760   4.592   9.430  0.1067 -0.4786 -0.2241
  475loPI   C2A 7592   6.946   4.607   9.011  0.0476 -0.0210  0.0376
  475loPI   C3A 7593   6.933   4.668   8.601 -0.0851  0.1014 -0.1050
  475loPI   C4A 7594   6.970   4.718   8.081  0.2248 -0.2507 -0.1156
  475loPI   C5A 7595   6.812   4.455   7.757 -0.1042  0.0463 -0.0072
  475loPI   C6A 7596   6.501   4.222   7.808 -0.0474 -0.1642 -0.0040
  475loPI   C1B 7597   6.663   4.122   9.586  0.1136  0.4509  0.1617
  475loPI   C2B 7598   6.763   4.096   9.192  0.2982 -0.2098  0.1700
  475loPI   C3B 7599   6.835   4.182   8.737 -0.1142  0.2594 -0.2101
  475loPI   C4B 7600   6.869   4.260   8.275  0.0726  0.2362  0.1093
  476loPI    C1 7601  11.301  13.926  10.891  0.0802 -0.0541  0.2638
  476loPI    C2 7602  11.532  13.722  10.636 -0.0138 -0.0365  0.1638
  476loPI    C3 7603  11.624  13.732  11.025  0.0459 -0.1884  0.1545
  476loPI   PO4 7604  11.216  14.172  10.827 -0.0614 -0.0851 -0.0019
  476loPI   GL1 7605  11.025  14.475  10.565  0.0419 -0.1328  0.2196
  476loPI   GL2 7606  10.900  14.366  10.349 -0.0721  0.0485 -0.2862
  476loPI   C1A 7607  11.187  14.716  10.173 -0.2150 -0.1608  0.1206
  476loPI   C2A 7608  11.185  14.580   9.736  0.1235  0.0545  0.0193
  476loPI   C3A 7609  11.164  14.552   9.331 -0.0252 -0.2037  0.0495
  476loPI   C4A 7610  11.156  14.552   8.892 -0.0324  0.0578 -0.1175
  476loPI   C5A 7611  11.132  14.578   8.480  0.0692  0.2857 -0.1867
  476loPI   C6A 7612  10.877  14.396   8.159 -0.0561 -0.0210 -0.0510
  476loPI   C1B 7613  10.832  14.340   9.951  0.0001 -0.4473  0.1698
  476loPI   C2B 7614  10.802  14.232   9.529  0.1738 -0.0574  0.0243
  476loPI   C3B 7615  10.645  14.265   9.163 -0.1369  0.2702 -0.0459
  476loPI   C4B 7616  10.781  14.229   8.784 -0.0090  0.1990  0.1412
  477loPI    C1 7617  17.618   1.355  10.451 -0.0844  0.1981 -0.1382
  477loPI    C2 7618  17.296   1.154  10.579  0.0817 -0.0817 -0.1505
  477loPI    C3 7619  17.456   1.443  10.805  0.0115 -0.1591 -0.0006
  477loPI   PO4 7620  17.679   1.323  10.241 -0.2571 -0.1900  0.1466
  477loPI   GL1 7621  17.890   1.124   9.899 -0.1541  0.0989 -0.0495
  477loPI   GL2 7622  18.152   1.218   9.779  0.0945 -0.3671  0.1323
  477loPI   C1A 7623  17.792   1.044   9.527 -0.3262  0.0587  0.2164
  477loPI   C2A 7624  17.860   0.956   9.078 -0.0822  0.0856 -0.1194
  477loPI   C3A 7625  17.903   1.040   8.619  0.3206  0.4005  0.0009
  477loPI   C4A 7626  17.863   0.893   8.232  0.2504  0.0603 -0.1450
  477loPI   C5A 7627  18.141   0.811   7.840  0.0463  0.0019 -0.2365
  477loPI   C6A 7628  18.531   0.489   7.822  0.0831  0.3346  0.2177
  477loPI   C1B 7629  18.331   1.125   9.345  0.2127  0.3788  0.2877
  477loPI   C2B 7630  18.297   1.121   8.935 -0.1546 -0.0825 -0.1709
  477loPI   C3B 7631  18.454   0.974   8.526 -0.1946  0.0056 -0.0456
  477loPI   C4B 7632  18.482   1.097   8.096 -0.1387  0.0968  0.1339
  478loPI    C1 7633  14.367   2.973   9.800  0.0870 -0.0437 -0.0036
  478loPI    C2 7634  14.048   3.161   9.650 -0.0223 -0.1654  0.0737
  478loPI    C3 7635  14.294   3.353   9.901 -0.0067 -0.0562 -0.0242
  478loPI   PO4 7636  14.406   2.799   9.618  0.0731 -0.1860  0.1195
  478loPI   GL1 7637  14.360   2.669   9.152 -0.0280  0.0088 -0.2687
  478loPI   GL2 7638  14.150   2.814   9.209 -0.1493 -0.0058  0.1572
  478loPI   C1A 7639  14.169   2.776   8.649 -0.1317  0.3440 -0.0714
  478loPI   C2A 7640  14.199   2.919   8.231  0.1304  0.0018  0.0054
  478loPI   C3A 7641  13.977   3.062   7.906 -0.0106 -0.1551 -0.1140
  478loPI   C4A 7642  13.798   3.399   7.796  0.0186 -0.0905  0.0132
  478loPI   C5A 7643  13.552   3.683   7.495  0.1730  0.0112 -0.1391
  478loPI   C6A 7644  13.099   3.791   7.500  0.1786 -0.0564  0.1900
  478loPI   C1B 7645  13.927   2.441   8.958  0.2152 -0.3045  0.0085
  478loPI   C2B 7646  13.721   2.487   8.541 -0.3896  0.0621  0.0024
  478loPI   C3B 7647  13.792   2.644   8.092  0.0705 -0.1246  0.2319
  478loPI   C4B 7648  13.651   2.442   7.690 -0.0635  0.2251 -0.0335
  479loPI    C1 7649   5.579  15.869  10.185 -0.0206 -0.1055  0.2279
  479loPI    C2 7650   5.788  15.542  10.284  0.0583 -0.1694 -0.1376
  479loPI    C3 7651   5.404  15.510  10.174  0.0591 -0.1360 -0.1504
  479loPI   PO4 7652   5.783  15.990  10.016  0.2140 -0.2911 -0.0161
  479loPI   GL1 7653   5.930  15.959   9.654  0.5806  0.2318 -0.0650
  479loPI   GL2 7654   6.069  16.272   9.625  0.1277 -0.3540  0.1277
  479loPI   C1A 7655   5.960  15.617   9.311  0.0583  0.2795 -0.0608
  479loPI   C2A 7656   5.885  15.451   8.936  0.1062  0.0574  0.0882
  479loPI   C3A 7657   6.020  15.402   8.488  0.0345 -0.0542  0.2611
  479loPI   C4A 7658   6.083  15.643   8.174  0.1045  0.1193  0.0341
  479loPI   C5A 7659   6.029  15.778   7.803  0.2226  0.2237 -0.2471
  479loPI   C6A 7660   6.216  15.831   7.332  0.0048 -0.0151  0.0479
  479loPI   C1B 7661   5.807  16.421   9.244  0.1315  0.2611  0.0020
  479loPI   C2B 7662   5.729  16.546   8.754 -0.1204 -0.1003 -0.1588
  479loPI   C3B 7663   5.782  16.673   8.297  0.0066  0.1341  0.1645
  479loPI   C4B 7664   5.778  16.768   7.918 -0.3615 -0.4123  0.0192
  480loPI    C1 7665  10.902  16.060  10.845  0.1759 -0.1752 -0.0908
  480loPI    C2 7666  10.522  15.944  10.806  0.1429 -0.0140 -0.2604
  480loPI    C3 7667  10.632  16.166  11.120  0.1148 -0.1305 -0.1676
  480loPI   PO4 7668  11.019  15.919  10.761 -0.3410  0.0762 -0.1588
  480loPI   GL1 7669  11.168  15.802  10.369 -0.1717  0.2067  0.1223
  480loPI   GL2 7670  11.449  15.514  10.317 -0.0581  0.0057 -0.2808
  480loPI   C1A 7671  10.842  15.656  10.154 -0.1724 -0.0824 -0.0566
  480loPI   C2A 7672  10.608  15.784   9.789  0.0371  0.0695 -0.4104
  480loPI   C3A 7673  10.521  15.845   9.344  0.1925  0.0961  0.0048
  480loPI   C4A 7674  10.555  15.829   8.885  0.2538  0.0914 -0.0165
  480loPI   C5A 7675  10.556  15.883   8.431  0.0009 -0.0025  0.1040
  480loPI   C6A 7676  10.695  15.843   8.072 -0.2220  0.1029  0.3117
  480loPI   C1B 7677  11.398  15.500   9.880  0.1308 -0.2387  0.1723
  480loPI   C2B 7678  11.545  15.415   9.485 -0.0240  0.1918 -0.3296
  480loPI   C3B 7679  11.511  15.482   9.132 -0.0142  0.2663  0.4241
  480loPI   C4B 7680  11.576  15.305   8.736 -0.0034 -0.0182 -0.0398
  481loPI    C1 7681  14.477   0.706  10.485 -0.0382 -0.0680  0.2638
  481loPI    C2 7682  14.342   1.043  10.316 -0.2018 -0.2744 -0.0285
  481loPI    C3 7683  14.559   1.059  10.653 -0.0273  0.1343 -0.1545
  481loPI   PO4 7684  14.597   0.618  10.359 -0.0742  0.0351  0.0325
  481loPI   GL1 7685  14.741   0.377   9.999 -0.2991 -0.0481  0.1269
  481loPI   GL2 7686  15.010   0.602   9.781 -0.0791 -0.0283  0.0648
  481loPI   C1A 7687  14.690   0.144   9.646  0.3261 -0.0902  0.0374
  481loPI   C2A 7688  14.695   0.186   9.197  0.0294  0.1660 -0.0214
  481loPI   C3A 7689  14.776   0.134   8.726 -0.0955 -0.2729 -0.0406
  481loPI   C4A 7690  14.698   0.134   8.296  0.2093  0.0551 -0.1526
  481loPI   C5A 7691  14.585  -0.177   8.051 -0.0354 -0.0304 -0.0975
  481loPI   C6A 7692  14.307  -0.214   7.723  0.2576  0.2640 -0.0296
  481loPI   C1B 7693  15.048   0.485   9.391  0.2474 -0.0781 -0.0193
  481loPI   C2B 7694  15.190   0.500   9.029 -0.0941 -0.0475  0.0391
  481loPI   C3B 7695  15.338   0.402   8.535  0.4752  0.0496 -0.1971
  481loPI   C4B 7696  15.485   0.233   8.162 -0.1656  0.1827 -0.2360
  482loPI    C1 7697  17.675   7.720  10.841 -0.1632 -0.1278  0.0691
  482loPI    C2 7698  17.894   7.441  10.657 -0.0423  0.0074  0.0067
  482loPI    C3 7699  17.878   7.451  11.056 -0.0024 -0.0550  0.0100
  482loPI   PO4 7700  17.489   7.759  10.637 -0.2045  0.2744  0.4771
  482loPI   GL1 7701  17.802   8.029  10.366 -0.2871  0.2048 -0.1856
  482loPI   GL2 7702  17.963   7.748  10.220  0.0385  0.0896  0.1010
  482loPI   C1A 7703  18.084   8.203  10.119  0.1001 -0.0232  0.1649
  482loPI   C2A 7704  18.272   8.234   9.719 -0.0477  0.2384  0.1254
  482loPI   C3A 7705  18.378   8.380   9.334  0.1155  0.1921  0.0729
  482loPI   C4A 7706  18.427   8.395   8.942 -0.0191 -0.3628  0.1390
  482loPI   C5A 7707  18.490   8.393   8.452 -0.1123 -0.1724 -0.3381
  482loPI   C6A 7708  18.717   8.283   8.139  0.1881  0.0299  0.4126
  482loPI   C1B 7709  18.001   7.735   9.761  0.0449 -0.1317  0.1666
  482loPI   C2B 7710  18.087   7.968   9.370  0.0455 -0.4451 -0.0187
  482loPI   C3B 7711  18.127   8.038   8.950 -0.1912  0.0865  0.1378
  482loPI   C4B 7712  18.063   8.191   8.614  0.0290  0.0420 -0.1459
  483loPI    C1 7713   7.289   1.668  10.600  0.0040 -0.0013 -0.0570
  483loPI    C2 7714   7.544   1.942  10.459 -0.0764  0.0096 -0.1828
  483loPI    C3 7715   7.629   1.553  10.423 -0.0812  0.0130 -0.2328
  483loPI   PO4 7716   7.115   1.730  10.517  0.0185  0.1474  0.1550
  483loPI   GL1 7717   6.818   1.783  10.208  0.1233  0.2344 -0.2060
  483loPI   GL2 7718   6.664   2.060  10.183  0.2139 -0.0814 -0.2087
  483loPI   C1A 7719   6.912   1.893   9.719 -0.0947  0.0560  0.0774
  483loPI   C2A 7720   6.869   1.849   9.335  0.0329 -0.0602  0.0481
  483loPI   C3A 7721   6.914   1.805   8.856 -0.1004  0.0301  0.2109
  483loPI   C4A 7722   6.952   1.823   8.489 -0.0527 -0.0148  0.3729
  483loPI   C5A 7723   7.081   1.756   8.043 -0.0701 -0.0995 -0.0661
  483loPI   C6A 7724   7.152   1.692   7.603 -0.1061 -0.1289 -0.1121
  483loPI   C1B 7725   6.507   2.245   9.770  0.0063 -0.0846  0.0611
  483loPI   C2B 7726   6.583   2.234   9.293 -0.0546 -0.0457 -0.0285
  483loPI   C3B 7727   6.668   2.269   8.902 -0.2059 -0.3168 -0.2437
  483loPI   C4B 7728   6.680   2.259   8.441 -0.0717 -0.0614  0.1268
  484loPI    C1 7729  10.726  17.037  10.938 -0.1130 -0.1566  0.0369
  484loPI    C2 7730  10.730  17.012  11.337 -0.2547 -0.0123  0.0484
  484loPI    C3 7731  10.812  16.689  11.116  0.1045 -0.0253  0.1933
  484loPI   PO4 7732  10.816  17.311  10.852 -0.0227 -0.0815 -0.0802
  484loPI   GL1 7733  10.687  17.416  10.413 -0.1976  0.2302  0.1051
  484loPI   GL2 7734  10.499  17.485  10.153  0.2494  0.2636  0.1422
  484loPI   C1A 7735  10.813  17.218   9.885  0.0190  0.0118  0.3282
  484loPI   C2A 7736  10.944  17.136   9.481  0.1407 -0.1140 -0.1045
  484loPI   C3A 7737  10.948  16.832   9.179 -0.1597  0.2858 -0.0535
  484loPI   C4A 7738  10.986  16.666   8.743 -0.1562  0.0797  0.1638
  484loPI   C5A 7739  10.897  16.541   8.384  0.0772  0.2413  0.0450
  484loPI   C6A 7740  10.530  16.421   8.228 -0.1472 -0.1409 -0.3504
  484loPI   C1B 7741  10.399  17.358   9.649 -0.3687  0.0640  0.0091
  484loPI   C2B 7742  10.524  17.327   9.243 -0.1698  0.2306  0.0066
  484loPI   C3B 7743  10.642  17.208   8.838  0.1997  0.2211  0.1508
  484loPI   C4B 7744  10.879  17.109   8.478 -0.0811  0.2055  0.1901
  485loPI    C1 7745  15.180   6.461  10.090 -0.1258  0.1597 -0.0103
  485loPI    C2 7746  15.369   6.246  10.370 -0.2438  0.0129 -0.0418
  485loPI    C3 7747  15.175   6.581  10.471  0.0477  0.1765 -0.0125
  485loPI   PO4 7748  15.284   6.517   9.902 -0.1489  0.0128 -0.0841
  485loPI   GL1 7749  15.297   6.546   9.383 -0.1372  0.1468  0.1965
  485loPI   GL2 7750  15.448   6.284   9.515  0.2238  0.1614 -0.4757
  485loPI   C1A 7751  15.558   6.613   9.120  0.2271 -0.1574  0.2259
  485loPI   C2A 7752  15.597   6.684   8.719 -0.1063  0.0285  0.1903
  485loPI   C3A 7753  15.578   6.610   8.247 -0.3364  0.0892 -0.0046
  485loPI   C4A 7754  15.473   6.566   7.860  0.0771 -0.1753 -0.1441
  485loPI   C5A 7755  15.688   6.256   7.580 -0.0167  0.0254  0.2460
  485loPI   C6A 7756  15.720   5.766   7.596 -0.1061 -0.2860 -0.0027
  485loPI   C1B 7757  15.553   6.092   9.050 -0.1730  0.2830  0.1545
  485loPI   C2B 7758  15.674   6.123   8.570  0.1040  0.0040 -0.3822
  485loPI   C3B 7759  15.635   5.954   8.076 -0.1728  0.2704  0.0323
  485loPI   C4B 7760  15.271   6.020   7.741 -0.0484  0.2714  0.0174
  486loPI    C1 7761   7.153  13.469  10.893 -0.0344  0.2151  0.0521
  486loPI    C2 7762   7.379  13.197  11.080  0.0895  0.1788 -0.1468
  486loPI    C3 7763   6.995  13.243  11.182  0.0955  0.0024 -0.0405
  486loPI   PO4 7764   7.214  13.390  10.614 -0.2269 -0.0928  0.1076
  486loPI   GL1 7765   7.354  13.517  10.222  0.1301 -0.0627 -0.1780
  486loPI   GL2 7766   7.015  13.543  10.140 -0.0323 -0.0004  0.1405
  486loPI   C1A 7767   7.621  13.303  10.027  0.2435 -0.3235  0.0466
  486loPI   C2A 7768   7.714  13.300   9.558 -0.0871 -0.0625 -0.0003
  486loPI   C3A 7769   7.782  13.296   9.077  0.0004  0.4702  0.1647
  486loPI   C4A 7770   7.851  13.281   8.662 -0.1809  0.1006  0.1193
  486loPI   C5A 7771   7.860  13.279   8.197 -0.1247 -0.2003  0.0274
  486loPI   C6A 7772   8.150  13.085   7.849  0.0871 -0.1108  0.0473
  486loPI   C1B 7773   6.787  13.548   9.728  0.3139  0.0083 -0.1083
  486loPI   C2B 7774   6.811  13.610   9.241  0.0024  0.1839 -0.2212
  486loPI   C3B 7775   6.825  13.686   8.765  0.0186 -0.2907 -0.0897
  486loPI   C4B 7776   6.712  13.830   8.218 -0.1807 -0.4949 -0.2541
  487loPI    C1 7777  11.124   3.951  10.046  0.0288 -0.1206 -0.0409
  487loPI    C2 7778  11.510   3.928   9.942  0.0225  0.0176 -0.0985
  487loPI    C3 7779  11.400   4.152  10.255 -0.0220  0.0591 -0.1437
  487loPI   PO4 7780  11.030   3.766  10.046 -0.0025  0.1191  0.0804
  487loPI   GL1 7781  10.944   3.540   9.662  0.0999  0.0823  0.1069
  487loPI   GL2 7782  10.924   3.157   9.654 -0.1098  0.0631  0.0789
  487loPI   C1A 7783  10.617   3.723   9.416 -0.0084 -0.1158 -0.4076
  487loPI   C2A 7784  10.664   3.751   8.955  0.0350 -0.1750  0.0058
  487loPI   C3A 7785  10.805   3.511   8.527  0.1447 -0.0653  0.0327
  487loPI   C4A 7786  10.453   3.374   8.139  0.0144  0.3612  0.0851
  487loPI   C5A 7787  10.101   3.480   7.733 -0.0688  0.1038  0.2237
  487loPI   C6A 7788   9.714   3.712   7.572 -0.0556 -0.1826 -0.0681
  487loPI   C1B 7789  10.870   3.321   9.237  0.0929 -0.0071 -0.0066
  487loPI   C2B 7790  11.158   3.366   8.830 -0.0166  0.3307 -0.1877
  487loPI   C3B 7791  11.410   3.353   8.420  0.0622 -0.2041  0.0484
  487loPI   C4B 7792  11.566   3.180   8.054  0.1067 -0.0233  0.2754
  488loPI    C1 7793  17.481  12.831  10.941 -0.1075  0.0183 -0.2596
  488loPI    C2 7794  17.386  13.115  11.206  0.0022 -0.0234 -0.1743
  488loPI    C3 7795  17.175  12.776  11.193  0.0333 -0.0459 -0.1003
  488loPI   PO4 7796  17.687  12.993  10.802  0.0539  0.1688  0.0974
  488loPI   GL1 7797  17.641  13.199  10.387 -0.0529 -0.0200  0.1105
  488loPI   GL2 7798  17.713  13.494  10.342 -0.0799  0.2266  0.4829
  488loPI   C1A 7799  17.774  13.041   9.976  0.0624 -0.1515  0.0512
  488loPI   C2A 7800  17.848  12.995   9.593  0.2220  0.1497  0.0769
  488loPI   C3A 7801  17.891  12.967   9.142 -0.0119 -0.0881  0.0671
  488loPI   C4A 7802  17.723  12.848   8.780  0.2543 -0.0963  0.0173
  488loPI   C5A 7803  17.799  12.783   8.417 -0.2769 -0.1702  0.2631
  488loPI   C6A 7804  18.002  12.661   8.061 -0.3109  0.0907 -0.3923
  488loPI   C1B 7805  17.700  13.539   9.925 -0.1132 -0.2352 -0.3609
  488loPI   C2B 7806  17.794  13.491   9.528  0.0953 -0.0344 -0.1306
  488loPI   C3B 7807  17.814  13.464   9.137 -0.1377 -0.1654  0.0197
  488loPI   C4B 7808  17.777  13.437   8.666 -0.2237  0.1870 -0.1167
  489loPI    C1 7809  10.020   6.022  10.374 -0.0071 -0.0262 -0.1348
  489loPI    C2 7810   9.818   5.831  10.662 -0.2047  0.1849 -0.1305
  489loPI    C3 7811  10.076   6.122  10.757  0.3756 -0.3159 -0.1089
  489loPI   PO4 7812   9.836   6.084  10.173 -0.0430  0.0986 -0.0365
  489loPI   GL1 7813   9.797   6.229   9.753  0.0076 -0.2697  0.1423
  489loPI   GL2 7814   9.546   5.971   9.804  0.0305  0.0635 -0.2446
  489loPI   C1A 7815   9.801   6.459   9.323  0.0939  0.0997 -0.5556
  489loPI   C2A 7816   9.904   6.427   8.871 -0.1469 -0.1296 -0.1086
  489loPI   C3A 7817   9.885   6.395   8.434  0.0394  0.1286 -0.0928
  489loPI   C4A 7818   9.937   6.481   8.003  0.0759 -0.1794 -0.1483
  489loPI   C5A 7819  10.110   6.689   7.750  0.0752  0.1140  0.2085
  489loPI   C6A 7820  10.371   6.839   7.373  0.1840 -0.1046 -0.0872
  489loPI   C1B 7821   9.488   6.036   9.320 -0.2136  0.1664  0.1630
  489loPI   C2B 7822   9.443   6.045   8.898 -0.0154  0.1798 -0.0448
  489loPI   C3B 7823   9.585   6.012   8.444  0.0302 -0.1238  0.0268
  489loPI   C4B 7824   9.582   6.173   8.077  0.0712  0.0517 -0.1534
  490loPI    C1 7825   0.296  15.607  10.691 -0.3168  0.0386 -0.1685
  490loPI    C2 7826   0.021  15.323  10.629 -0.2715 -0.0448  0.0080
  490loPI    C3 7827   0.041  15.509  10.983 -0.1099 -0.0294 -0.0082
  490loPI   PO4 7828   0.250  15.763  10.471 -0.1306  0.0593 -0.0835
  490loPI   GL1 7829   0.042  15.731  10.139  0.0971 -0.1264  0.0226
  490loPI   GL2 7830  -0.187  15.581  10.191 -0.0903 -0.2921  0.0582
  490loPI   C1A 7831   0.017  15.734   9.682 -0.1748  0.1970 -0.0138
  490loPI   C2A 7832   0.148  15.648   9.236  0.2095 -0.1334 -0.0782
  490loPI   C3A 7833   0.003  15.591   8.845 -0.0179  0.0365  0.1341
  490loPI   C4A 7834  -0.103  15.542   8.455  0.0509 -0.0002  0.1644
  490loPI   C5A 7835  -0.264  15.624   8.067  0.1070 -0.3575  0.3785
  490loPI   C6A 7836  -0.250  15.872   7.717  0.0964 -0.1754  0.1950
  490loPI   C1B 7837  -0.246  15.334   9.873  0.0590  0.1610  0.4141
  490loPI   C2B 7838  -0.347  15.385   9.472  0.1003  0.0116  0.0960
  490loPI   C3B 7839  -0.382  15.334   9.037  0.2861 -0.0524 -0.1060
  490loPI   C4B 7840  -0.508  15.291   8.677 -0.1220 -0.1274 -0.2684
  491loPI    C1 7841  13.285   8.870  10.104  0.1525 -0.0179 -0.1072
  491loPI    C2 7842  13.281   9.269  10.140  0.0722 -0.0227 -0.0607
  491loPI    C3 7843  13.540   9.052  10.353  0.0498 -0.0024 -0.0127
  491loPI   PO4 7844  13.005   8.863  10.054 -0.3771 -0.0106 -0.3558
  491loPI   GL1 7845  12.840   8.906   9.693  0.1148 -0.1142 -0.0474
  491loPI   GL2 7846  13.058   9.147   9.662 -0.0006 -0.3598  0.1125
  491loPI   C1A 7847  12.594   8.918   9.370 -0.2672  0.0403 -0.1565
  491loPI   C2A 7848  12.560   8.851   8.937 -0.1591  0.0525 -0.0180
  491loPI   C3A 7849  12.545   8.786   8.485  0.1266 -0.0569 -0.0661
  491loPI   C4A 7850  12.553   8.725   8.036 -0.3075 -0.3620 -0.1850
  491loPI   C5A 7851  12.482   8.881   7.631 -0.0187  0.0187  0.0930
  491loPI   C6A 7852  12.301   9.081   7.297 -0.1232  0.1919  0.0798
  491loPI   C1B 7853  13.046   9.164   9.283  0.1584 -0.0872 -0.3092
  491loPI   C2B 7854  12.969   9.087   8.819 -0.0365  0.2860 -0.1277
  491loPI   C3B 7855  12.907   9.095   8.393  0.0091  0.0118  0.1495
  491loPI   C4B 7856  12.953   9.120   8.009 -0.1061  0.1807 -0.0878
  492loPI    C1 7857   6.577   5.385  10.438  0.1202 -0.0328 -0.1933
  492loPI    C2 7858   6.774   5.336  10.782 -0.0486 -0.2584 -0.1255
  492loPI    C3 7859   6.975   5.351  10.437  0.1403  0.1760 -0.0040
  492loPI   PO4 7860   6.334   5.284  10.475 -0.0032 -0.0762  0.1392
  492loPI   GL1 7861   6.182   5.278  10.053  0.0166  0.0852 -0.1357
  492loPI   GL2 7862   6.195   4.951   9.934 -0.0718  0.1234 -0.2176
  492loPI   C1A 7863   6.257   5.730   9.764 -0.2264 -0.2600 -0.1847
  492loPI   C2A 7864   6.136   6.113   9.507 -0.0413 -0.0803  0.4446
  492loPI   C3A 7865   6.381   6.419   9.172 -0.1954 -0.3105 -0.0471
  492loPI   C4A 7866   6.782   6.356   9.090 -0.1615  0.2895  0.2013
  492loPI   C5A 7867   6.880   6.315   8.644 -0.1551  0.0364 -0.0234
  492loPI   C6A 7868   6.825   6.273   8.302  0.2373 -0.0247  0.1239
  492loPI   C1B 7869   6.359   4.895   9.623 -0.2453  0.0022  0.0340
  492loPI   C2B 7870   6.566   5.004   9.189  0.0526  0.1923  0.0988
  492loPI   C3B 7871   6.701   5.137   8.811 -0.2181  0.4467 -0.2471
  492loPI   C4B 7872   6.742   5.158   8.394 -0.2316 -0.1283 -0.0339
  493loPI    C1 7873   5.412  17.820  10.831 -0.1735  0.0298 -0.0427
  493loPI    C2 7874   5.074  17.667  10.681 -0.1386 -0.0299 -0.0605
  493loPI    C3 7875   5.223  17.524  11.023 -0.0063 -0.1645 -0.1727
  493loPI   PO4 7876   5.465  17.944  10.675 -0.0227 -0.1575 -0.2693
  493loPI   GL1 7877   5.574  17.902  10.208 -0.0413 -0.1649  0.1320
  493loPI   GL2 7878   5.810  18.161  10.149  0.2013 -0.1501 -0.0729
  493loPI   C1A 7879   5.371  18.003   9.899 -0.0453  0.1014 -0.4037
  493loPI   C2A 7880   5.365  18.063   9.497 -0.1410 -0.2413  0.0714
  493loPI   C3A 7881   5.185  18.052   9.069  0.0871 -0.2308  0.0325
  493loPI   C4A 7882   5.136  18.063   8.636  0.0854 -0.3151  0.1640
  493loPI   C5A 7883   5.065  18.079   8.259 -0.1014 -0.1450 -0.0263
  493loPI   C6A 7884   4.854  18.284   7.899 -0.2758  0.0473  0.0267
  493loPI   C1B 7885   5.779  18.171   9.730  0.1853 -0.0305  0.2226
  493loPI   C2B 7886   5.816  18.215   9.318  0.0205  0.1819 -0.0436
  493loPI   C3B 7887   5.751  18.168   8.882 -0.1132  0.2090 -0.0916
  493loPI   C4B 7888   5.624  18.118   8.453 -0.3518 -0.0462 -0.1990
  494loPI    C1 7889  11.140  11.671  11.031 -0.2115 -0.2303  0.0006
  494loPI    C2 7890  11.422  11.436  10.873 -0.0364  0.0185 -0.0628
  494loPI    C3 7891  11.469  11.585  11.241 -0.1279 -0.0117 -0.0385
  494loPI   PO4 7892  10.931  11.581  10.823  0.3022  0.0197  0.0206
  494loPI   GL1 7893  10.945  11.382  10.399 -0.1883  0.1329  0.0735
  494loPI   GL2 7894  10.679  11.422  10.230  0.1749  0.0145  0.0431
  494loPI   C1A 7895  11.128  11.166  10.067  0.1001  0.0325  0.0899
  494loPI   C2A 7896  11.159  11.237   9.609  0.0097  0.2162 -0.2168
  494loPI   C3A 7897  11.169  11.211   9.174 -0.0217 -0.3106  0.0786
  494loPI   C4A 7898  11.248  11.232   8.732 -0.0286  0.3102 -0.1519
  494loPI   C5A 7899  11.284  11.130   8.356 -0.3799 -0.0416  0.1288
  494loPI   C6A 7900  11.044  11.069   7.972 -0.0571 -0.0423  0.1257
  494loPI   C1B 7901  10.994  11.668   9.939  0.0195  0.0789 -0.1635
  494loPI   C2B 7902  11.177  11.752   9.506  0.1585  0.6578 -0.0470
  494loPI   C3B 7903  11.146  11.662   9.009  0.2583 -0.0980  0.0439
  494loPI   C4B 7904  11.106  11.661   8.559  0.1150  0.2785  0.4192
  495loPI    C1 7905   6.269   1.838  11.043 -0.2082 -0.3142 -0.2267
  495loPI    C2 7906   6.218   1.673  11.403  0.1110  0.1530  0.0435
  495loPI    C3 7907   6.583   1.694  11.243 -0.0011  0.1303 -0.2204
  495loPI   PO4 7908   6.009   1.795  10.917  0.2055  0.1133 -0.4929
  495loPI   GL1 7909   5.977   1.616  10.561  0.1222 -0.0170 -0.1829
  495loPI   GL2 7910   6.261   1.812  10.400  0.1948 -0.0774 -0.1506
  495loPI   C1A 7911   5.833   1.592  10.112  0.1774 -0.0628  0.0123
  495loPI   C2A 7912   5.852   1.648   9.647  0.0812  0.0355  0.1795
  495loPI   C3A 7913   5.945   1.636   9.210 -0.2096  0.0421  0.0576
  495loPI   C4A 7914   5.936   1.626   8.795 -0.2897  0.2608  0.0495
  495loPI   C5A 7915   6.036   1.631   8.349  0.1622 -0.0760  0.0248
  495loPI   C6A 7916   6.222   1.800   7.955  0.1351  0.1416 -0.2499
  495loPI   C1B 7917   6.294   1.819   9.918  0.0247  0.0298  0.0454
  495loPI   C2B 7918   6.420   1.725   9.487 -0.2596  0.2630  0.4500
  495loPI   C3B 7919   6.437   1.708   8.977 -0.2594 -0.4423  0.0396
  495loPI   C4B 7920   6.459   1.789   8.577  0.3149 -0.5379  0.3253
  496loPI    C1 7921   8.552   5.843  10.765  0.2157  0.0947  0.1319
  496loPI    C2 7922   8.448   6.224  10.832  0.0030  0.0279  0.1891
  496loPI    C3 7923   8.834   6.119  10.836  0.0857  0.2994 -0.1277
  496loPI   PO4 7924   8.431   5.758  10.577  0.0569  0.3074 -0.2326
  496loPI   GL1 7925   8.465   5.589  10.152 -0.4327  0.1319 -0.0134
  496loPI   GL2 7926   8.436   5.813   9.919 -0.2030  0.2588 -0.0036
  496loPI   C1A 7927   8.658   5.385   9.823 -0.0501  0.2116  0.0415
  496loPI   C2A 7928   8.745   5.362   9.417  0.2788  0.0783  0.1711
  496loPI   C3A 7929   8.717   5.399   8.995 -0.3797  0.2140  0.0039
  496loPI   C4A 7930   8.661   5.501   8.549  0.0212  0.0815  0.0729
  496loPI   C5A 7931   8.743   5.405   8.105 -0.0215 -0.0784 -0.3369
  496loPI   C6A 7932   8.959   5.567   7.692  0.4744  0.0469  0.1065
  496loPI   C1B 7933   8.536   5.791   9.502 -0.0827 -0.1921 -0.2606
  496loPI   C2B 7934   8.604   5.877   9.044  0.2695  0.0977  0.0972
  496loPI   C3B 7935   8.595   5.962   8.692 -0.1854 -0.3740 -0.0807
  496loPI   C4B 7936   8.581   5.909   8.196  0.0216 -0.0038  0.2270
  497loPI    C1 7937   6.077   2.683  10.531  0.0743 -0.1031  0.0834
  497loPI    C2 7938   5.820   2.975  10.436  0.0384 -0.1589  0.0078
  497loPI    C3 7939   5.746   2.736  10.749 -0.0623 -0.2505 -0.0846
  497loPI   PO4 7940   6.309   2.775  10.519  0.2521 -0.3835 -0.2279
  497loPI   GL1 7941   6.463   2.888  10.140  0.0170  0.0153  0.0516
  497loPI   GL2 7942   6.667   2.578  10.077  0.0867  0.0544 -0.0017
  497loPI   C1A 7943   6.335   3.115   9.745  0.0442  0.3739  0.2179
  497loPI   C2A 7944   6.428   3.057   9.291 -0.2688  0.0123 -0.1078
  497loPI   C3A 7945   6.409   3.194   8.962  0.1561  0.0933  0.1139
  497loPI   C4A 7946   6.493   3.237   8.536  0.1730  0.0217  0.0145
  497loPI   C5A 7947   6.376   3.109   8.132 -0.1442 -0.1914  0.0221
  497loPI   C6A 7948   6.238   3.372   7.733 -0.1676  0.0167  0.1070
  497loPI   C1B 7949   6.787   2.687   9.649 -0.2730  0.0339 -0.2715
  497loPI   C2B 7950   6.780   2.656   9.202 -0.0477 -0.0398  0.0164
  497loPI   C3B 7951   6.758   2.825   8.942  0.4906 -0.0200 -0.0617
  497loPI   C4B 7952   6.798   2.803   8.543 -0.0816  0.1527  0.4220
  498loPI    C1 7953  12.747   0.903  10.578 -0.1416  0.1560 -0.2856
  498loPI    C2 7954  12.851   1.204  10.336  0.4000  0.2555  0.0531
  498loPI    C3 7955  12.860   1.254  10.733  0.2225 -0.1246  0.1095
  498loPI   PO4 7956  12.881   0.689  10.539 -0.0818  0.1983  0.1679
  498loPI   GL1 7957  12.913   0.315  10.164  0.0785  0.0378  0.2864
  498loPI   GL2 7958  13.205   0.333  10.303  0.1825  0.0828  0.1387
  498loPI   C1A 7959  12.881   0.045   9.831 -0.0038 -0.1581  0.3277
  498loPI   C2A 7960  12.890  -0.164   9.459  0.1475  0.2717 -0.1052
  498loPI   C3A 7961  12.922  -0.033   9.028 -0.1853  0.0221 -0.2129
  498loPI   C4A 7962  12.978  -0.001   8.625  0.3416  0.1138  0.0934
  498loPI   C5A 7963  13.161   0.257   8.304  0.0132 -0.1754 -0.2961
  498loPI   C6A 7964  13.066   0.685   8.128 -0.1720 -0.0727 -0.2184
  498loPI   C1B 7965  13.348   0.380   9.958  0.2814 -0.2575  0.2386
  498loPI   C2B 7966  13.336   0.304   9.545  0.1238 -0.0759  0.2884
  498loPI   C3B 7967  13.306   0.368   9.179  0.1477 -0.1003  0.2037
  498loPI   C4B 7968  13.360   0.273   8.793 -0.2089  0.0285 -0.0777
  499loPI    C1 7969  13.427   3.573   9.736 -0.1589  0.1266 -0.0874
  499loPI    C2 7970  13.382   3.386  10.087  0.1844  0.2618  0.0327
  499loPI    C3 7971  13.219   3.746  10.031 -0.1326  0.1075 -0.0574
  499loPI   PO4 7972  13.641   3.468   9.556  0.2442 -0.1643  0.0755
  499loPI   GL1 7973  13.899   3.503   9.140  0.2001 -0.2889 -0.0229
  499loPI   GL2 7974  14.084   3.330   9.130  0.0395 -0.3280  0.0658
  499loPI   C1A 7975  13.775   3.448   8.766  0.0451 -0.2199 -0.0547
  499loPI   C2A 7976  13.426   3.557   8.448 -0.0609  0.0960 -0.2512
  499loPI   C3A 7977  13.370   3.866   8.157 -0.0662  0.0799  0.0027
  499loPI   C4A 7978  13.200   4.180   7.827  0.1652  0.1784  0.0536
  499loPI   C5A 7979  13.101   4.582   7.600  0.0743 -0.1517  0.0767
  499loPI   C6A 7980  12.980   4.927   7.320  0.1241  0.1446 -0.2122
  499loPI   C1B 7981  14.442   3.089   8.905  0.2049 -0.1555 -0.0599
  499loPI   C2B 7982  14.858   3.161   8.912  0.0574  0.0060  0.0648
  499loPI   C3B 7983  15.184   3.484   8.873 -0.2389 -0.0975 -0.4948
  499loPI   C4B 7984  15.421   3.618   8.582  0.1246 -0.0317 -0.2476
  500loPI    C1 7985  10.783   7.137  10.368  0.0971 -0.1769  0.0030
  500loPI    C2 7986  10.919   6.854  10.616 -0.0617  0.0478  0.3541
  500loPI    C3 7987  10.771   7.196  10.764 -0.2868  0.1301 -0.0477
  500loPI   PO4 7988  10.810   7.127  10.163  0.0941  0.0853 -0.2859
  500loPI   GL1 7989  10.738   7.131   9.752 -0.1330 -0.0379 -0.0558
  500loPI   GL2 7990  10.635   6.849   9.685 -0.0594 -0.1202  0.0469
  500loPI   C1A 7991  10.577   7.481   9.443  0.0653  0.0116 -0.0486
  500loPI   C2A 7992  10.582   7.665   8.930 -0.0924 -0.0576  0.1562
  500loPI   C3A 7993  10.454   7.707   8.480  0.0773  0.0897 -0.0087
  500loPI   C4A 7994  10.321   7.522   8.135  0.1912  0.2482 -0.0007
  500loPI   C5A 7995  10.103   7.728   7.816  0.1990  0.0911 -0.1912
  500loPI   C6A 7996  10.009   7.798   7.391 -0.3241  0.0145  0.1355
  500loPI   C1B 7997  10.758   7.071   9.248  0.0928 -0.1280  0.2631
  500loPI   C2B 7998  10.670   7.136   8.891  0.0394  0.2721  0.2878
  500loPI   C3B 7999  10.579   7.138   8.445  0.1514  0.0581 -0.2163
  500loPI   C4B 8000  10.200   7.058   8.062 -0.0855  0.1011  0.0415
  501loPI    C1 8001   1.288   4.150  10.766 -0.0727  0.1451  0.0861
  501loPI    C2 8002   1.412   4.359  11.084  0.1570 -0.0416  0.1217
  501loPI    C3 8003   1.094   4.118  11.115 -0.0230  0.1918  0.1182
  501loPI   PO4 8004   1.468   4.194  10.575  0.0867  0.2526 -0.1178
  501loPI   GL1 8005   1.471   4.243  10.146 -0.1182 -0.0461 -0.0458
  501loPI   GL2 8006   1.638   3.929  10.008 -0.1768  0.2397 -0.1676
  501loPI   C1A 8007   1.576   4.660   9.961 -0.1856  0.0171 -0.5265
  501loPI   C2A 8008   1.482   4.839   9.585  0.1051  0.3140  0.3535
  501loPI   C3A 8009   1.500   4.897   9.166  0.2383  0.1313 -0.0769
  501loPI   C4A 8010   1.462   4.957   8.646 -0.0745  0.1825 -0.0413
  501loPI   C5A 8011   1.430   5.055   8.215 -0.0681  0.3531 -0.3059
  501loPI   C6A 8012   1.084   5.177   8.045  0.0106 -0.2452  0.1842
  501loPI   C1B 8013   1.673   3.941   9.614  0.1514 -0.0243 -0.1636
  501loPI   C2B 8014   1.607   4.049   9.247 -0.0388 -0.0150 -0.0286
  501loPI   C3B 8015   1.579   4.050   8.809  0.2502  0.3871 -0.1143
  501loPI   C4B 8016   1.683   4.049   8.432  0.1338 -0.1022 -0.0488
  502loPI    C1 8017   3.785   7.617  10.884  0.1161 -0.1583  0.1338
  502loPI    C2 8018   3.948   7.863  11.154  0.1488  0.0552 -0.0772
  502loPI    C3 8019   3.647   7.621  11.259  0.2221  0.0697  0.1716
  502loPI   PO4 8020   3.948   7.487  10.830  0.0733 -0.1824 -0.2297
  502loPI   GL1 8021   4.102   7.479  10.423  0.1729 -0.1356  0.0480
  502loPI   GL2 8022   4.164   7.176  10.431 -0.1521 -0.0873  0.2247
  502loPI   C1A 8023   3.939   7.504  10.063  0.0149  0.0409  0.0629
  502loPI   C2A 8024   4.012   7.518   9.676 -0.0030 -0.2578  0.3271
  502loPI   C3A 8025   4.029   7.424   9.202 -0.1761 -0.0908  0.0444
  502loPI   C4A 8026   4.141   7.391   8.743  0.0777  0.2655  0.3974
  502loPI   C5A 8027   4.318   7.258   8.291 -0.0181  0.1004  0.1376
  502loPI   C6A 8028   4.459   7.195   7.890  0.1210 -0.0202  0.2735
  502loPI   C1B 8029   4.265   7.171  10.007  0.1720 -0.2696 -0.2020
  502loPI   C2B 8030   4.295   7.069   9.539 -0.0990  0.1361  0.2143
  502loPI   C3B 8031   4.387   7.085   9.090 -0.2282 -0.1034  0.2515
  502loPI   C4B 8032   4.523   6.899   8.622  0.1665 -0.5349 -0.1608
  503loPI    C1 8033  17.241   6.637  10.166  0.1206 -0.1542  0.1066
  503loPI    C2 8034  17.596   6.779  10.050  0.1159 -0.2273  0.0017
  503loPI    C3 8035  17.542   6.660  10.428  0.1370 -0.0058  0.0757
  503loPI   PO4 8036  17.166   6.466   9.939 -0.3145  0.0835  0.1709
  503loPI   GL1 8037  17.316   6.328   9.566 -0.0400 -0.2921  0.0630
  503loPI   GL2 8038  17.358   6.044   9.453  0.1365  0.1043 -0.2095
  503loPI   C1A 8039  17.309   6.537   9.206  0.1185  0.3233 -0.0131
  503loPI   C2A 8040  17.284   6.895   8.924 -0.1676 -0.0799 -0.4225
  503loPI   C3A 8041  17.321   6.932   8.481 -0.2131  0.0105  0.0111
  503loPI   C4A 8042  17.539   6.959   8.148  0.0161  0.1551  0.1101
  503loPI   C5A 8043  17.416   7.021   7.723  0.1784 -0.3241  0.1164
  503loPI   C6A 8044  17.573   7.236   7.382  0.0263  0.1103  0.1110
  503loPI   C1B 8045  17.438   6.073   9.052  0.1641 -0.2910  0.1732
  503loPI   C2B 8046  17.464   6.446   8.723  0.1001  0.0915  0.3478
  503loPI   C3B 8047  17.817   6.714   8.463  0.0827  0.1522  0.3152
  503loPI   C4B 8048  18.064   6.901   8.180  0.2702 -0.1253  0.3267
  504loPI    C1 8049   9.144   8.156  11.054  0.0281  0.1281 -0.0524
  504loPI    C2 8050   9.483   7.982  11.175 -0.0718  0.0857  0.1706
  504loPI    C3 8051   9.143   7.919  11.376 -0.2591 -0.0492 -0.1791
  504loPI   PO4 8052   9.100   8.084  10.780  0.0036  0.2525  0.4011
  504loPI   GL1 8053   8.981   8.450  10.406 -0.1817 -0.1341  0.1220
  504loPI   GL2 8054   8.915   8.170  10.335 -0.1358 -0.1303  0.1407
  504loPI   C1A 8055   9.101   8.429   9.954  0.0479 -0.0699  0.1510
  504loPI   C2A 8056   8.960   8.522   9.563  0.0815 -0.1575  0.2692
  504loPI   C3A 8057   8.960   8.566   9.147 -0.2337 -0.0020  0.0996
  504loPI   C4A 8058   8.891   8.597   8.717  0.2323 -0.1912  0.1790
  504loPI   C5A 8059   8.958   8.690   8.283 -0.0625 -0.2412 -0.0422
  504loPI   C6A 8060   8.705   8.885   8.068  0.1312 -0.0218 -0.1829
  504loPI   C1B 8061   8.671   8.155   9.992  0.1061  0.0906  0.2308
  504loPI   C2B 8062   8.589   8.146   9.602  0.1798 -0.3216 -0.3311
  504loPI   C3B 8063   8.638   8.235   9.223  0.0840  0.0411 -0.1780
  504loPI   C4B 8064   8.455   8.150   8.755  0.2334 -0.3748  0.4400
  505loPI    C1 8065  12.736  12.144  10.781  0.1049  0.0977  0.0811
  505loPI    C2 8066  12.539  12.370  11.046  0.0750 -0.0016  0.1441
  505loPI    C3 8067  12.895  12.214  11.141 -0.0288 -0.2062  0.2019
  505loPI   PO4 8068  12.542  11.963  10.707 -0.0842 -0.0675 -0.1225
  505loPI   GL1 8069  12.482  12.029  10.282  0.1916  0.1701  0.0544
  505loPI   GL2 8070  12.245  12.175  10.138  0.0650 -0.3429  0.0944
  505loPI   C1A 8071  12.487  11.748   9.920  0.0565  0.3005 -0.0536
  505loPI   C2A 8072  12.479  11.665   9.564 -0.1323 -0.3169 -0.1226
  505loPI   C3A 8073  12.556  11.647   9.097 -0.1442  0.4645 -0.1346
  505loPI   C4A 8074  12.592  11.642   8.613 -0.1588 -0.0298 -0.0533
  505loPI   C5A 8075  12.499  11.658   8.190 -0.4135 -0.3618  0.1202
  505loPI   C6A 8076  12.222  11.881   7.904 -0.0260  0.0807  0.1870
  505loPI   C1B 8077  12.407  12.209   9.685  0.2285  0.2847 -0.0568
  505loPI   C2B 8078  12.473  12.125   9.284  0.1256 -0.1050 -0.2800
  505loPI   C3B 8079  12.431  12.147   8.941 -0.2290  0.0031 -0.1518
  505loPI   C4B 8080  12.463  12.171   8.408  0.3346 -0.1169 -0.0335
  506loPI    C1 8081   7.714  14.959  10.823  0.0855  0.0128 -0.1154
  506loPI    C2 8082   8.062  14.949  11.020  0.0333 -0.0607 -0.0260
  506loPI    C3 8083   7.793  15.234  11.102 -0.0088 -0.1205  0.0444
  506loPI   PO4 8084   7.746  14.933  10.628  0.2950  0.2059  0.2351
  506loPI   GL1 8085   7.910  14.771  10.282  0.0239 -0.2140  0.1518
  506loPI   GL2 8086   8.219  14.931  10.501 -0.0862 -0.1226  0.4213
  506loPI   C1A 8087   8.053  14.610   9.946  0.0968  0.1658 -0.0241
  506loPI   C2A 8088   8.105  14.525   9.541  0.2441 -0.0070  0.0462
  506loPI   C3A 8089   8.087  14.505   9.112 -0.2705 -0.2037 -0.0066
  506loPI   C4A 8090   8.062  14.692   8.747 -0.0602  0.2390 -0.1423
  506loPI   C5A 8091   8.222  14.952   8.540 -0.1755 -0.1317 -0.4462
  506loPI   C6A 8092   8.255  15.187   8.243 -0.1087 -0.1125 -0.1687
  506loPI   C1B 8093   8.442  14.904  10.199  0.1642 -0.0159 -0.1477
  506loPI   C2B 8094   8.596  14.876   9.730 -0.2449  0.1249 -0.1633
  506loPI   C3B 8095   8.545  14.827   9.370  0.0896  0.0218 -0.0283
  506loPI   C4B 8096   8.410  14.873   8.984 -0.2778 -0.1921 -0.1458
  507loPI    C1 8097   7.603  15.856  10.114  0.1153  0.0541 -0.1041
  507loPI    C2 8098   7.695  15.876  10.503 -0.2094  0.1422 -0.0290
  507loPI    C3 8099   7.467  16.160  10.337 -0.0514  0.1184 -0.2911
  507loPI   PO4 8100   7.497  15.647  10.124  0.0930 -0.0921 -0.0752
  507loPI   GL1 8101   7.412  15.321   9.903  0.2740 -0.0522 -0.3316
  507loPI   GL2 8102   7.514  15.117  10.222  0.0270  0.0889 -0.0588
  507loPI   C1A 8103   7.614  15.238   9.487 -0.2860 -0.1406 -0.0782
  507loPI   C2A 8104   7.498  15.284   9.050 -0.0595  0.0984  0.2368
  507loPI   C3A 8105   7.303  15.353   8.694 -0.0755  0.1192 -0.4437
  507loPI   C4A 8106   7.454  15.520   8.343  0.1262  0.0637 -0.1272
  507loPI   C5A 8107   7.605  15.802   8.137 -0.0003  0.2827 -0.0589
  507loPI   C6A 8108   7.379  16.132   7.870 -0.1729  0.0053 -0.1633
  507loPI   C1B 8109   7.607  14.825   9.925  0.0612 -0.1884 -0.1062
  507loPI   C2B 8110   7.598  14.698   9.604  0.0223 -0.2000  0.2844
  507loPI   C3B 8111   7.613  14.758   9.163 -0.0466 -0.0961  0.0358
  507loPI   C4B 8112   7.552  14.860   8.762  0.0862 -0.1677  0.0539
  508loPI    C1 8113   0.039   5.604  10.514 -0.2461 -0.0835 -0.2056
  508loPI    C2 8114  -0.331   5.461  10.461 -0.2553 -0.1448  0.0142
  508loPI    C3 8115  -0.190   5.520  10.831 -0.0383 -0.1381 -0.0679
  508loPI   PO4 8116   0.082   5.767  10.306  0.0193 -0.0865 -0.0886
  508loPI   GL1 8117   0.350   5.836  10.021 -0.0270  0.2073 -0.0045
  508loPI   GL2 8118   0.371   6.145  10.046  0.3424 -0.0618 -0.0394
  508loPI   C1A 8119   0.343   5.750   9.576 -0.2138 -0.2764  0.1095
  508loPI   C2A 8120   0.297   5.666   9.150 -0.3140  0.0425  0.0955
  508loPI   C3A 8121   0.446   5.777   8.746 -0.2672 -0.0020  0.1245
  508loPI   C4A 8122   0.509   5.835   8.294 -0.0161 -0.1362  0.0143
  508loPI   C5A 8123   0.316   6.054   7.933  0.1953 -0.0589 -0.0053
  508loPI   C6A 8124  -0.018   6.341   7.926  0.0971 -0.2903 -0.2176
  508loPI   C1B 8125   0.466   6.234   9.653  0.1262  0.1199  0.0263
  508loPI   C2B 8126   0.520   6.152   9.191 -0.4157  0.3166  0.0270
  508loPI   C3B 8127   0.651   6.231   8.760 -0.2413 -0.0557  0.5657
  508loPI   C4B 8128   0.446   6.344   8.361  0.0980 -0.1428 -0.3056
  509loPI    C1 8129   2.150   7.715  10.740  0.1057  0.1265 -0.0314
  509loPI    C2 8130   1.885   7.956  10.560 -0.0563 -0.0965 -0.0956
  509loPI    C3 8131   1.829   7.846  10.940  0.1247  0.1278 -0.0020
  509loPI   PO4 8132   2.417   7.865  10.592  0.1505  0.0892  0.1158
  509loPI   GL1 8133   2.450   8.187  10.364  0.1689 -0.0519  0.0531
  509loPI   GL2 8134   2.250   8.076  10.173 -0.3674  0.1010  0.1619
  509loPI   C1A 8135   2.471   8.528  10.195 -0.1102 -0.1373 -0.1805
  509loPI   C2A 8136   2.560   8.601   9.773 -0.0950 -0.0471 -0.0704
  509loPI   C3A 8137   2.616   8.617   9.351  0.1226 -0.0999 -0.0605
  509loPI   C4A 8138   2.672   8.681   8.946 -0.1432  0.1674  0.1689
  509loPI   C5A 8139   2.760   8.774   8.479 -0.1683  0.0094 -0.0751
  509loPI   C6A 8140   2.386   8.855   8.211 -0.4292 -0.4195  0.0627
  509loPI   C1B 8141   2.320   8.119   9.698 -0.0325  0.1094 -0.1093
  509loPI   C2B 8142   2.433   8.165   9.311 -0.0057  0.1304 -0.0478
  509loPI   C3B 8143   2.473   8.223   8.912  0.2251 -0.2479 -0.1233
  509loPI   C4B 8144   2.441   8.435   8.446  0.0024 -0.0774 -0.1983
  510loPI    C1 8145   9.322  11.783  11.361  0.0897 -0.1006 -0.0734
  510loPI    C2 8146   9.271  12.071  11.634 -0.1052 -0.0977 -0.1109
  510loPI    C3 8147   9.184  11.692  11.725 -0.0306 -0.1179 -0.1228
  510loPI   PO4 8148   9.330  11.920  11.123  0.2962 -0.2751  0.0009
  510loPI   GL1 8149   9.336  11.917  10.679 -0.1202  0.1003  0.1110
  510loPI   GL2 8150   9.111  11.941  10.568  0.0489  0.5612  0.0159
  510loPI   C1A 8151   9.572  11.915  10.313 -0.1278 -0.3508  0.1887
  510loPI   C2A 8152   9.649  11.748   9.845  0.2488  0.0743 -0.0284
  510loPI   C3A 8153  10.037  11.635   9.655  0.1986  0.0424 -0.0027
  510loPI   C4A 8154  10.268  11.558   9.292  0.1294 -0.1765  0.2258
  510loPI   C5A 8155  10.292  11.591   8.874 -0.1509 -0.0722 -0.1455
  510loPI   C6A 8156  10.077  11.623   8.448 -0.1898  0.3397  0.3731
  510loPI   C1B 8157   9.187  11.668  10.088 -0.0978  0.0577 -0.2620
  510loPI   C2B 8158   9.201  11.566   9.659  0.0383 -0.0249 -0.0713
  510loPI   C3B 8159   9.297  11.241   9.423 -0.3092  0.1270 -0.1271
  510loPI   C4B 8160   9.665  11.201   9.207 -0.2621  0.3424  0.1083
  511loPI    C1 8161   5.325  10.557  10.999  0.0047 -0.1559 -0.0194
  511loPI    C2 8162   5.367  10.736  11.354 -0.2747  0.0115 -0.0681
  511loPI    C3 8163   5.232  10.360  11.334  0.2517 -0.1902  0.0306
  511loPI   PO4 8164   5.229  10.750  10.848  0.3727  0.0039 -0.1833
  511loPI   GL1 8165   5.132  10.822  10.310  0.1938 -0.1577 -0.1173
  511loPI   GL2 8166   5.035  10.516  10.398  0.2292  0.1872 -0.0725
  511loPI   C1A 8167   5.287  10.636   9.991 -0.0068  0.1346 -0.1723
  511loPI   C2A 8168   5.323  10.708   9.529  0.1015  0.1321 -0.0330
  511loPI   C3A 8169   5.382  10.689   9.099  0.1260  0.1053  0.1963
  511loPI   C4A 8170   5.389  10.829   8.630  0.1996 -0.0877  0.0568
  511loPI   C5A 8171   5.547  11.195   8.458 -0.0933  0.4040  0.3953
  511loPI   C6A 8172   5.807  11.325   8.178 -0.1508  0.3218 -0.0888
  511loPI   C1B 8173   4.886  10.359  10.070  0.1086  0.0042 -0.1098
  511loPI   C2B 8174   4.911  10.331   9.662 -0.3439  0.2595 -0.3059
  511loPI   C3B 8175   4.979  10.396   9.247 -0.1991 -0.0056 -0.0404
  511loPI   C4B 8176   5.045  10.462   8.779  0.0986 -0.1487 -0.0104
  512loPI    C1 8177  16.858  14.799  10.618 -0.1056 -0.0890  0.0381
  512loPI    C2 8178  16.927  14.576  10.942 -0.3021 -0.1705  0.0255
  512loPI    C3 8179  16.708  14.909  10.972  0.0117  0.0375  0.0490
  512loPI   PO4 8180  16.779  14.620  10.379  0.0527 -0.2620  0.0343
  512loPI   GL1 8181  16.677  14.365  10.089 -0.2266  0.0284 -0.2871
  512loPI   GL2 8182  16.395  14.171  10.016 -0.2816  0.2321 -0.2559
  512loPI   C1A 8183  16.814  14.410   9.722  0.1379 -0.2933  0.1386
  512loPI   C2A 8184  16.749  14.372   9.351 -0.1833 -0.0968  0.1881
  512loPI   C3A 8185  16.594  14.273   8.925 -0.0975  0.0250 -0.1824
  512loPI   C4A 8186  16.584  14.306   8.441 -0.2139 -0.1841 -0.2545
  512loPI   C5A 8187  16.416  14.327   8.020  0.0926 -0.1048  0.1452
  512loPI   C6A 8188  16.285  14.694   7.872 -0.2008  0.0076  0.1297
  512loPI   C1B 8189  16.339  14.110   9.524  0.1984  0.2037 -0.2914
  512loPI   C2B 8190  16.216  13.991   9.166 -0.2639 -0.1679 -0.1361
  512loPI   C3B 8191  16.191  14.106   8.739 -0.0855  0.2227 -0.0713
  512loPI   C4B 8192  16.104  13.982   8.326 -0.0488 -0.1892  0.3219
  513loPI    C1 8193  14.378  18.041  10.656 -0.2591  0.0140 -0.1499
  513loPI    C2 8194  14.007  18.189  10.676 -0.1316  0.3192  0.0223
  513loPI    C3 8195  14.290  18.326  10.923  0.0585 -0.0259  0.0013
  513loPI   PO4 8196  14.389  17.957  10.429  0.0499  0.0753 -0.2035
  513loPI   GL1 8197  14.417  17.588  10.229  0.3115  0.2065 -0.1070
  513loPI   GL2 8198  14.784  17.620  10.220 -0.0812  0.1299  0.4388
  513loPI   C1A 8199  14.339  17.683   9.760 -0.0460 -0.1782  0.3796
  513loPI   C2A 8200  14.359  17.738   9.304  0.1713  0.0095  0.0134
  513loPI   C3A 8201  14.284  17.758   8.851 -0.1817  0.1487  0.0359
  513loPI   C4A 8202  14.305  17.749   8.425 -0.0877 -0.1317  0.0021
  513loPI   C5A 8203  13.946  17.873   8.095 -0.2049  0.1320  0.0675
  513loPI   C6A 8204  13.732  18.213   7.913 -0.1293 -0.0637  0.0019
  513loPI   C1B 8205  14.803  17.448   9.883  0.0240 -0.2027 -0.2269
  513loPI   C2B 8206  14.864  17.511   9.579 -0.0026  0.0004 -0.4600
  513loPI   C3B 8207  14.802  17.512   9.247 -0.3543 -0.0016 -0.0015
  513loPI   C4B 8208  14.780  17.487   8.798 -0.1161 -0.1962  0.1850
  514loPI    C1 8209   0.542  12.102  10.674  0.0230 -0.0131  0.1096
  514loPI    C2 8210   0.468  11.746  10.509 -0.0563  0.0485  0.0110
  514loPI    C3 8211   0.523  11.775  10.904 -0.0419 -0.0738  0.0186
  514loPI   PO4 8212   0.693  12.160  10.576 -0.2777 -0.1308 -0.2719
  514loPI   GL1 8213   0.943  12.042  10.221  0.1575 -0.2355  0.0785
  514loPI   GL2 8214   0.551  12.001  10.037 -0.0981  0.1486 -0.0620
  514loPI   C1A 8215   1.025  12.050   9.815  0.0097 -0.1828 -0.1016
  514loPI   C2A 8216   1.002  11.963   9.359  0.2559  0.1848  0.2188
  514loPI   C3A 8217   0.978  11.878   8.922  0.0717 -0.1901  0.0462
  514loPI   C4A 8218   1.031  11.942   8.569  0.0112 -0.2626 -0.1316
  514loPI   C5A 8219   0.991  12.195   8.251  0.0939 -0.1364  0.2469
  514loPI   C6A 8220   1.003  12.340   7.806 -0.3149  0.2681  0.0487
  514loPI   C1B 8221   0.557  12.070   9.647  0.1126 -0.0402  0.2203
  514loPI   C2B 8222   0.497  12.015   9.206 -0.0412  0.0057  0.4038
  514loPI   C3B 8223   0.475  12.079   8.768  0.1510  0.1501 -0.1026
  514loPI   C4B 8224   0.495  12.104   8.361  0.2066 -0.2344  0.0495
  515loPI    C1 8225   3.343   9.533  10.977 -0.1434 -0.1212 -0.0807
  515loPI    C2 8226   3.010   9.619  11.181 -0.1833 -0.1287 -0.1425
  515loPI    C3 8227   3.368   9.697  11.340 -0.2170  0.0210 -0.1392
  515loPI   PO4 8228   3.305   9.478  10.752 -0.0561 -0.1531 -0.1285
  515loPI   GL1 8229   2.933   9.469  10.426 -0.4320 -0.2771 -0.1479
  515loPI   GL2 8230   3.123   9.199  10.400  0.0627 -0.0657  0.0431
  515loPI   C1A 8231   2.922   9.513  10.041  0.0403  0.1592 -0.1987
  515loPI   C2A 8232   2.940   9.596   9.576 -0.1404 -0.1936 -0.0001
  515loPI   C3A 8233   3.215   9.584   9.189  0.1361 -0.0245 -0.0362
  515loPI   C4A 8234   3.290   9.639   8.660 -0.1086  0.0317 -0.1891
  515loPI   C5A 8235   3.263   9.815   8.200 -0.0623 -0.0089 -0.5362
  515loPI   C6A 8236   3.567   9.919   7.909 -0.0583 -0.0254 -0.0442
  515loPI   C1B 8237   3.325   9.200   9.930 -0.0097 -0.0763  0.0883
  515loPI   C2B 8238   3.331   9.187   9.540  0.1451 -0.1497  0.1957
  515loPI   C3B 8239   3.486   9.156   9.087 -0.2069 -0.0751  0.0148
  515loPI   C4B 8240   3.501   9.183   8.619  0.1815  0.0625  0.1821
  516loPI    C1 8241   4.506   6.128  10.862 -0.1316  0.0158 -0.0699
  516loPI    C2 8242   4.270   5.848  11.024  0.0549 -0.0540  0.0851
  516loPI    C3 8243   4.517   6.061  11.256 -0.0064  0.1647 -0.0467
  516loPI   PO4 8244   4.512   6.058  10.651  0.2135  0.1760  0.2171
  516loPI   GL1 8245   4.250   5.943  10.327 -0.0613  0.2609 -0.1653
  516loPI   GL2 8246   4.346   6.147  10.156 -0.0795 -0.0894 -0.0281
  516loPI   C1A 8247   4.145   5.730   9.918 -0.1706 -0.2345 -0.2405
  516loPI   C2A 8248   4.197   5.768   9.443  0.1936 -0.2341 -0.0754
  516loPI   C3A 8249   4.233   5.716   9.027 -0.0342  0.3053 -0.0516
  516loPI   C4A 8250   4.273   5.777   8.518  0.1653  0.2254 -0.1566
  516loPI   C5A 8251   4.169   6.127   8.299  0.1313  0.0443 -0.1019
  516loPI   C6A 8252   4.188   6.359   7.992 -0.2278 -0.0203 -0.1549
  516loPI   C1B 8253   4.327   6.152   9.750  0.1268  0.0712  0.3246
  516loPI   C2B 8254   4.525   6.085   9.337  0.0533 -0.0466  0.1970
  516loPI   C3B 8255   4.492   6.162   8.897 -0.0477  0.2091  0.0157
  516loPI   C4B 8256   4.619   6.384   8.494  0.2375  0.1069  0.0472
  517loPI    C1 8257   5.443   3.957  10.730  0.1547 -0.3132 -0.0767
  517loPI    C2 8258   5.808   4.119  10.743  0.0071  0.0200  0.0029
  517loPI    C3 8259   5.623   4.015  11.082  0.0487 -0.2003 -0.0406
  517loPI   PO4 8260   5.340   4.069  10.570  0.0247  0.0218  0.1555
  517loPI   GL1 8261   5.344   3.939  10.116 -0.2603  0.1500 -0.1823
  517loPI   GL2 8262   5.715   3.985  10.246  0.0568 -0.2023 -0.2205
  517loPI   C1A 8263   5.575   3.716   9.747 -0.1417  0.0691  0.0313
  517loPI   C2A 8264   5.661   3.814   9.359  0.1320 -0.2120  0.2634
  517loPI   C3A 8265   5.781   3.929   8.953 -0.4273 -0.0432  0.3287
  517loPI   C4A 8266   5.874   4.049   8.554 -0.0794  0.0463  0.3721
  517loPI   C5A 8267   5.672   4.242   8.255 -0.3368  0.1607 -0.0065
  517loPI   C6A 8268   5.616   4.733   8.157 -0.0133 -0.0538 -0.3630
  517loPI   C1B 8269   5.742   4.207   9.825  0.1185 -0.3588  0.0133
  517loPI   C2B 8270   5.735   4.336   9.443  0.0839  0.2226  0.0133
  517loPI   C3B 8271   5.478   4.301   9.111 -0.1561  0.2339 -0.0448
  517loPI   C4B 8272   5.261   4.114   8.747 -0.1665 -0.0187 -0.0057
  518loPI    C1 8273   7.649   1.302  10.854 -0.0633  0.0960 -0.0482
  518loPI    C2 8274   7.417   1.495  11.117 -0.0136  0.1320 -0.0304
  518loPI    C3 8275   7.686   1.698  10.902  0.1238  0.0647  0.0769
  518loPI   PO4 8276   7.443   1.136  10.631 -0.0133 -0.0829 -0.1783
  518loPI   GL1 8277   7.146   1.182  10.425 -0.0978  0.1234 -0.2782
  518loPI   GL2 8278   7.227   1.399  10.152 -0.2616 -0.4518 -0.1225
  518loPI   C1A 8279   7.131   1.009   9.930 -0.1875  0.1351 -0.1474
  518loPI   C2A 8280   7.122   0.959   9.489 -0.2588  0.2614  0.1391
  518loPI   C3A 8281   7.120   0.969   9.129 -0.1788  0.2552 -0.2245
  518loPI   C4A 8282   7.084   1.043   8.679 -0.1303 -0.0693 -0.2190
  518loPI   C5A 8283   7.020   1.180   8.225  0.2021  0.3266 -0.3385
  518loPI   C6A 8284   7.160   1.214   7.875 -0.0968  0.0073  0.0475
  518loPI   C1B 8285   7.266   1.459   9.753 -0.1191 -0.0398 -0.0999
  518loPI   C2B 8286   7.252   1.491   9.279  0.0719  0.0567 -0.1798
  518loPI   C3B 8287   7.220   1.460   8.837 -0.1323  0.0699  0.0213
  518loPI   C4B 8288   7.338   1.502   8.415 -0.1134  0.0651 -0.4180
  519loPI    C1 8289   9.643  16.041  11.122 -0.0831  0.0765  0.0846
  519loPI    C2 8290   9.721  15.659  11.033  0.1249  0.1175  0.0855
  519loPI    C3 8291   9.913  15.837  11.335 -0.0512  0.1916  0.1551
  519loPI   PO4 8292   9.658  16.159  10.845 -0.2285  0.0323  0.1828
  519loPI   GL1 8293   9.664  16.024  10.362  0.0627  0.0425  0.1207
  519loPI   GL2 8294   9.843  15.687  10.225 -0.2795 -0.0718 -0.2131
  519loPI   C1A 8295   9.695  16.123   9.917 -0.2701 -0.1166 -0.1610
  519loPI   C2A 8296   9.652  16.353   9.458 -0.0922  0.1758 -0.2326
  519loPI   C3A 8297   9.688  16.166   9.047  0.0393  0.1463 -0.0577
  519loPI   C4A 8298   9.649  16.216   8.643 -0.0986 -0.3829 -0.1065
  519loPI   C5A 8299   9.744  16.199   8.303 -0.0943 -0.2014 -0.5464
  519loPI   C6A 8300   9.597  16.312   7.981  0.2437  0.0782 -0.0327
  519loPI   C1B 8301   9.758  15.706   9.755 -0.2142  0.3731 -0.1439
  519loPI   C2B 8302   9.704  15.753   9.320  0.0810 -0.0680 -0.2385
  519loPI   C3B 8303   9.666  15.713   8.871  0.1764  0.0435 -0.3135
  519loPI   C4B 8304   9.674  15.704   8.411 -0.0762 -0.0445 -0.2347
  520loPI    C1 8305   4.268   0.956  11.195  0.0062  0.2921  0.1680
  520loPI    C2 8306   4.427   1.114  11.527 -0.1336  0.3751  0.1962
  520loPI    C3 8307   4.165   0.812  11.553  0.2613  0.0183  0.1348
  520loPI   PO4 8308   4.452   1.015  11.027 -0.1386 -0.0955 -0.0799
  520loPI   GL1 8309   4.510   0.961  10.516  0.1043  0.0556  0.1216
  520loPI   GL2 8310   4.355   1.242  10.551  0.4202  0.0778 -0.0924
  520loPI   C1A 8311   4.657   0.827  10.129 -0.0070 -0.1870  0.0694
  520loPI   C2A 8312   4.723   0.937   9.757  0.0676 -0.0821  0.2710
  520loPI   C3A 8313   4.781   0.899   9.253 -0.2702 -0.0706 -0.0294
  520loPI   C4A 8314   4.807   1.005   8.794  0.4690  0.1517 -0.0361
  520loPI   C5A 8315   4.609   0.994   8.414 -0.0964  0.1244  0.3269
  520loPI   C6A 8316   4.779   0.597   8.226 -0.0119  0.0289 -0.4410
  520loPI   C1B 8317   4.420   1.263  10.067 -0.0149 -0.1870  0.0191
  520loPI   C2B 8318   4.412   1.292   9.564 -0.0816  0.1657 -0.2503
  520loPI   C3B 8319   4.454   1.307   9.181  0.0854  0.0682 -0.1056
  520loPI   C4B 8320   4.492   1.382   8.751 -0.0276 -0.1928  0.4925
  521loPI    C1 8321   8.046   3.710  10.787  0.1729  0.0391  0.2102
  521loPI    C2 8322   7.794   3.738  11.096  0.0076  0.0183  0.0790
  521loPI    C3 8323   8.187   3.787  11.153 -0.0210  0.0106  0.2922
  521loPI   PO4 8324   7.875   3.754  10.594 -0.3397 -0.0552  0.1752
  521loPI   GL1 8325   7.649   3.827  10.222 -0.1439 -0.0689 -0.0033
  521loPI   GL2 8326   7.406   3.900   9.951 -0.0596  0.3666 -0.1138
  521loPI   C1A 8327   7.810   3.634   9.841 -0.1065 -0.2932  0.0453
  521loPI   C2A 8328   7.873   3.442   9.467 -0.0141  0.1132  0.5358
  521loPI   C3A 8329   7.945   3.412   8.971  0.0866  0.2097 -0.0978
  521loPI   C4A 8330   7.969   3.342   8.546 -0.0374  0.2170 -0.1383
  521loPI   C5A 8331   8.001   3.221   8.054  0.3932  0.3147  0.1437
  521loPI   C6A 8332   8.150   2.871   7.806  0.0688  0.1736 -0.0451
  521loPI   C1B 8333   7.503   3.843   9.494  0.0865  0.1515  0.0420
  521loPI   C2B 8334   7.563   3.752   9.094 -0.0482 -0.0512 -0.0605
  521loPI   C3B 8335   7.620   3.879   8.661  0.0145  0.2840  0.0120
  521loPI   C4B 8336   7.693   3.772   8.216 -0.2472 -0.1367 -0.0286
  522loPI    C1 8337   0.753   4.027  10.654 -0.1241  0.3198  0.2292
  522loPI    C2 8338   0.494   3.943  10.948 -0.0880  0.1809  0.2217
  522loPI    C3 8339   0.426   3.810  10.576  0.0028  0.1282  0.2234
  522loPI   PO4 8340   0.859   4.243  10.569 -0.0747  0.1425 -0.2031
  522loPI   GL1 8341   0.986   4.384  10.220 -0.2815  0.1079 -0.3991
  522loPI   GL2 8342   1.004   4.222   9.996  0.0240 -0.2682  0.1553
  522loPI   C1A 8343   0.972   4.677   9.763 -0.0561 -0.1250  0.2614
  522loPI   C2A 8344   0.880   4.829   9.415 -0.0160 -0.2955 -0.0584
  522loPI   C3A 8345   0.998   4.894   8.926 -0.1879  0.2923  0.2551
  522loPI   C4A 8346   0.967   4.883   8.498 -0.1746  0.4456  0.0066
  522loPI   C5A 8347   1.111   4.657   8.029  0.0461 -0.0702  0.0854
  522loPI   C6A 8348   1.535   4.367   8.036  0.0299  0.1564 -0.3235
  522loPI   C1B 8349   1.279   4.320   9.620  0.2022  0.3040  0.1942
  522loPI   C2B 8350   1.252   4.470   9.254  0.0590  0.1767 -0.2288
  522loPI   C3B 8351   1.303   4.486   8.829 -0.1458  0.1903 -0.2301
  522loPI   C4B 8352   1.263   4.376   8.481 -0.2949 -0.1722 -0.1151
  523loPI    C1 8353   3.539   8.162  10.827  0.1203 -0.3365 -0.0768
  523loPI    C2 8354   3.546   8.143  11.227  0.4806 -0.1783 -0.0718
  523loPI    C3 8355   3.294   7.912  11.020  0.0489 -0.0166  0.2587
  523loPI   PO4 8356   3.823   8.095  10.711 -0.0990 -0.0861 -0.2889
  523loPI   GL1 8357   4.088   8.268  10.415  0.1273  0.3907 -0.1330
  523loPI   GL2 8358   4.224   7.981  10.290 -0.2940  0.0663 -0.0205
  523loPI   C1A 8359   4.083   8.564  10.143  0.0719 -0.0854  0.3387
  523loPI   C2A 8360   3.952   8.472   9.740  0.1060 -0.1502 -0.1729
  523loPI   C3A 8361   3.884   8.340   9.329 -0.0911 -0.0359 -0.0953
  523loPI   C4A 8362   4.022   8.312   8.917 -0.0752  0.0253 -0.1851
  523loPI   C5A 8363   4.138   8.218   8.441  0.2273 -0.0759  0.0131
  523loPI   C6A 8364   4.196   7.826   8.393 -0.0750  0.1306 -0.1688
  523loPI   C1B 8365   3.881   8.019  10.042  0.5021 -0.0661 -0.2759
  523loPI   C2B 8366   3.730   7.975   9.668  0.1450  0.4325 -0.2400
  523loPI   C3B 8367   3.767   7.906   9.266  0.2363  0.2235  0.2218
  523loPI   C4B 8368   3.992   7.806   8.888  0.2227  0.0760 -0.0743
  524loPI    C1 8369  14.011   7.615  10.281  0.0154 -0.0704  0.0043
  524loPI    C2 8370  13.828   7.882  10.516  0.0524  0.0380 -0.0891
  524loPI    C3 8371  14.001   7.559  10.677  0.1632  0.1620  0.0427
  524loPI   PO4 8372  13.884   7.691  10.053 -0.0382  0.0578  0.1150
  524loPI   GL1 8373  13.992   8.053   9.690 -0.1340 -0.2974 -0.0650
  524loPI   GL2 8374  13.707   7.853   9.622  0.0839 -0.2607  0.0563
  524loPI   C1A 8375  13.957   8.227   9.373 -0.1045  0.1698  0.1470
  524loPI   C2A 8376  13.975   8.257   8.950 -0.0349  0.1372 -0.4010
  524loPI   C3A 8377  14.023   8.133   8.559 -0.1515 -0.2010  0.1024
  524loPI   C4A 8378  13.944   8.219   8.140 -0.1113  0.0903  0.2134
  524loPI   C5A 8379  14.070   8.278   7.753  0.2206  0.3007 -0.1093
  524loPI   C6A 8380  14.375   8.061   7.382 -0.0481 -0.1539  0.0601
  524loPI   C1B 8381  13.552   7.971   9.215 -0.0916  0.2114  0.3012
  524loPI   C2B 8382  13.599   7.887   8.820  0.0488  0.0639 -0.0387
  524loPI   C3B 8383  13.622   7.941   8.355  0.0992 -0.2033 -0.1127
  524loPI   C4B 8384  13.549   7.845   7.889 -0.0465 -0.0578  0.2542
  525loPI    C1 8385   1.950   1.861  10.646  0.0287 -0.0969 -0.0551
  525loPI    C2 8386   2.110   1.873  11.013 -0.2154 -0.2929  0.0606
  525loPI    C3 8387   2.200   2.157  10.746 -0.0847 -0.1137  0.2916
  525loPI   PO4 8388   1.926   1.641  10.569  0.2187 -0.0362 -0.2329
  525loPI   GL1 8389   1.958   1.453  10.180 -0.0990  0.0829 -0.2339
  525loPI   GL2 8390   2.151   1.705  10.027  0.1250 -0.0932 -0.4075
  525loPI   C1A 8391   2.035   1.276   9.787  0.0549  0.0646 -0.3285
  525loPI   C2A 8392   2.036   1.358   9.279 -0.4067  0.0772 -0.1627
  525loPI   C3A 8393   2.040   1.415   8.864  0.1615  0.3652 -0.5808
  525loPI   C4A 8394   2.052   1.372   8.445 -0.2630  0.2905  0.0196
  525loPI   C5A 8395   2.349   1.414   8.025 -0.1644  0.0286  0.0712
  525loPI   C6A 8396   2.266   1.202   7.526  0.2614  0.0386 -0.1291
  525loPI   C1B 8397   2.073   1.822   9.589  0.0541  0.2730  0.1699
  525loPI   C2B 8398   2.174   1.839   9.119 -0.1271  0.2240  0.1791
  525loPI   C3B 8399   2.326   1.828   8.775  0.1701  0.3287 -0.4134
  525loPI   C4B 8400   2.259   1.842   8.377 -0.1555  0.0184  0.0211
  526loPI    C1 8401  12.230   3.426  10.017 -0.1283  0.2329 -0.2312
  526loPI    C2 8402  11.880   3.600   9.934 -0.4245 -0.2405 -0.0164
  526loPI    C3 8403  11.894   3.290  10.187  0.1876 -0.0746  0.1681
  526loPI   PO4 8404  12.346   3.277   9.817  0.1183 -0.0173 -0.0272
  526loPI   GL1 8405  12.497   2.930   9.640 -0.1637  0.0899 -0.0060
  526loPI   GL2 8406  12.691   3.102   9.438  0.0011 -0.1726 -0.0910
  526loPI   C1A 8407  12.113   2.731   9.384 -0.0292  0.0847 -0.0321
  526loPI   C2A 8408  11.986   2.778   9.010 -0.2983  0.1025 -0.1702
  526loPI   C3A 8409  11.960   2.900   8.595  0.1320  0.1026  0.4114
  526loPI   C4A 8410  12.272   2.949   8.308 -0.0022  0.1022  0.0107
  526loPI   C5A 8411  12.234   2.680   8.006 -0.1827  0.2590  0.0210
  526loPI   C6A 8412  12.062   2.406   7.775 -0.1429 -0.2705  0.0883
  526loPI   C1B 8413  12.570   2.785   9.166 -0.2767  0.2104 -0.1580
  526loPI   C2B 8414  12.465   2.418   9.187  0.1571  0.1730 -0.1047
  526loPI   C3B 8415  12.497   2.045   9.377  0.1387  0.0882 -0.0033
  526loPI   C4B 8416  12.699   1.945   9.731 -0.0947  0.2179  0.0729
  527loPI    C1 8417   9.591   7.577  10.416 -0.1114 -0.0787  0.0036
  527loPI    C2 8418   9.748   7.767  10.731  0.0442 -0.1445 -0.0336
  527loPI    C3 8419   9.360   7.669  10.729  0.0273 -0.0824  0.1078
  527loPI   PO4 8420   9.667   7.630  10.221 -0.4284  0.1796 -0.0397
  527loPI   GL1 8421   9.566   7.790   9.882 -0.0700  0.0482 -0.0332
  527loPI   GL2 8422   9.806   7.939   9.730  0.0608 -0.0773  0.0252
  527loPI   C1A 8423   9.477   7.846   9.407 -0.3495  0.0603 -0.4207
  527loPI   C2A 8424   9.538   7.848   9.022  0.1457  0.0652  0.0784
  527loPI   C3A 8425   9.583   7.942   8.618 -0.1163 -0.0490  0.0954
  527loPI   C4A 8426   9.523   7.970   8.312  0.2506 -0.3800  0.3216
  527loPI   C5A 8427   9.748   8.057   8.044  0.3789  0.2684  0.2358
  527loPI   C6A 8428   9.973   8.229   7.699 -0.0034  0.0708 -0.0907
  527loPI   C1B 8429  10.065   7.761   9.539 -0.2696  0.0944  0.0214
  527loPI   C2B 8430  10.117   7.786   9.234  0.1406 -0.0409 -0.0261
  527loPI   C3B 8431  10.014   7.883   8.830  0.0495 -0.2145  0.1104
  527loPI   C4B 8432  10.020   7.852   8.378  0.1630 -0.0276 -0.2466
  528loPI    C1 8433   1.280  16.752  10.505  0.0335 -0.0634 -0.2213
  528loPI    C2 8434   1.490  16.426  10.405  0.0952 -0.0307 -0.1987
  528loPI    C3 8435   1.406  16.499  10.789  0.1294  0.0092 -0.1989
  528loPI   PO4 8436   1.150  16.721  10.214  0.0004 -0.3188  0.2161
  528loPI   GL1 8437   1.195  16.807   9.850  0.1065 -0.1464  0.0347
  528loPI   GL2 8438   1.499  16.994   9.790  0.0413 -0.0554  0.0810
  528loPI   C1A 8439   1.243  16.623   9.531 -0.1184  0.1941  0.0353
  528loPI   C2A 8440   1.376  16.700   9.213 -0.0099  0.0502 -0.1763
  528loPI   C3A 8441   1.310  16.477   8.800 -0.0540  0.0971  0.1691
  528loPI   C4A 8442   1.271  16.508   8.308  0.2304 -0.3165  0.1715
  528loPI   C5A 8443   0.976  16.596   7.941  0.0995 -0.1008 -0.2219
  528loPI   C6A 8444   0.592  16.465   7.678 -0.1361  0.2269  0.4569
  528loPI   C1B 8445   1.256  17.192   9.467 -0.0423 -0.0035 -0.0933
  528loPI   C2B 8446   1.281  17.168   8.974  0.0727  0.0870 -0.1718
  528loPI   C3B 8447   1.219  17.006   8.594  0.1891  0.2518  0.0338
  528loPI   C4B 8448   1.234  17.024   8.100 -0.2628  0.1347  0.1096
  529loPI    C1 8449   2.828  11.073  10.959  0.0253  0.0700 -0.0406
  529loPI    C2 8450   2.585  11.379  10.871 -0.1612  0.0067  0.2394
  529loPI    C3 8451   2.536  11.176  11.212  0.0108 -0.2875  0.0940
  529loPI   PO4 8452   2.904  10.913  10.739  0.0035  0.2120 -0.1434
  529loPI   GL1 8453   3.061  10.846  10.315 -0.2127 -0.4029  0.1638
  529loPI   GL2 8454   2.739  10.671  10.209 -0.1104 -0.0239  0.0948
  529loPI   C1A 8455   3.076  10.945   9.896 -0.4836 -0.0093  0.1621
  529loPI   C2A 8456   3.024  11.069   9.371 -0.0436  0.2493  0.3054
  529loPI   C3A 8457   3.122  11.088   8.983 -0.0295 -0.1333 -0.0351
  529loPI   C4A 8458   3.125  11.163   8.548  0.1577 -0.0247 -0.2858
  529loPI   C5A 8459   2.781  11.340   8.216 -0.1493  0.2181 -0.3651
  529loPI   C6A 8460   2.589  11.121   7.981 -0.0344 -0.1975 -0.0091
  529loPI   C1B 8461   2.505  10.840   9.796 -0.1508 -0.0021  0.0903
  529loPI   C2B 8462   2.502  11.000   9.460 -0.2284 -0.0692  0.1107
  529loPI   C3B 8463   2.550  11.261   8.985  0.1044 -0.1708  0.0789
  529loPI   C4B 8464   2.400  11.317   8.539  0.0225  0.0211  0.0378
  530loPI    C1 8465  11.174   5.578  10.438 -0.0391 -0.0308 -0.0791
  530loPI    C2 8466  10.894   5.702  10.181  0.0598 -0.0232 -0.1837
  530loPI    C3 8467  10.931   5.879  10.537  0.0467  0.0926 -0.2396
  530loPI   PO4 8468  11.327   5.498  10.240 -0.1525 -0.1434 -0.2410
  530loPI   GL1 8469  11.325   5.731   9.732  0.2858  0.2299 -0.0113
  530loPI   GL2 8470  11.316   5.384   9.711 -0.1182  0.2094  0.0623
  530loPI   C1A 8471  11.243   6.147   9.579 -0.3589 -0.0316  0.2462
  530loPI   C2A 8472  11.276   6.348   9.165  0.0519 -0.3106  0.1590
  530loPI   C3A 8473  11.276   6.609   8.767 -0.1451  0.1968  0.0348
  530loPI   C4A 8474  11.482   6.740   8.339  0.2382 -0.0511 -0.0566
  530loPI   C5A 8475  11.324   6.789   7.869  0.2758  0.2591  0.0727
  530loPI   C6A 8476  11.138   6.634   7.596 -0.0425  0.1276  0.0494
  530loPI   C1B 8477  11.436   5.265   9.293  0.0222 -0.0276 -0.0700
  530loPI   C2B 8478  11.631   5.446   8.873 -0.0261 -0.1406  0.1106
  530loPI   C3B 8479  11.716   5.756   8.609 -0.3650  0.2007  0.0304
  530loPI   C4B 8480  12.101   6.033   8.554 -0.1569  0.1893 -0.1939
  531loPI    C1 8481  11.572   4.961  10.280  0.0123 -0.2758  0.1903
  531loPI    C2 8482  11.807   5.256  10.412 -0.1646  0.0843 -0.2692
  531loPI    C3 8483  11.487   5.145  10.624 -0.0063  0.1072 -0.0137
  531loPI   PO4 8484  11.642   5.046   9.951 -0.0559  0.2361  0.1145
  531loPI   GL1 8485  11.543   4.864   9.576 -0.0643 -0.1602 -0.4135
  531loPI   GL2 8486  11.748   4.817   9.373  0.1531  0.0281  0.0715
  531loPI   C1A 8487  11.376   4.831   9.048 -0.0471 -0.0209 -0.0774
  531loPI   C2A 8488  11.569   4.950   8.717 -0.0720 -0.2490 -0.1535
  531loPI   C3A 8489  11.789   5.131   8.415  0.0365  0.0528  0.1500
  531loPI   C4A 8490  12.152   5.095   8.103 -0.2140 -0.2053  0.0516
  531loPI   C5A 8491  11.945   5.137   7.683  0.0007 -0.5880  0.0113
  531loPI   C6A 8492  12.321   5.097   7.350  0.0951  0.2517 -0.0270
  531loPI   C1B 8493  11.976   5.028   9.011  0.0213  0.0596 -0.0448
  531loPI   C2B 8494  12.119   5.366   8.693 -0.1590 -0.0480  0.0995
  531loPI   C3B 8495  12.096   5.563   8.329 -0.2092 -0.2643 -0.1491
  531loPI   C4B 8496  11.847   5.580   7.998  0.1479  0.2407  0.1553
  532loPI    C1 8497   1.219  17.900  11.051  0.1580 -0.0658 -0.1052
  532loPI    C2 8498   0.864  17.758  11.168  0.0888  0.0430 -0.1818
  532loPI    C3 8499   1.158  17.505  11.070  0.0582 -0.0475 -0.0426
  532loPI   PO4 8500   1.096  18.079  10.752  0.1807 -0.4581 -0.4065
  532loPI   GL1 8501   1.134  18.210  10.345  0.1761  0.0481  0.3699
  532loPI   GL2 8502   1.096  18.422  10.218  0.1029  0.1091  0.1614
  532loPI   C1A 8503   1.430  18.140  10.030  0.2461 -0.4160 -0.0392
  532loPI   C2A 8504   1.469  18.129   9.644 -0.0089 -0.0390  0.3430
  532loPI   C3A 8505   1.453  18.248   9.264  0.0275  0.0237 -0.1059
  532loPI   C4A 8506   1.805  18.367   9.047  0.3607  0.1267 -0.0085
  532loPI   C5A 8507   2.122  18.329   8.666  0.2022  0.0714 -0.0054
  532loPI   C6A 8508   2.382  18.091   8.529  0.0587 -0.2105  0.4033
  532loPI   C1B 8509   1.024  18.340   9.802 -0.0689 -0.2198  0.0056
  532loPI   C2B 8510   1.119  18.513   9.537 -0.1416  0.3307  0.0100
  532loPI   C3B 8511   1.193  18.695   9.149 -0.0883  0.0066 -0.0832
  532loPI   C4B 8512   1.182  18.728   8.699 -0.0554  0.2817 -0.2303
  533loPI    C1 8513   4.150   2.919  10.629 -0.0363  0.0481 -0.1130
  533loPI    C2 8514   3.941   2.985  10.964  0.0020 -0.0210 -0.0752
  533loPI    C3 8515   3.810   2.718  10.695 -0.0318  0.0386 -0.1181
  533loPI   PO4 8516   4.150   3.205  10.516  0.2859 -0.0786 -0.1762
  533loPI   GL1 8517   4.294   3.311  10.147  0.0718 -0.0742 -0.2108
  533loPI   GL2 8518   4.029   3.454  10.089  0.0389  0.2001  0.2903
  533loPI   C1A 8519   4.410   3.093   9.797  0.2667  0.2569  0.1544
  533loPI   C2A 8520   4.536   3.119   9.299  0.0165 -0.5427  0.3074
  533loPI   C3A 8521   4.633   3.216   8.882 -0.2825 -0.4435 -0.0705
  533loPI   C4A 8522   4.754   3.380   8.489  0.1385  0.2245 -0.1229
  533loPI   C5A 8523   4.860   3.659   8.145 -0.0188  0.1074  0.2532
  533loPI   C6A 8524   5.227   3.744   7.904 -0.2582 -0.0263 -0.4073
  533loPI   C1B 8525   4.113   3.475   9.661 -0.2810 -0.0518  0.0593
  533loPI   C2B 8526   4.226   3.584   9.213 -0.2891 -0.1320  0.2196
  533loPI   C3B 8527   4.362   3.647   8.756 -0.1333 -0.0338  0.5089
  533loPI   C4B 8528   4.299   3.589   8.319 -0.1989 -0.1073 -0.1507
  534loPI    C1 8529   6.208  17.698  10.968 -0.2056 -0.1992 -0.0323
  534loPI    C2 8530   6.493  17.621  11.238 -0.0969  0.4068  0.0399
  534loPI    C3 8531   6.114  17.672  11.356 -0.2067 -0.1742 -0.0308
  534loPI   PO4 8532   6.273  17.513  10.727  0.5384 -0.1279  0.3392
  534loPI   GL1 8533   6.336  17.597  10.284 -0.1436  0.0365  0.1245
  534loPI   GL2 8534   6.434  17.929  10.361  0.1432 -0.1224 -0.3354
  534loPI   C1A 8535   6.083  17.800   9.945  0.0348  0.5542  0.1640
  534loPI   C2A 8536   6.087  17.787   9.449 -0.0885  0.0627 -0.2114
  534loPI   C3A 8537   6.086  17.753   8.982  0.2626 -0.2164  0.1700
  534loPI   C4A 8538   6.045  17.720   8.547  0.1097 -0.0564 -0.0894
  534loPI   C5A 8539   6.055  17.883   8.179  0.4490  0.0348 -0.0965
  534loPI   C6A 8540   5.839  18.103   7.882 -0.0877 -0.0648 -0.1880
  534loPI   C1B 8541   6.600  17.870   9.908  0.2622 -0.0911 -0.0955
  534loPI   C2B 8542   6.535  17.737   9.484 -0.3557 -0.3453  0.0920
  534loPI   C3B 8543   6.548  17.773   9.076 -0.1080  0.3277  0.1598
  534loPI   C4B 8544   6.547  17.759   8.611  0.1144  0.0920 -0.0822
  535loPI    C1 8545  14.791  13.366  10.741  0.0889  0.3196 -0.1416
  535loPI    C2 8546  15.080  13.312  11.012 -0.1090  0.2219  0.0538
  535loPI    C3 8547  14.697  13.320  11.127 -0.2031  0.0693 -0.2374
  535loPI   PO4 8548  14.876  13.377  10.564 -0.1033 -0.1527 -0.1794
  535loPI   GL1 8549  15.073  13.388  10.270  0.0445 -0.0792  0.1522
  535loPI   GL2 8550  15.100  13.813  10.319  0.0837 -0.1695 -0.0375
  535loPI   C1A 8551  15.108  13.113   9.905  0.4364 -0.1316  0.2132
  535loPI   C2A 8552  15.078  13.108   9.406 -0.1044 -0.1748  0.0358
  535loPI   C3A 8553  15.038  13.153   8.960  0.2448 -0.0454  0.1896
  535loPI   C4A 8554  15.200  13.199   8.583 -0.0760  0.2258 -0.0282
  535loPI   C5A 8555  15.296  13.440   8.268  0.0114  0.1025 -0.1337
  535loPI   C6A 8556  15.132  13.725   8.059 -0.2189 -0.0299  0.2153
  535loPI   C1B 8557  15.095  13.643   9.881 -0.2629  0.2041  0.0673
  535loPI   C2B 8558  14.969  13.597   9.296  0.1886  0.0919 -0.4791
  535loPI   C3B 8559  15.002  13.619   8.921 -0.2830 -0.1281  0.0499
  535loPI   C4B 8560  14.903  13.597   8.484  0.4133 -0.1809  0.0740
  536loPI    C1 8561  11.062  12.627  10.797 -0.0687 -0.1912 -0.0506
  536loPI    C2 8562  11.113  12.951  11.027 -0.2293 -0.1742 -0.0373
  536loPI    C3 8563  11.126  12.586  11.190  0.0522 -0.1809 -0.0687
  536loPI   PO4 8564  10.880  12.614  10.683 -0.3707 -0.1360  0.2031
  536loPI   GL1 8565  10.712  12.744  10.330 -0.0146  0.0394 -0.1832
  536loPI   GL2 8566  11.021  12.712  10.202 -0.0719  0.0853 -0.2686
  536loPI   C1A 8567  10.461  12.865   9.979 -0.2946  0.1569 -0.0169
  536loPI   C2A 8568  10.451  12.923   9.594 -0.1168  0.3191 -0.1109
  536loPI   C3A 8569  10.495  12.948   9.154  0.1033 -0.2541 -0.1975
  536loPI   C4A 8570  10.302  13.091   8.856 -0.0428 -0.0688  0.0054
  536loPI   C5A 8571  10.349  13.493   9.051 -0.0985  0.1711  0.0019
  536loPI   C6A 8572  10.383  13.438   9.557  0.0739  0.1295  0.0190
  536loPI   C1B 8573  11.001  12.870   9.783 -0.3953  0.0522  0.1789
  536loPI   C2B 8574  11.011  12.699   9.310  0.2036 -0.1144  0.0692
  536loPI   C3B 8575  11.021  12.747   8.920  0.4910 -0.0275 -0.0277
  536loPI   C4B 8576  10.883  12.756   8.427 -0.1612 -0.2561  0.4372
  537loPI    C1 8577  15.391   5.004   9.991 -0.1721 -0.1067 -0.1631
  537loPI    C2 8578  15.520   4.631  10.057  0.0040 -0.0096  0.0553
  537loPI    C3 8579  15.573   4.913  10.335 -0.2440  0.1497 -0.0551
  537loPI   PO4 8580  15.182   5.029   9.942  0.0901 -0.3185  0.1484
  537loPI   GL1 8581  14.919   5.060   9.584 -0.2464 -0.0600 -0.0497
  537loPI   GL2 8582  14.988   4.813   9.503  0.0384 -0.1798  0.1090
  537loPI   C1A 8583  14.776   5.200   9.164  0.3292 -0.1891  0.2294
  537loPI   C2A 8584  14.791   5.464   8.853  0.1528 -0.3455 -0.0122
  537loPI   C3A 8585  14.820   5.528   8.398 -0.0008  0.0398  0.2412
  537loPI   C4A 8586  14.785   5.359   8.002  0.0728  0.0155 -0.0280
  537loPI   C5A 8587  14.995   5.466   7.596 -0.1427 -0.0689 -0.0861
  537loPI   C6A 8588  15.240   5.225   7.270  0.0548 -0.0476 -0.1830
  537loPI   C1B 8589  15.214   4.821   9.150  0.1610 -0.0692 -0.0955
  537loPI   C2B 8590  15.460   4.579   8.946  0.1830 -0.0174  0.1369
  537loPI   C3B 8591  15.622   4.631   8.551 -0.1723 -0.1418 -0.1177
  537loPI   C4B 8592  15.519   4.716   8.161 -0.1979  0.1560 -0.0868
  538loPI    C1 8593   5.954   3.617  10.847 -0.2241 -0.1999  0.2873
  538loPI    C2 8594   6.010   3.426  11.194  0.3019 -0.0779  0.2781
  538loPI    C3 8595   6.324   3.522  10.966 -0.0088  0.1860 -0.0496
  538loPI   PO4 8596   5.827   3.464  10.696 -0.0202  0.0810 -0.1884
  538loPI   GL1 8597   5.642   3.502  10.360 -0.1978 -0.0691  0.2046
  538loPI   GL2 8598   5.528   3.286  10.186 -0.0713 -0.0536 -0.1017
  538loPI   C1A 8599   6.008   3.628  10.044  0.0835 -0.2313 -0.3237
  538loPI   C2A 8600   5.979   3.443   9.641  0.0737 -0.1717  0.3858
  538loPI   C3A 8601   5.996   3.462   9.220 -0.2997  0.1187  0.0901
  538loPI   C4A 8602   6.138   3.546   8.750  0.0011 -0.4973  0.0333
  538loPI   C5A 8603   6.188   3.653   8.266  0.0740  0.1148  0.1330
  538loPI   C6A 8604   6.551   3.712   8.048 -0.1744  0.2142 -0.0813
  538loPI   C1B 8605   5.774   3.053   9.930 -0.0829  0.0605 -0.0762
  538loPI   C2B 8606   5.758   3.011   9.432 -0.3363 -0.0936  0.0912
  538loPI   C3B 8607   5.883   3.004   9.014 -0.2879 -0.3872  0.1420
  538loPI   C4B 8608   5.984   3.142   8.575  0.1777  0.0455  0.0390
  539loPI    C1 8609   2.492   0.031  10.236  0.0086 -0.0667  0.0458
  539loPI    C2 8610   2.590   0.077  10.621  0.0324  0.1517  0.0148
  539loPI    C3 8611   2.207   0.023  10.517  0.0518 -0.1439  0.0878
  539loPI   PO4 8612   2.677   0.001  10.080  0.0628  0.0537  0.0575
  539loPI   GL1 8613   2.973   0.009   9.946  0.0805  0.0882  0.4384
  539loPI   GL2 8614   2.742  -0.208   9.566  0.1608  0.0463  0.0688
  539loPI   C1A 8615   3.084   0.163   9.454 -0.0270 -0.2092  0.1615
  539loPI   C2A 8616   3.015   0.187   9.088  0.1433 -0.0212  0.1787
  539loPI   C3A 8617   3.064   0.183   8.611  0.0799  0.2243 -0.0923
  539loPI   C4A 8618   3.067   0.303   8.034  0.2618  0.1768 -0.0242
  539loPI   C5A 8619   3.273   0.681   7.864  0.2195  0.0928  0.2160
  539loPI   C6A 8620   3.266   1.123   7.736  0.2160  0.2576 -0.1921
  539loPI   C1B 8621   2.778  -0.280   9.108  0.1940 -0.0461  0.0493
  539loPI   C2B 8622   2.789  -0.366   8.780  0.0168  0.1618 -0.1853
  539loPI   C3B 8623   2.739  -0.620   8.365  0.1362  0.2102 -0.0839
  539loPI   C4B 8624   2.591  -1.001   8.194 -0.1361 -0.1468  0.0609
  540loPI    C1 8625  12.920   0.236  10.872 -0.0029 -0.0898  0.0322
  540loPI    C2 8626  12.604   0.468  10.951  0.0723 -0.0043  0.0840
  540loPI    C3 8627  12.965   0.569  11.088  0.0935 -0.1890  0.1667
  540loPI   PO4 8628  12.946   0.176  10.659  0.3027 -0.0860  0.1023
  540loPI   GL1 8629  13.070  -0.199  10.315  0.1237  0.1026  0.0474
  540loPI   GL2 8630  12.741  -0.261  10.492 -0.1846 -0.0621 -0.3552
  540loPI   C1A 8631  13.013  -0.471   9.863  0.3437  0.2318  0.1510
  540loPI   C2A 8632  13.093  -0.650   9.539  0.2266 -0.1628  0.0941
  540loPI   C3A 8633  13.004  -0.553   9.095  0.1339 -0.0945 -0.0025
  540loPI   C4A 8634  12.994  -0.544   8.620  0.5467 -0.0174  0.0699
  540loPI   C5A 8635  12.796  -0.330   8.276 -0.0693 -0.1614 -0.3694
  540loPI   C6A 8636  12.834  -0.097   7.941  0.0686  0.1694  0.3874
  540loPI   C1B 8637  12.605  -0.302  10.081  0.2005  0.0185  0.3094
  540loPI   C2B 8638  12.515  -0.354   9.705 -0.3083 -0.1362 -0.1752
  540loPI   C3B 8639  12.518  -0.423   9.281 -0.0164  0.1319 -0.2537
  540loPI   C4B 8640  12.574  -0.324   8.865 -0.4542  0.1350  0.0325
  541loPI    C1 8641  10.201  13.966  10.909  0.0542  0.1121 -0.0395
  541loPI    C2 8642  10.447  14.171  11.148  0.0328  0.0791  0.0109
  541loPI    C3 8643  10.180  13.919  11.306  0.1255 -0.0623 -0.0556
  541loPI   PO4 8644  10.199  14.072  10.679 -0.0672  0.1411  0.2397
  541loPI   GL1 8645  10.198  13.908  10.316 -0.1919 -0.0846 -0.0273
  541loPI   GL2 8646  10.528  13.975  10.306 -0.1466  0.0013 -0.1746
  541loPI   C1A 8647  10.006  13.697   9.953  0.0190  0.2164 -0.0302
  541loPI   C2A 8648   9.972  13.684   9.498 -0.0193  0.0091 -0.0050
  541loPI   C3A 8649   9.925  13.795   9.094 -0.2635 -0.2279 -0.2580
  541loPI   C4A 8650   9.989  13.551   8.702  0.0899  0.1641  0.1355
  541loPI   C5A 8651  10.345  13.397   8.434 -0.0940  0.2243  0.0891
  541loPI   C6A 8652  10.653  13.212   8.157  0.0431 -0.1584  0.1375
  541loPI   C1B 8653  10.472  13.876   9.908 -0.0004 -0.2007  0.0046
  541loPI   C2B 8654  10.335  13.999   9.417  0.0028 -0.0895 -0.2248
  541loPI   C3B 8655  10.276  14.060   8.927  0.0593 -0.0519 -0.2066
  541loPI   C4B 8656  10.369  13.889   8.558  0.0610  0.0624  0.1610
  542loPI    C1 8657   8.045  10.278  11.141  0.1384 -0.0102  0.0771
  542loPI    C2 8658   8.219  10.628  11.227  0.2918 -0.1008  0.1400
  542loPI    C3 8659   7.848  10.552  11.357  0.2920  0.0029  0.2030
  542loPI   PO4 8660   8.124  10.210  10.908  0.1701  0.3113 -0.0097
  542loPI   GL1 8661   8.171  10.011  10.536 -0.1108  0.0983  0.2523
  542loPI   GL2 8662   8.428  10.188  10.474  0.0413 -0.1165  0.4438
  542loPI   C1A 8663   8.129  10.158  10.090  0.5083  0.1293  0.1490
  542loPI   C2A 8664   8.146  10.248   9.658  0.0385 -0.2457  0.3422
  542loPI   C3A 8665   8.186  10.224   9.273  0.1644 -0.0899 -0.2782
  542loPI   C4A 8666   8.179  10.211   8.888 -0.2566 -0.2702  0.1742
  542loPI   C5A 8667   8.262  10.284   8.528  0.1836  0.1090 -0.1435
  542loPI   C6A 8668   8.284  10.434   8.217 -0.4181 -0.0086  0.2078
  542loPI   C1B 8669   8.482  10.469  10.006 -0.2119 -0.0127 -0.5644
  542loPI   C2B 8670   8.570  10.511   9.561  0.0755 -0.4360  0.0197
  542loPI   C3B 8671   8.559  10.525   9.096  0.1648 -0.1277 -0.0544
  542loPI   C4B 8672   8.639  10.590   8.577  0.2257 -0.0183 -0.0995
  543loPI    C1 8673   7.516  14.433  10.898  0.1006  0.0472  0.0232
  543loPI    C2 8674   7.813  14.500  11.159  0.0955 -0.0110  0.0439
  543loPI    C3 8675   7.494  14.285  11.269  0.1046 -0.0564 -0.0178
  543loPI   PO4 8676   7.632  14.326  10.712  0.0539 -0.0765 -0.0084
  543loPI   GL1 8677   7.529  14.360  10.310  0.0418  0.1665  0.0085
  543loPI   GL2 8678   7.387  14.486  10.263  0.4579  0.0032 -0.1803
  543loPI   C1A 8679   7.678  14.243   9.884 -0.0092 -0.2709 -0.1046
  543loPI   C2A 8680   7.737  14.293   9.351  0.0772  0.0824  0.2792
  543loPI   C3A 8681   7.598  14.266   8.827 -0.4048  0.0755  0.1393
  543loPI   C4A 8682   7.570  14.474   8.489  0.1681  0.2243  0.2863
  543loPI   C5A 8683   7.559  14.525   8.024 -0.0269  0.2415 -0.1119
  543loPI   C6A 8684   7.489  14.412   7.613  0.1079 -0.1193 -0.3249
  543loPI   C1B 8685   7.238  14.446   9.773 -0.0498 -0.0406  0.0618
  543loPI   C2B 8686   7.221  14.471   9.298 -0.1677 -0.0755  0.2448
  543loPI   C3B 8687   7.145  14.488   8.841  0.1215  0.0142 -0.1091
  543loPI   C4B 8688   6.985  14.442   8.464 -0.3329  0.1475  0.1853
  544loPI    C1 8689   9.281   3.696  10.855 -0.1603  0.0441 -0.0995
  544loPI    C2 8690   9.610   3.604  11.064 -0.1560 -0.1141 -0.1752
  544loPI    C3 8691   9.278   3.721  11.255 -0.1037 -0.1057 -0.0892
  544loPI   PO4 8692   9.319   3.821  10.639  0.0825 -0.0079 -0.2708
  544loPI   GL1 8693   9.221   3.780  10.248  0.1008  0.1139 -0.3849
  544loPI   GL2 8694   8.936   3.762  10.134 -0.0910 -0.0158  0.2104
  544loPI   C1A 8695   9.244   3.707   9.739  0.0920  0.1905 -0.1307
  544loPI   C2A 8696   9.078   3.567   9.334  0.2639  0.1329 -0.0692
  544loPI   C3A 8697   9.037   3.716   9.050  0.0380 -0.0321  0.1974
  544loPI   C4A 8698   9.070   3.674   8.651  0.0990  0.1107  0.1579
  544loPI   C5A 8699   9.035   3.672   8.235 -0.3435  0.1425 -0.1435
  544loPI   C6A 8700   9.238   3.589   7.813 -0.1190 -0.2225 -0.0344
  544loPI   C1B 8701   8.814   3.451   9.844  0.2200  0.0678  0.3130
  544loPI   C2B 8702   8.793   3.219   9.551 -0.1243  0.3915  0.0297
  544loPI   C3B 8703   8.847   3.136   9.072  0.1226  0.0099 -0.0570
  544loPI   C4B 8704   8.779   3.106   8.699 -0.2485 -0.0687  0.2232
  545loPI    C1 8705  13.007   2.487  10.216  0.0395  0.0846  0.0196
  545loPI    C2 8706  12.913   2.098  10.197  0.1314  0.0603  0.0597
  545loPI    C3 8707  13.030   2.259  10.544  0.1052  0.1213  0.0404
  545loPI   PO4 8708  12.825   2.524   9.945 -0.0222 -0.0056 -0.0899
  545loPI   GL1 8709  12.873   2.519   9.541  0.5199 -0.1032 -0.1958
  545loPI   GL2 8710  13.183   2.673   9.570 -0.1015 -0.2006 -0.3230
  545loPI   C1A 8711  12.951   2.311   9.120 -0.0858 -0.0135 -0.0415
  545loPI   C2A 8712  12.622   2.032   8.872 -0.3621 -0.0823  0.0602
  545loPI   C3A 8713  12.510   1.845   8.455  0.2379  0.0228 -0.4737
  545loPI   C4A 8714  12.524   1.578   8.116  0.1700  0.0972 -0.0337
  545loPI   C5A 8715  12.442   1.242   7.770 -0.0268  0.1057  0.0277
  545loPI   C6A 8716  12.363   0.901   7.624  0.0512 -0.0958  0.0731
  545loPI   C1B 8717  13.104   2.799   9.126  0.0778  0.1271 -0.0512
  545loPI   C2B 8718  12.868   2.741   8.733 -0.0286 -0.1223 -0.0942
  545loPI   C3B 8719  12.762   2.826   8.310  0.3564  0.1219 -0.3849
  545loPI   C4B 8720  12.654   2.928   7.803 -0.4498 -0.1902  0.0596
  546loPI    C1 8721   5.709   7.080  10.807 -0.1074 -0.0123 -0.0402
  546loPI    C2 8722   6.016   7.059  11.063 -0.1981  0.0137  0.0709
  546loPI    C3 8723   5.781   6.741  11.006 -0.2233  0.0312  0.0766
  546loPI   PO4 8724   5.739   7.214  10.644  0.2147  0.1184  0.0405
  546loPI   GL1 8725   5.945   7.249  10.316 -0.3549  0.0673 -0.1870
  546loPI   GL2 8726   5.775   7.014  10.163 -0.0711 -0.1591  0.0653
  546loPI   C1A 8727   6.216   7.287   9.889  0.1454 -0.1268  0.1001
  546loPI   C2A 8728   6.374   7.393   9.498  0.2647  0.0347  0.1985
  546loPI   C3A 8729   6.351   7.632   9.102 -0.1722  0.0672  0.1135
  546loPI   C4A 8730   6.323   7.648   8.631  0.0883 -0.2015 -0.1628
  546loPI   C5A 8731   6.277   7.529   8.191 -0.1210 -0.3206 -0.1568
  546loPI   C6A 8732   6.064   7.464   7.740  0.2788  0.1009 -0.4475
  546loPI   C1B 8733   5.726   7.200   9.781  0.0293  0.2211 -0.0656
  546loPI   C2B 8734   5.921   7.140   9.374  0.0042 -0.2872  0.2367
  546loPI   C3B 8735   6.254   6.883   9.250 -0.1172  0.1112  0.0121
  546loPI   C4B 8736   6.405   7.123   8.971  0.2824 -0.2036 -0.2660
  547loPI    C1 8737  17.969   4.952  10.391  0.2900 -0.0760  0.0941
  547loPI    C2 8738  17.879   5.067  10.763  0.0961 -0.0416  0.0382
  547loPI    C3 8739  17.902   4.678  10.675 -0.0061 -0.0510  0.0521
  547loPI   PO4 8740  17.833   5.023  10.268  0.2997 -0.0306  0.0489
  547loPI   GL1 8741  17.857   5.020   9.810  0.0072 -0.3467 -0.2961
  547loPI   GL2 8742  18.073   4.818   9.846 -0.0944  0.0031 -0.0785
  547loPI   C1A 8743  17.886   5.359   9.562  0.2549 -0.1794  0.0370
  547loPI   C2A 8744  18.145   5.628   9.258  0.2241 -0.0469  0.0312
  547loPI   C3A 8745  18.173   5.604   8.813 -0.4037 -0.0113 -0.2451
  547loPI   C4A 8746  17.974   5.752   8.476 -0.1420 -0.0722 -0.3173
  547loPI   C5A 8747  17.591   5.946   8.158 -0.2935  0.2756 -0.2720
  547loPI   C6A 8748  17.609   6.117   7.705  0.2908 -0.0672 -0.1786
  547loPI   C1B 8749  18.174   4.839   9.421  0.1690  0.5157  0.1517
  547loPI   C2B 8750  18.341   4.727   8.981 -0.1101  0.2389 -0.0691
  547loPI   C3B 8751  18.331   4.908   8.542 -0.0893 -0.0702 -0.0199
  547loPI   C4B 8752  18.436   5.088   8.125  0.0381  0.1237  0.0662
  548loPI    C1 8753   0.916   9.650  10.812  0.1437  0.0205  0.0573
  548loPI    C2 8754   0.651   9.554  11.095 -0.0501 -0.2441 -0.2084
  548loPI    C3 8755   1.041   9.499  11.160 -0.0714 -0.0405  0.1093
  548loPI   PO4 8756   0.724   9.693  10.611 -0.0922 -0.0278  0.0268
  548loPI   GL1 8757   0.773  10.015  10.381  0.2686 -0.1718  0.0319
  548loPI   GL2 8758   0.489  10.129  10.447 -0.2103  0.1170 -0.0612
  548loPI   C1A 8759   0.794  10.118   9.940 -0.0196  0.0969  0.0808
  548loPI   C2A 8760   0.855  10.249   9.570  0.0915 -0.4067 -0.2919
  548loPI   C3A 8761   0.696  10.488   9.264  0.3247 -0.0190 -0.1270
  548loPI   C4A 8762   0.684  10.584   8.822  0.0133 -0.1650 -0.0286
  548loPI   C5A 8763   0.671  10.406   8.444  0.1587 -0.0121  0.1932
  548loPI   C6A 8764   0.313  10.099   8.406  0.0150  0.1479 -0.2831
  548loPI   C1B 8765   0.324  10.192  10.064 -0.0084 -0.0143  0.3522
  548loPI   C2B 8766   0.310  10.146   9.670 -0.1875  0.1223  0.1810
  548loPI   C3B 8767   0.287  10.217   9.334  0.2669 -0.0448  0.1637
  548loPI   C4B 8768   0.270  10.286   8.910  0.3022  0.1732 -0.0710
  549loPI    C1 8769   8.984   5.542  10.529 -0.0849  0.0135 -0.0592
  549loPI    C2 8770   9.043   5.579  10.923 -0.2373  0.0857 -0.0422
  549loPI    C3 8771   8.775   5.316  10.785 -0.0812 -0.0418 -0.1049
  549loPI   PO4 8772   8.940   5.705  10.427  0.3767 -0.0429 -0.1665
  549loPI   GL1 8773   8.957   5.759  10.078  0.3304 -0.0176 -0.0199
  549loPI   GL2 8774   8.951   5.992   9.967  0.3500  0.3767  0.2710
  549loPI   C1A 8775   9.116   5.574   9.731  0.0185  0.1315  0.3149
  549loPI   C2A 8776   9.081   5.703   9.260  0.2138 -0.0222  0.1030
  549loPI   C3A 8777   9.048   5.717   8.781 -0.1824  0.2152  0.1886
  549loPI   C4A 8778   9.071   5.739   8.374  0.2927  0.2563  0.0292
  549loPI   C5A 8779   9.342   5.705   7.978 -0.2436  0.1102  0.3535
  549loPI   C6A 8780   9.672   5.332   7.751 -0.1741 -0.4972 -0.0314
  549loPI   C1B 8781   8.990   6.104   9.600  0.0806  0.1150  0.1335
  549loPI   C2B 8782   9.050   6.176   9.155  0.1318  0.0410 -0.1558
  549loPI   C3B 8783   9.046   6.206   8.665  0.1730 -0.1204  0.2848
  549loPI   C4B 8784   8.991   6.236   8.284  0.1639 -0.0140  0.2252
  550loPI    C1 8785  15.839   5.427  10.058  0.0985 -0.1095 -0.0319
  550loPI    C2 8786  15.450   5.474   9.980  0.0379 -0.2543  0.1752
  550loPI    C3 8787  15.572   5.409  10.355  0.3005  0.1879  0.1728
  550loPI   PO4 8788  15.991   5.525   9.870 -0.3416 -0.1875 -0.2402
  550loPI   GL1 8789  16.063   5.582   9.414  0.0756  0.0549 -0.4109
  550loPI   GL2 8790  16.281   5.573   9.476 -0.0051 -0.0223 -0.0951
  550loPI   C1A 8791  15.725   5.578   9.204 -0.1717  0.1827 -0.2131
  550loPI   C2A 8792  15.679   5.641   8.748  0.0603 -0.2933  0.1017
  550loPI   C3A 8793  15.733   5.538   8.366 -0.2443 -0.3841  0.1323
  550loPI   C4A 8794  15.968   5.412   7.992  0.2285 -0.1060  0.1347
  550loPI   C5A 8795  16.123   5.044   7.774  0.0826 -0.0368  0.1150
  550loPI   C6A 8796  16.280   4.950   7.435 -0.2014  0.1319  0.3223
  550loPI   C1B 8797  16.566   5.526   9.059  0.0589  0.0703  0.0240
  550loPI   C2B 8798  16.542   5.762   8.701 -0.1420  0.3124  0.0813
  550loPI   C3B 8799  16.735   5.749   8.245  0.0213 -0.2136  0.0193
  550loPI   C4B 8800  17.025   5.508   7.886  0.2339 -0.3767 -0.1659
  551loPI    C1 8801   3.168   5.424  11.071  0.1076 -0.1430 -0.1420
  551loPI    C2 8802   3.100   5.595  11.426 -0.0265 -0.2280 -0.1260
  551loPI    C3 8803   3.278   5.237  11.407  0.1877 -0.1213 -0.1559
  551loPI   PO4 8804   3.264   5.538  10.906  0.0395 -0.0568 -0.0034
  551loPI   GL1 8805   3.101   5.732  10.528  0.1791  0.2815  0.1657
  551loPI   GL2 8806   3.240   5.467  10.411  0.1244  0.0216 -0.0122
  551loPI   C1A 8807   2.743   5.531  10.277 -0.0052  0.1036  0.1283
  551loPI   C2A 8808   2.647   5.528   9.856 -0.1562 -0.0292 -0.1624
  551loPI   C3A 8809   2.606   5.553   9.418 -0.0962  0.2008  0.2613
  551loPI   C4A 8810   2.736   5.557   8.925 -0.0285  0.1185 -0.1575
  551loPI   C5A 8811   2.849   5.467   8.443 -0.1338 -0.3289 -0.3284
  551loPI   C6A 8812   2.942   5.066   8.201 -0.1699  0.3380  0.1432
  551loPI   C1B 8813   3.221   5.561   9.985 -0.0221 -0.3260  0.3702
  551loPI   C2B 8814   3.116   5.575   9.563 -0.1333 -0.4504 -0.3455
  551loPI   C3B 8815   3.194   5.624   9.105 -0.1044 -0.4503 -0.0338
  551loPI   C4B 8816   3.266   5.633   8.806 -0.2085 -0.2456 -0.1052
  552loPI    C1 8817  13.645   1.761  10.050  0.1523 -0.1037  0.1066
  552loPI    C2 8818  13.430   2.045  10.231 -0.0458 -0.2498  0.1035
  552loPI    C3 8819  13.792   1.950  10.370  0.1643  0.2311 -0.0913
  552loPI   PO4 8820  13.442   1.510  10.096 -0.1889  0.0412 -0.1052
  552loPI   GL1 8821  13.319   1.344   9.788 -0.0745 -0.0505 -0.2181
  552loPI   GL2 8822  13.405   1.700   9.613  0.0830  0.3667  0.1491
  552loPI   C1A 8823  13.481   1.230   9.417  0.1474  0.0056  0.2763
  552loPI   C2A 8824  13.637   1.083   9.025 -0.3033 -0.1932 -0.0482
  552loPI   C3A 8825  13.654   1.078   8.596  0.0390 -0.0827  0.1141
  552loPI   C4A 8826  13.550   1.091   8.141  0.3223  0.0951 -0.0027
  552loPI   C5A 8827  13.654   1.173   7.765  0.5030 -0.0681  0.3007
  552loPI   C6A 8828  13.666   1.016   7.244 -0.1049 -0.1541  0.0849
  552loPI   C1B 8829  13.452   1.664   9.149  0.0805 -0.0974 -0.0282
  552loPI   C2B 8830  13.836   1.535   8.856 -0.1371 -0.2337  0.0984
  552loPI   C3B 8831  13.823   1.463   8.374 -0.1646  0.2312 -0.1160
  552loPI   C4B 8832  13.466   1.580   8.045 -0.1927  0.0268  0.2100
  553loPI    C1 8833  14.887  11.113  10.416  0.0505  0.0384  0.0555
  553loPI    C2 8834  15.209  10.947  10.586 -0.1112 -0.2471  0.0890
  553loPI    C3 8835  15.017  11.246  10.770  0.1762 -0.0240  0.0333
  553loPI   PO4 8836  15.010  11.184  10.160  0.1276  0.2760 -0.2503
  553loPI   GL1 8837  15.220  10.988   9.745  0.0820 -0.1774 -0.1862
  553loPI   GL2 8838  14.892  11.029   9.702  0.0949  0.1456  0.1219
  553loPI   C1A 8839  15.300  11.019   9.313  0.0977  0.2116  0.2646
  553loPI   C2A 8840  15.309  10.976   8.908 -0.2516  0.0833 -0.0507
  553loPI   C3A 8841  15.338  11.017   8.493 -0.0700  0.0643  0.2530
  553loPI   C4A 8842  15.316  11.250   8.059  0.0904 -0.1759 -0.0894
  553loPI   C5A 8843  15.655  11.590   8.018  0.1075  0.0251  0.3393
  553loPI   C6A 8844  15.966  11.692   8.082 -0.0233 -0.0708  0.2678
  553loPI   C1B 8845  14.850  11.292   9.371  0.0117  0.0973 -0.5054
  553loPI   C2B 8846  14.796  11.179   9.019 -0.3072 -0.1115  0.0061
  553loPI   C3B 8847  14.862  11.289   8.503  0.2206 -0.0693  0.1900
  553loPI   C4B 8848  14.953  10.923   8.165 -0.1931 -0.1902  0.0112
  554loPI    C1 8849  11.831  12.728  10.579 -0.2171 -0.3510 -0.0559
  554loPI    C2 8850  11.460  12.870  10.538 -0.2044 -0.2468  0.1715
  554loPI    C3 8851  11.615  12.819  10.903  0.0957 -0.0502  0.0755
  554loPI   PO4 8852  11.867  12.548  10.426 -0.1924 -0.2891 -0.1762
  554loPI   GL1 8853  11.891  12.571  10.059 -0.0208  0.0447 -0.0010
  554loPI   GL2 8854  11.532  12.713  10.043  0.0273  0.3796  0.4060
  554loPI   C1A 8855  11.926  12.378   9.640 -0.0329  0.1224 -0.1560
  554loPI   C2A 8856  12.035  12.280   9.252 -0.0667 -0.4483 -0.1040
  554loPI   C3A 8857  11.934  12.302   8.803  0.1212 -0.3251  0.1482
  554loPI   C4A 8858  11.957  12.312   8.374  0.2351 -0.0316  0.2710
  554loPI   C5A 8859  12.203  12.405   8.106 -0.1012 -0.3336  0.2859
  554loPI   C6A 8860  12.543  12.512   7.924  0.1421  0.1697 -0.2132
  554loPI   C1B 8861  11.452  12.539   9.655  0.0360  0.0415 -0.4975
  554loPI   C2B 8862  11.517  12.510   9.196 -0.1591  0.2327 -0.0696
  554loPI   C3B 8863  11.526  12.613   8.756 -0.1455 -0.1153  0.2256
  554loPI   C4B 8864  11.427  12.529   8.449 -0.0520 -0.1776  0.0677
  555loPI    C1 8865  17.030   7.681  10.372 -0.1584 -0.2093 -0.0434
  555loPI    C2 8866  16.955   7.468  10.702  0.0774 -0.0477  0.1178
  555loPI    C3 8867  16.973   7.867  10.722 -0.0333 -0.0296 -0.1169
  555loPI   PO4 8868  17.208   7.592  10.259 -0.0528  0.1259 -0.1032
  555loPI   GL1 8869  17.508   7.771  10.016 -0.0463 -0.1669  0.0462
  555loPI   GL2 8870  17.396   7.580   9.776 -0.0008 -0.2496 -0.3360
  555loPI   C1A 8871  17.664   8.072   9.778 -0.0821  0.0468  0.3349
  555loPI   C2A 8872  17.677   8.221   9.318  0.0488  0.1969 -0.0672
  555loPI   C3A 8873  17.607   8.344   8.937  0.0190  0.2875 -0.0661
  555loPI   C4A 8874  17.566   8.326   8.459  0.0967 -0.1760  0.0977
  555loPI   C5A 8875  17.801   8.412   8.135  0.0913 -0.3088  0.0992
  555loPI   C6A 8876  17.868   8.553   7.738 -0.1682 -0.1050  0.1793
  555loPI   C1B 8877  17.601   7.700   9.427  0.0775  0.0167 -0.2725
  555loPI   C2B 8878  17.723   7.820   8.977  0.1448 -0.2208 -0.0742
  555loPI   C3B 8879  17.729   7.796   8.517 -0.0295 -0.0536 -0.0240
  555loPI   C4B 8880  17.784   7.923   8.158 -0.0558 -0.0692  0.3002
  556loPI    C1 8881   1.205   0.232  10.696  0.0374 -0.0969 -0.2273
  556loPI    C2 8882   1.512   0.111  10.921  0.0655 -0.0157 -0.2217
  556loPI    C3 8883   1.146   0.136  11.080  0.0666 -0.0563 -0.2126
  556loPI   PO4 8884   1.286   0.456  10.580  0.0348  0.0435  0.0058
  556loPI   GL1 8885   1.449   0.464  10.115  0.2396 -0.2313  0.0652
  556loPI   GL2 8886   1.549   0.261   9.855 -0.3708  0.1023 -0.2584
  556loPI   C1A 8887   1.324   0.672   9.733  0.0413 -0.3593 -0.1609
  556loPI   C2A 8888   1.320   0.834   9.314  0.0813 -0.0155 -0.0841
  556loPI   C3A 8889   1.358   0.875   8.827 -0.1216  0.1220 -0.1953
  556loPI   C4A 8890   1.370   0.864   8.422  0.1224  0.1171  0.0316
  556loPI   C5A 8891   1.590   0.814   8.012 -0.1571 -0.1132 -0.0406
  556loPI   C6A 8892   1.377   0.729   7.572  0.0253  0.0020  0.1151
  556loPI   C1B 8893   1.646   0.387   9.368  0.0385  0.1003 -0.0348
  556loPI   C2B 8894   1.620   0.501   8.984  0.3134 -0.1562 -0.0982
  556loPI   C3B 8895   1.739   0.370   8.537 -0.0372  0.2169 -0.3731
  556loPI   C4B 8896   2.070   0.167   8.145  0.0177  0.1808  0.0443
  557loPI    C1 8897   5.678   9.220  10.896  0.0806 -0.0285  0.0433
  557loPI    C2 8898   6.000   9.007  10.793  0.0643 -0.0276 -0.0099
  557loPI    C3 8899   5.664   8.820  10.902  0.1152 -0.0284  0.1486
  557loPI   PO4 8900   5.660   9.380  10.733 -0.1247  0.1317 -0.0999
  557loPI   GL1 8901   5.265   9.450  10.360 -0.2947 -0.0134  0.1254
  557loPI   GL2 8902   5.423   9.684  10.418 -0.0222 -0.0162  0.1807
  557loPI   C1A 8903   4.947   9.645  10.165 -0.1247  0.0047 -0.0276
  557loPI   C2A 8904   4.957   9.871   9.848  0.0269 -0.0995 -0.1672
  557loPI   C3A 8905   5.049   9.922   9.416 -0.0880 -0.0863 -0.0442
  557loPI   C4A 8906   5.075   9.867   8.978 -0.0480 -0.2796 -0.0052
  557loPI   C5A 8907   5.184  10.043   8.500 -0.0578  0.5471  0.0017
  557loPI   C6A 8908   5.162  10.389   8.233 -0.0164  0.0888  0.0344
  557loPI   C1B 8909   5.397   9.655   9.911 -0.1320  0.0349  0.1547
  557loPI   C2B 8910   5.504   9.672   9.497  0.3125 -0.2919  0.2202
  557loPI   C3B 8911   5.591   9.722   9.107  0.2690 -0.3893  0.1962
  557loPI   C4B 8912   5.570   9.797   8.651  0.0354  0.0023  0.1364
  558loPI    C1 8913   6.177   9.360  11.272  0.0508 -0.1388  0.2896
  558loPI    C2 8914   5.799   9.274  11.372 -0.0661 -0.0448 -0.0586
  558loPI    C3 8915   6.068   8.980  11.338 -0.1083 -0.1134  0.1793
  558loPI   PO4 8916   6.144   9.512  10.969  0.2845 -0.0857 -0.1640
  558loPI   GL1 8917   6.189   9.430  10.554 -0.1856 -0.3042 -0.1829
  558loPI   GL2 8918   6.468   9.309  10.514 -0.3854 -0.1041 -0.1677
  558loPI   C1A 8919   5.943   9.524  10.184 -0.0664  0.0443  0.3573
  558loPI   C2A 8920   5.888   9.533   9.793 -0.1495 -0.2337  0.0646
  558loPI   C3A 8921   5.957   9.493   9.364  0.0475  0.2930 -0.0185
  558loPI   C4A 8922   6.027   9.602   8.891  0.0534 -0.2386 -0.2423
  558loPI   C5A 8923   6.197   9.662   8.537  0.1268  0.0294 -0.0324
  558loPI   C6A 8924   6.447   9.654   8.198  0.3087  0.3197 -0.0535
  558loPI   C1B 8925   6.437   9.316  10.076 -0.0589 -0.2361 -0.0821
  558loPI   C2B 8926   6.403   9.315   9.658 -0.0960 -0.2197 -0.0675
  558loPI   C3B 8927   6.483   9.350   9.233 -0.2969  0.0154  0.1808
  558loPI   C4B 8928   6.493   9.425   8.942  0.0756 -0.2106  0.1545
  559loPI    C1 8929   8.272  11.937  11.226 -0.0581 -0.1070  0.1459
  559loPI    C2 8930   8.023  12.172  11.019  0.0080 -0.1316  0.0378
  559loPI    C3 8931   8.055  12.215  11.416 -0.1059 -0.0724  0.0410
  559loPI   PO4 8932   8.493  11.915  11.058  0.3808 -0.1141  0.0781
  559loPI   GL1 8933   8.610  11.982  10.652  0.0833 -0.1174 -0.0258
  559loPI   GL2 8934   8.690  12.246  10.489 -0.2627  0.0395  0.2001
  559loPI   C1A 8935   8.734  11.789  10.214 -0.3114  0.0137  0.0478
  559loPI   C2A 8936   8.709  11.854   9.839 -0.0707 -0.1061  0.1318
  559loPI   C3A 8937   8.916  11.917   9.455 -0.1589 -0.2585 -0.1512
  559loPI   C4A 8938   8.851  11.916   8.980  0.0299  0.3507 -0.1675
  559loPI   C5A 8939   8.914  11.703   8.593  0.0501 -0.1362 -0.2458
  559loPI   C6A 8940   9.078  11.637   8.201  0.0231  0.1712 -0.1831
  559loPI   C1B 8941   8.622  12.302  10.107  0.1073 -0.0612 -0.2274
  559loPI   C2B 8942   8.677  12.302   9.650  0.0957 -0.0655 -0.0837
  559loPI   C3B 8943   8.692  12.311   9.195  0.0625  0.3756  0.0775
  559loPI   C4B 8944   8.728  12.345   8.819 -0.2501 -0.3407 -0.1568
  560loPI    C1 8945  15.821  15.001  10.885 -0.1824 -0.1193 -0.0121
  560loPI    C2 8946  15.802  15.350  11.079  0.1004 -0.1840  0.1379
  560loPI    C3 8947  15.681  15.014  11.260  0.2322 -0.2243  0.1521
  560loPI   PO4 8948  15.777  15.020  10.592  0.3008 -0.1206  0.1260
  560loPI   GL1 8949  16.056  14.865  10.249  0.1722 -0.2219 -0.3958
  560loPI   GL2 8950  15.822  14.582  10.241 -0.5955 -0.0219  0.0677
  560loPI   C1A 8951  16.270  14.635  10.008 -0.2286 -0.0471  0.1355
  560loPI   C2A 8952  16.308  14.598   9.504  0.1369  0.0602 -0.1027
  560loPI   C3A 8953  16.189  14.975   9.228 -0.0922  0.0192  0.1019
  560loPI   C4A 8954  16.051  15.025   8.724  0.1621  0.0541 -0.0655
  560loPI   C5A 8955  15.977  15.068   8.261  0.0680 -0.3521  0.1664
  560loPI   C6A 8956  15.725  14.853   7.962 -0.1390 -0.2432 -0.0930
  560loPI   C1B 8957  15.830  14.802   9.821 -0.0436 -0.0594 -0.2929
  560loPI   C2B 8958  15.620  14.764   9.321  0.1580 -0.0257 -0.1810
  560loPI   C3B 8959  15.620  14.825   8.822 -0.2610  0.3048  0.1288
  560loPI   C4B 8960  15.629  14.771   8.437  0.1527  0.1891 -0.1243
  561loPI    C1 8961   7.285  15.878  10.753  0.2511  0.0918  0.0919
  561loPI    C2 8962   7.232  15.594  11.030 -0.1016  0.0820  0.0197
  561loPI    C3 8963   7.091  15.963  11.093 -0.0128  0.1306 -0.0651
  561loPI   PO4 8964   7.150  15.800  10.514 -0.0767  0.0936 -0.0690
  561loPI   GL1 8965   7.068  16.020  10.116 -0.1471 -0.0603 -0.0886
  561loPI   GL2 8966   7.041  15.833   9.975 -0.0162 -0.0331 -0.0915
  561loPI   C1A 8967   7.323  16.207   9.802 -0.2871 -0.0421  0.0284
  561loPI   C2A 8968   7.485  16.411   9.480 -0.1292  0.1198 -0.0481
  561loPI   C3A 8969   7.528  16.615   9.024  0.1039  0.0374  0.0232
  561loPI   C4A 8970   7.473  16.558   8.596  0.5292 -0.1012 -0.3978
  561loPI   C5A 8971   7.596  16.524   8.186 -0.3388  0.0515 -0.3087
  561loPI   C6A 8972   7.672  16.540   7.791  0.0651 -0.0044 -0.0208
  561loPI   C1B 8973   6.990  15.941   9.566  0.0315  0.1901  0.1986
  561loPI   C2B 8974   6.862  15.881   9.075 -0.0195 -0.0054 -0.1953
  561loPI   C3B 8975   7.044  15.808   8.744 -0.1354  0.1228 -0.0304
  561loPI   C4B 8976   7.272  16.047   8.395 -0.0350  0.0131  0.0654
  562loPI    C1 8977  13.018  13.445  10.589  0.0929  0.1624 -0.0950
  562loPI    C2 8978  12.863  13.814  10.590 -0.2311  0.0295 -0.1587
  562loPI    C3 8979  12.876  13.602  10.928 -0.0201  0.1069 -0.1165
  562loPI   PO4 8980  12.945  13.284  10.416  0.2942 -0.0516 -0.2650
  562loPI   GL1 8981  12.882  13.365  10.005  0.3867 -0.1780 -0.0353
  562loPI   GL2 8982  13.152  13.285   9.949  0.0532 -0.0341  0.0062
  562loPI   C1A 8983  12.795  12.984   9.735  0.0608  0.1829 -0.1151
  562loPI   C2A 8984  12.741  13.013   9.330 -0.3083 -0.3585  0.4049
  562loPI   C3A 8985  12.792  12.964   8.850 -0.1886 -0.1786  0.0939
  562loPI   C4A 8986  12.707  13.027   8.419 -0.1364  0.0548 -0.1299
  562loPI   C5A 8987  12.411  13.367   8.198 -0.2177  0.1129 -0.1630
  562loPI   C6A 8988  12.383  13.774   8.056  0.0643 -0.1736  0.0190
  562loPI   C1B 8989  13.207  13.244   9.575 -0.0085 -0.0904 -0.0681
  562loPI   C2B 8990  13.186  13.267   9.078 -0.3744 -0.2224  0.2220
  562loPI   C3B 8991  13.253  13.311   8.639  0.1579  0.0739  0.0910
  562loPI   C4B 8992  13.131  13.339   8.171 -0.1197  0.1894  0.0551
  563loPI    C1 8993  17.821  10.111  10.726  0.0232 -0.0931 -0.1356
  563loPI    C2 8994  17.795   9.815  10.993  0.0781 -0.0482 -0.0804
  563loPI    C3 8995  17.928  10.175  11.106  0.4534 -0.1313 -0.2450
  563loPI   PO4 8996  17.739   9.966  10.474  0.1087 -0.1583 -0.0091
  563loPI   GL1 8997  17.716  10.077  10.082 -0.0127 -0.2608  0.4504
  563loPI   GL2 8998  17.786  10.357  10.100  0.0717 -0.0457  0.0174
  563loPI   C1A 8999  17.702  10.103   9.600 -0.2087  0.2768  0.1403
  563loPI   C2A 9000  17.750  10.066   9.129  0.1230 -0.1274 -0.1202
  563loPI   C3A 9001  17.717  10.152   8.694  0.2689 -0.0957 -0.0064
  563loPI   C4A 9002  17.392  10.331   8.408  0.1489  0.2182 -0.1689
  563loPI   C5A 9003  17.241  10.719   8.225  0.1234 -0.1679 -0.0289
  563loPI   C6A 9004  16.860  10.889   8.004  0.3461  0.1980 -0.0570
  563loPI   C1B 9005  17.640  10.649   9.796  0.1306 -0.2708 -0.1324
  563loPI   C2B 9006  17.745  10.720   9.400 -0.0362  0.1639 -0.1613
  563loPI   C3B 9007  17.627  10.557   8.992  0.0679  0.0677 -0.0995
  563loPI   C4B 9008  17.257  10.253   8.910  0.0520 -0.1745  0.2086
  564loPI    C1 9009   7.464   0.736  10.977 -0.0141 -0.1977  0.0409
  564loPI    C2 9010   7.160   0.758  10.719 -0.0991 -0.3301  0.1282
  564loPI    C3 9011   7.160   0.986  11.047 -0.0615 -0.2671  0.0847
  564loPI   PO4 9012   7.529   0.503  10.955  0.0147  0.1628 -0.3676
  564loPI   GL1 9013   7.537   0.450  10.496 -0.1287  0.0417 -0.1922
  564loPI   GL2 9014   7.439   0.702  10.315  0.0776  0.3023 -0.2497
  564loPI   C1A 9015   7.782   0.321  10.029 -0.2535  0.0976 -0.2182
  564loPI   C2A 9016   7.808   0.271   9.601 -0.0245  0.1134  0.0199
  564loPI   C3A 9017   7.722   0.242   9.178  0.0171  0.0434  0.1143
  564loPI   C4A 9018   7.681   0.180   8.745 -0.1134  0.0870 -0.0594
  564loPI   C5A 9019   7.673   0.260   8.279  0.1633  0.1241 -0.0102
  564loPI   C6A 9020   7.942   0.563   8.113  0.1058 -0.2799 -0.4270
  564loPI   C1B 9021   7.455   0.649   9.839  0.1803  0.1531 -0.0084
  564loPI   C2B 9022   7.442   0.572   9.395  0.0258  0.0029  0.0310
  564loPI   C3B 9023   7.410   0.554   8.951  0.3808 -0.3228 -0.0393
  564loPI   C4B 9024   7.411   0.618   8.529  0.1671 -0.1375 -0.6891
  565loPI    C1 9025  16.408  17.824  10.529  0.0955 -0.0896 -0.1966
  565loPI    C2 9026  16.733  18.054  10.493  0.1626 -0.1610 -0.0550
  565loPI    C3 9027  16.723  17.692  10.322  0.0553 -0.0529 -0.2817
  565loPI   PO4 9028  16.228  17.954  10.349 -0.2327 -0.0996 -0.1388
  565loPI   GL1 9029  15.855  18.072  10.181  0.0649 -0.2396  0.2683
  565loPI   GL2 9030  16.059  18.106   9.881  0.1392  0.0816 -0.2218
  565loPI   C1A 9031  15.573  18.120   9.810  0.2523 -0.1855 -0.1873
  565loPI   C2A 9032  15.606  18.152   9.336 -0.0857 -0.0895 -0.0228
  565loPI   C3A 9033  15.666  18.161   8.852  0.0490 -0.1044 -0.0731
  565loPI   C4A 9034  15.627  18.112   8.377 -0.1830  0.4535  0.0764
  565loPI   C5A 9035  15.477  18.001   7.942 -0.2423 -0.1853  0.0502
  565loPI   C6A 9036  15.399  17.821   7.597  0.0938  0.3402 -0.2075
  565loPI   C1B 9037  16.026  18.382   9.551 -0.1591  0.0854  0.2440
  565loPI   C2B 9038  16.087  18.368   9.017  0.2997  0.0144  0.0908
  565loPI   C3B 9039  16.285  18.464   8.569  0.0412 -0.0519  0.2740
  565loPI   C4B 9040  16.533  18.613   8.337 -0.0658  0.0515  0.1809
  566loPI    C1 9041  16.196   1.991  10.649  0.1548 -0.0519 -0.0336
  566loPI    C2 9042  16.330   2.358  10.739  0.0474  0.0139 -0.1396
  566loPI    C3 9043  16.103   2.157  11.000  0.0739  0.0389 -0.0974
  566loPI   PO4 9044  16.192   1.965  10.445 -0.0081  0.2018 -0.1982
  566loPI   GL1 9045  16.116   1.845  10.026  0.2321  0.2113 -0.0893
  566loPI   GL2 9046  16.124   1.475  10.096 -0.2768  0.1579  0.0499
  566loPI   C1A 9047  16.211   2.048   9.635  0.0687 -0.0749 -0.1511
  566loPI   C2A 9048  16.182   2.305   9.267 -0.0718 -0.0312 -0.0708
  566loPI   C3A 9049  16.108   2.533   8.876 -0.1140  0.0771 -0.1703
  566loPI   C4A 9050  16.118   2.619   8.422  0.0434 -0.0670  0.1339
  566loPI   C5A 9051  16.300   2.567   7.939 -0.1051 -0.2225  0.1504
  566loPI   C6A 9052  16.452   2.796   7.452 -0.0557  0.0020  0.2742
  566loPI   C1B 9053  16.295   1.458   9.656 -0.0367 -0.0557 -0.0302
  566loPI   C2B 9054  16.451   1.643   9.255 -0.0163 -0.1686  0.0983
  566loPI   C3B 9055  16.689   1.688   8.849 -0.4111 -0.0066 -0.1415
  566loPI   C4B 9056  16.763   1.857   8.538  0.4203 -0.1896  0.1526
  567loPI    C1 9057  11.807  14.116  11.286 -0.1518 -0.0898 -0.0339
  567loPI    C2 9058  12.040  14.389  11.463 -0.0300 -0.1617 -0.0821
  567loPI    C3 9059  11.683  14.299  11.618  0.0307 -0.1468  0.0673
  567loPI   PO4 9060  11.730  14.282  11.009 -0.1952  0.2513 -0.2065
  567loPI   GL1 9061  11.648  14.281  10.560  0.1892 -0.0504 -0.0646
  567loPI   GL2 9062  11.674  14.043  10.343 -0.3169  0.0873 -0.2584
  567loPI   C1A 9063  11.749  14.576  10.083 -0.0537 -0.3930  0.0766
  567loPI   C2A 9064  11.698  14.476   9.592  0.0562 -0.3427 -0.3175
  567loPI   C3A 9065  11.612  14.441   9.060  0.0443  0.1494 -0.5603
  567loPI   C4A 9066  11.626  14.353   8.580 -0.0344  0.0579  0.2480
  567loPI   C5A 9067  11.519  14.402   8.185 -0.1879  0.4314  0.2018
  567loPI   C6A 9068  11.462  13.931   7.960  0.2713 -0.1782 -0.0808
  567loPI   C1B 9069  11.769  14.041   9.834  0.0309  0.1263  0.0065
  567loPI   C2B 9070  11.772  14.040   9.355  0.0629 -0.0325 -0.1075
  567loPI   C3B 9071  11.670  13.944   8.968  0.0511  0.0913 -0.0183
  567loPI   C4B 9072  11.584  13.839   8.491  0.0128 -0.1059 -0.1280
  568loPI    C1 9073  14.495   3.802   9.570  0.0635 -0.1443  0.1161
  568loPI    C2 9074  14.117   3.672   9.594  0.0989 -0.2432  0.1436
  568loPI    C3 9075  14.244   3.861   9.265 -0.0368 -0.0079  0.2235
  568loPI   PO4 9076  14.667   3.586   9.682 -0.1408 -0.1986  0.0882
  568loPI   GL1 9077  15.224   3.306   9.550 -0.0756  0.2260 -0.2379
  568loPI   GL2 9078  15.008   3.407   9.339  0.1750 -0.0714 -0.0599
  568loPI   C1A 9079  15.346   3.068   9.112 -0.1464 -0.0218  0.2312
  568loPI   C2A 9080  15.299   3.032   8.707 -0.1683 -0.3137  0.0677
  568loPI   C3A 9081  15.159   3.143   8.317 -0.1088  0.0536  0.0276
  568loPI   C4A 9082  15.345   3.093   7.929  0.1527 -0.2965 -0.0195
  568loPI   C5A 9083  15.695   2.793   7.704 -0.1340  0.0104 -0.2372
  568loPI   C6A 9084  15.575   2.649   7.298 -0.3669  0.1938  0.1500
  568loPI   C1B 9085  14.660   3.614   9.027 -0.3474 -0.2938  0.2027
  568loPI   C2B 9086  14.358   3.640   8.800  0.2372 -0.0915 -0.0896
  568loPI   C3B 9087  14.221   3.342   8.537 -0.1266  0.1340 -0.0096
  568loPI   C4B 9088  13.864   3.422   8.288 -0.0812  0.1052  0.0671
  569loPI    C1 9089   6.776   9.514  11.167  0.2021 -0.1209  0.0436
  569loPI    C2 9090   6.516   9.637  11.445 -0.0261 -0.1592 -0.1503
  569loPI    C3 9091   6.898   9.753  11.463 -0.1024  0.0721  0.0175
  569loPI   PO4 9092   6.657   9.576  10.907 -0.0622  0.0207 -0.1633
  569loPI   GL1 9093   6.645   9.823  10.567  0.4616 -0.0227 -0.2708
  569loPI   GL2 9094   6.365   9.903  10.530 -0.0828 -0.0268  0.3534
  569loPI   C1A 9095   6.807   9.638  10.092 -0.2688  0.1608 -0.0984
  569loPI   C2A 9096   6.789   9.679   9.662  0.1472  0.0278 -0.0536
  569loPI   C3A 9097   6.890   9.623   9.325  0.1588 -0.0002 -0.1946
  569loPI   C4A 9098   6.927   9.738   8.954 -0.3418  0.0508  0.0466
  569loPI   C5A 9099   6.860   9.858   8.565  0.0020 -0.0928  0.1224
  569loPI   C6A 9100   6.617  10.034   8.391  0.1638  0.2753  0.1282
  569loPI   C1B 9101   6.378   9.833  10.131  0.1760  0.0488 -0.0002
  569loPI   C2B 9102   6.265   9.832   9.709 -0.1603 -0.0785 -0.0071
  569loPI   C3B 9103   6.357   9.855   9.313  0.2277  0.1510  0.1132
  569loPI   C4B 9104   6.483   9.932   8.863  0.2257  0.0203 -0.0924
  570loPI    C1 9105   9.629   9.716  10.984 -0.2556  0.1407  0.2554
  570loPI    C2 9106   9.968   9.771  11.190 -0.1030 -0.0290  0.0537
  570loPI    C3 9107   9.806   9.406  11.164 -0.0982 -0.0170 -0.1607
  570loPI   PO4 9108   9.702   9.864  10.761  0.0740 -0.3579 -0.1326
  570loPI   GL1 9109   9.511   9.864  10.467 -0.0024  0.0060 -0.0609
  570loPI   GL2 9110   9.295  10.110  10.319 -0.0563  0.0027  0.0275
  570loPI   C1A 9111   9.541   9.745  10.096  0.1317 -0.2202 -0.1026
  570loPI   C2A 9112   9.637   9.689   9.679 -0.0127  0.1871 -0.2595
  570loPI   C3A 9113   9.689   9.835   9.273  0.2482  0.1245 -0.1213
  570loPI   C4A 9114   9.627   9.803   8.915  0.0204  0.0010  0.1409
  570loPI   C5A 9115   9.615   9.857   8.452 -0.0262 -0.1671 -0.4776
  570loPI   C6A 9116   9.402  10.193   8.132  0.0071  0.0264 -0.1405
  570loPI   C1B 9117   9.480  10.288   9.862 -0.1397 -0.0649 -0.3133
  570loPI   C2B 9118   9.507  10.296   9.431 -0.3598  0.0157  0.2218
  570loPI   C3B 9119   9.562  10.297   8.998  0.1298 -0.0032  0.1085
  570loPI   C4B 9120   9.580  10.395   8.615  0.1542 -0.1648  0.1741
  571loPI    C1 9121   2.471  16.874  10.250  0.0249 -0.0164 -0.1081
  571loPI    C2 9122   2.639  17.020  10.582 -0.0190 -0.0772 -0.0588
  571loPI    C3 9123   2.455  16.665  10.590  0.1530 -0.1715 -0.1960
  571loPI   PO4 9124   2.253  17.126  10.186 -0.3276 -0.2429  0.0270
  571loPI   GL1 9125   2.393  17.402   9.837  0.0669 -0.0876 -0.2016
  571loPI   GL2 9126   2.691  17.450   9.839 -0.2061 -0.0889  0.1136
  571loPI   C1A 9127   2.335  17.277   9.341 -0.1605  0.2947  0.1424
  571loPI   C2A 9128   2.143  17.268   8.936 -0.1074 -0.1244  0.0951
  571loPI   C3A 9129   2.027  17.111   8.492  0.0738 -0.0274  0.0660
  571loPI   C4A 9130   2.147  17.024   8.064  0.1542  0.1226 -0.0668
  571loPI   C5A 9131   2.214  17.170   7.650 -0.3487  0.0389  0.0473
  571loPI   C6A 9132   2.575  17.066   7.433 -0.1199  0.1176 -0.1685
  571loPI   C1B 9133   2.695  17.607   9.462 -0.0365  0.1762 -0.0231
  571loPI   C2B 9134   2.327  17.846   9.328  0.0450  0.1282  0.0529
  571loPI   C3B 9135   2.133  17.841   8.912  0.0159  0.3289  0.2096
  571loPI   C4B 9136   1.895  17.869   8.506  0.0436  0.0414 -0.0609
  572loPI    C1 9137   2.599   1.941  11.089  0.1494 -0.0197  0.0502
  572loPI    C2 9138   2.497   1.565  10.997  0.0073  0.0792 -0.2083
  572loPI    C3 9139   2.655   1.648  11.355 -0.2855 -0.1706 -0.0159
  572loPI   PO4 9140   2.679   1.987  10.926  0.0560  0.1889 -0.0809
  572loPI   GL1 9141   2.620   2.020  10.490 -0.3673  0.0500  0.1239
  572loPI   GL2 9142   2.962   2.120  10.514  0.0997  0.0881  0.2672
  572loPI   C1A 9143   2.621   1.871  10.093 -0.0304  0.0686 -0.2317
  572loPI   C2A 9144   2.663   1.934   9.596 -0.1450  0.1615  0.2990
  572loPI   C3A 9145   2.776   1.935   9.151 -0.2930 -0.3258  0.0981
  572loPI   C4A 9146   2.835   1.955   8.708  0.1986 -0.0803 -0.2351
  572loPI   C5A 9147   2.874   2.095   8.246 -0.0898 -0.0917 -0.0426
  572loPI   C6A 9148   2.834   2.271   7.737  0.2548 -0.2651  0.1266
  572loPI   C1B 9149   3.107   2.104  10.185 -0.2430  0.0825  0.1174
  572loPI   C2B 9150   3.153   1.941   9.812  0.3263  0.1225 -0.2048
  572loPI   C3B 9151   3.205   1.973   9.370  0.1399 -0.0090 -0.1693
  572loPI   C4B 9152   3.260   1.988   8.964  0.1692  0.0325 -0.0383
  573loPI    C1 9153   2.954   7.217  10.889 -0.1969  0.0497 -0.0539
  573loPI    C2 9154   2.810   7.139  11.255 -0.0043  0.0632  0.0258
  573loPI    C3 9155   3.017   7.475  11.188  0.0556  0.0079 -0.0692
  573loPI   PO4 9156   3.063   6.930  10.853  0.2769 -0.1739  0.1295
  573loPI   GL1 9157   3.161   6.684  10.481 -0.1036  0.1614  0.0559
  573loPI   GL2 9158   3.508   6.528  10.394  0.3497 -0.1128  0.1736
  573loPI   C1A 9159   3.289   6.900  10.113 -0.1449 -0.0066  0.1860
  573loPI   C2A 9160   3.326   6.948   9.683  0.2803 -0.2669  0.2128
  573loPI   C3A 9161   3.367   7.013   9.275 -0.1511 -0.1158 -0.0740
  573loPI   C4A 9162   3.406   6.899   8.882  0.2151 -0.1479  0.0167
  573loPI   C5A 9163   3.431   6.963   8.490 -0.2390 -0.0094 -0.1278
  573loPI   C6A 9164   3.292   7.379   8.275 -0.0805 -0.1353  0.1214
  573loPI   C1B 9165   3.554   6.512   9.941 -0.0101  0.1823 -0.4774
  573loPI   C2B 9166   3.573   6.596   9.457 -0.3883  0.2423  0.2768
  573loPI   C3B 9167   3.679   6.531   8.986 -0.1598  0.0540  0.0971
  573loPI   C4B 9168   3.669   6.585   8.628  0.2694  0.1039  0.0870
  574loPI    C1 9169  14.211   6.666   9.994 -0.2022  0.0232  0.1007
  574loPI    C2 9170  14.296   6.849  10.339 -0.0298 -0.0789  0.1131
  574loPI    C3 9171  14.069   6.519  10.338 -0.1503  0.0034  0.1135
  574loPI   PO4 9172  14.396   6.723   9.874 -0.2610 -0.2140 -0.0892
  574loPI   GL1 9173  14.862   6.610   9.655  0.0185 -0.0843 -0.1739
  574loPI   GL2 9174  14.728   6.375   9.450 -0.0441 -0.0394 -0.0170
  574loPI   C1A 9175  14.975   6.872   9.323  0.3116 -0.1066  0.3350
  574loPI   C2A 9176  15.075   6.894   8.984 -0.1124 -0.1951  0.0805
  574loPI   C3A 9177  15.125   6.889   8.563  0.2037 -0.4949 -0.0642
  574loPI   C4A 9178  15.067   6.755   8.150  0.0928  0.0781 -0.2377
  574loPI   C5A 9179  15.017   6.798   7.781 -0.1008  0.0927 -0.1788
  574loPI   C6A 9180  14.756   6.870   7.335 -0.1948 -0.1920 -0.2660
  574loPI   C1B 9181  14.682   6.507   9.068 -0.0193  0.2057 -0.0461
  574loPI   C2B 9182  14.650   6.501   8.708  0.1797  0.0689 -0.0440
  574loPI   C3B 9183  14.720   6.416   8.360 -0.0148 -0.1644  0.1055
  574loPI   C4B 9184  14.773   6.366   7.825  0.0231 -0.0507  0.1287
  575loPI    C1 9185  17.906  11.490  10.721  0.2900 -0.3714 -0.0125
  575loPI    C2 9186  18.264  11.659  10.784  0.0971 -0.0367  0.2169
  575loPI    C3 9187  18.109  11.410  11.056  0.0554 -0.0035  0.2235
  575loPI   PO4 9188  17.893  11.511  10.478  0.2103 -0.1050  0.2407
  575loPI   GL1 9189  18.268  11.408  10.168  0.0730 -0.1203 -0.0588
  575loPI   GL2 9190  18.411  11.409  10.391  0.3139 -0.2390  0.1932
  575loPI   C1A 9191  18.065  11.509   9.717  0.1960 -0.3891 -0.0400
  575loPI   C2A 9192  18.025  11.323   9.291 -0.1556  0.1829  0.1086
  575loPI   C3A 9193  17.967  11.354   8.798  0.2092 -0.0198  0.0167
  575loPI   C4A 9194  18.024  11.334   8.377  0.0703  0.3791  0.2832
  575loPI   C5A 9195  18.209  11.087   8.140  0.0206  0.2350  0.2082
  575loPI   C6A 9196  18.492  11.156   7.814 -0.2568  0.0767  0.0829
  575loPI   C1B 9197  18.513  11.704   9.892 -0.0123  0.1670  0.1716
  575loPI   C2B 9198  18.445  11.732   9.449 -0.4967 -0.0626 -0.2929
  575loPI   C3B 9199  18.393  11.688   9.074 -0.0369 -0.0024  0.1161
  575loPI   C4B 9200  18.385  11.680   8.631 -0.4160 -0.1949  0.4159
  576loPI    C1 9201   2.033   8.700  10.884 -0.0580  0.0071 -0.2558
  576loPI    C2 9202   2.113   8.309  10.899  0.1207  0.0524  0.0867
  576loPI    C3 9203   2.347   8.553  10.686  0.2423  0.0270  0.1901
  576loPI   PO4 9204   1.823   8.756  10.793 -0.0313  0.0214  0.1726
  576loPI   GL1 9205   1.827   8.823  10.392  0.1525 -0.3146 -0.1354
  576loPI   GL2 9206   1.988   8.520  10.397  0.3065 -0.0455 -0.1312
  576loPI   C1A 9207   1.693   8.874   9.955  0.1396  0.1032  0.1060
  576loPI   C2A 9208   1.816   8.960   9.527 -0.2572  0.1925 -0.0852
  576loPI   C3A 9209   1.804   9.103   9.093 -0.0358 -0.4009  0.0020
  576loPI   C4A 9210   1.820   9.290   8.688  0.2576  0.1953 -0.2494
  576loPI   C5A 9211   1.641   9.417   8.269 -0.2962  0.0880  0.1969
  576loPI   C6A 9212   1.628   9.538   7.941 -0.1888 -0.2066  0.0765
  576loPI   C1B 9213   2.061   8.512   9.928  0.3215 -0.0050 -0.1506
  576loPI   C2B 9214   2.150   8.589   9.487 -0.1254  0.2619 -0.0963
  576loPI   C3B 9215   2.156   8.626   9.071  0.0630  0.0180 -0.1049
  576loPI   C4B 9216   2.143   8.849   8.749  0.2059  0.3287 -0.0015
  577loPI    C1 9217   0.559   8.816  10.760 -0.2067  0.2030 -0.0696
  577loPI    C2 9218   0.496   9.205  10.693 -0.0791  0.2741  0.2089
  577loPI    C3 9219   0.494   9.064  11.067 -0.0930  0.0115  0.1117
  577loPI   PO4 9220   0.730   8.739  10.715  0.1378 -0.3890 -0.0848
  577loPI   GL1 9221   0.975   8.710  10.420  0.1229 -0.1030  0.0136
  577loPI   GL2 9222   0.795   8.445  10.302 -0.1181 -0.1591 -0.2265
  577loPI   C1A 9223   1.214   8.817  10.070 -0.3522  0.2480 -0.0784
  577loPI   C2A 9224   1.266   8.876   9.672  0.0084 -0.1572  0.0826
  577loPI   C3A 9225   1.333   8.931   9.319  0.4601  0.5089  0.0898
  577loPI   C4A 9226   1.335   8.932   8.840  0.0936  0.1168  0.0878
  577loPI   C5A 9227   1.394   8.994   8.402 -0.2373 -0.1283 -0.0457
  577loPI   C6A 9228   1.284   9.184   7.964  0.1454 -0.0931 -0.0596
  577loPI   C1B 9229   1.013   8.335   9.879  0.1120  0.2390  0.0660
  577loPI   C2B 9230   1.091   8.418   9.435 -0.3305 -0.2201  0.1363
  577loPI   C3B 9231   1.122   8.532   9.054 -0.2391  0.0822 -0.0805
  577loPI   C4B 9232   1.041   8.617   8.633  0.1172  0.4063 -0.2026
  578loPI    C1 9233  14.374   4.316   9.940 -0.0927  0.1456  0.0684
  578loPI    C2 9234  14.281   4.256  10.324  0.1171 -0.0482  0.0910
  578loPI    C3 9235  14.335   4.628  10.187 -0.1613  0.0347  0.1991
  578loPI   PO4 9236  14.197   4.204   9.744 -0.0064  0.0296  0.4418
  578loPI   GL1 9237  14.174   4.343   9.427  0.1073  0.3268 -0.0004
  578loPI   GL2 9238  14.018   4.625   9.376 -0.2290 -0.3379  0.1993
  578loPI   C1A 9239  14.163   4.373   8.934  0.2064  0.0586 -0.2519
  578loPI   C2A 9240  14.288   4.137   8.664  0.1062  0.1362 -0.4131
  578loPI   C3A 9241  14.336   3.897   8.271 -0.1470 -0.2734 -0.2416
  578loPI   C4A 9242  14.628   3.808   8.093  0.0830 -0.3110  0.0462
  578loPI   C5A 9243  14.833   3.762   7.734 -0.0058 -0.1542 -0.0150
  578loPI   C6A 9244  14.840   3.784   7.298  0.0481 -0.1395 -0.5359
  578loPI   C1B 9245  13.997   4.825   9.072 -0.0014  0.2041 -0.0679
  578loPI   C2B 9246  14.390   5.079   8.884 -0.1502  0.2320 -0.1381
  578loPI   C3B 9247  14.401   4.702   8.557  0.2952 -0.1453  0.1707
  578loPI   C4B 9248  14.495   4.418   8.302  0.0009  0.1093 -0.0963
  579loPI    C1 9249  11.683   2.509  10.021 -0.0319  0.2019  0.0535
  579loPI    C2 9250  11.781   2.782  10.297  0.0730 -0.0595  0.2797
  579loPI    C3 9251  12.054   2.518  10.171 -0.0423 -0.0956  0.1018
  579loPI   PO4 9252  11.562   2.547   9.901  0.2713  0.1977 -0.1949
  579loPI   GL1 9253  11.654   2.626   9.460 -0.1215  0.1138 -0.3439
  579loPI   GL2 9254  11.291   2.870   9.482 -0.0146 -0.0880 -0.4815
  579loPI   C1A 9255  11.553   2.514   9.037  0.2853 -0.2105 -0.1412
  579loPI   C2A 9256  11.751   2.402   8.599 -0.1228 -0.2752  0.0922
  579loPI   C3A 9257  11.821   2.218   8.198  0.2346  0.1585 -0.0997
  579loPI   C4A 9258  11.773   2.035   7.954 -0.1983 -0.1057 -0.2111
  579loPI   C5A 9259  11.638   2.095   7.550 -0.2558 -0.0349  0.4211
  579loPI   C6A 9260  11.634   2.173   7.058 -0.0475  0.0714 -0.0942
  579loPI   C1B 9261  11.133   2.855   9.032  0.1395 -0.3622  0.1226
  579loPI   C2B 9262  11.158   2.528   8.733  0.0725  0.3488  0.0067
  579loPI   C3B 9263  10.857   2.367   8.419  0.2851  0.1788 -0.0628
  579loPI   C4B 9264  10.737   2.131   7.981  0.1757  0.0603 -0.1698
  580loPI    C1 9265  12.602  10.043  10.645 -0.1403 -0.0244 -0.1850
  580loPI    C2 9266  12.664   9.740  10.392  0.1121 -0.2052  0.0870
  580loPI    C3 9267  12.431   9.687  10.713  0.0470 -0.0700  0.0625
  580loPI   PO4 9268  12.737  10.261  10.542 -0.0017  0.2816 -0.1719
  580loPI   GL1 9269  12.660  10.446  10.190  0.1126  0.0410  0.0417
  580loPI   GL2 9270  12.808  10.167  10.059 -0.3765 -0.1173  0.2226
  580loPI   C1A 9271  12.630  10.581   9.771 -0.0534 -0.0660  0.3115
  580loPI   C2A 9272  12.680  10.620   9.367 -0.0493 -0.1358  0.0723
  580loPI   C3A 9273  12.683  10.619   8.955 -0.1633 -0.0601  0.0366
  580loPI   C4A 9274  12.627  10.683   8.636 -0.1872  0.1053  0.0725
  580loPI   C5A 9275  12.652  10.707   8.226 -0.1227  0.0147  0.1508
  580loPI   C6A 9276  12.417  10.474   7.956  0.1101 -0.2294  0.3793
  580loPI   C1B 9277  12.697  10.098   9.639 -0.3014  0.3920  0.0145
  580loPI   C2B 9278  12.661  10.113   9.173 -0.0775  0.2114  0.0152
  580loPI   C3B 9279  12.720  10.128   8.723 -0.0118  0.0631 -0.3324
  580loPI   C4B 9280  12.791  10.227   8.315  0.0988  0.1393 -0.0057
  581loPI    C1 9281   1.143   1.689  10.458  0.1851  0.0377 -0.1302
  581loPI    C2 9282   1.501   1.759  10.294  0.2224  0.1806  0.0101
  581loPI    C3 9283   1.429   1.870  10.671  0.0074  0.2150 -0.0398
  581loPI   PO4 9284   0.897   1.756  10.308  0.0208  0.3258  0.1312
  581loPI   GL1 9285   0.893   1.745   9.952  0.1009  0.1119 -0.1817
  581loPI   GL2 9286   1.185   1.943   9.943 -0.0838 -0.1168 -0.0767
  581loPI   C1A 9287   0.727   1.997   9.533 -0.1394 -0.2635 -0.1420
  581loPI   C2A 9288   0.728   2.112   9.184 -0.0946 -0.0780  0.0993
  581loPI   C3A 9289   0.919   2.052   8.767 -0.0096 -0.0679 -0.0152
  581loPI   C4A 9290   0.978   2.198   8.338 -0.0777 -0.4513 -0.2768
  581loPI   C5A 9291   1.053   2.322   7.893 -0.5061 -0.0976 -0.2134
  581loPI   C6A 9292   0.855   2.691   7.745  0.0114 -0.0364  0.1667
  581loPI   C1B 9293   1.282   2.160   9.574  0.0762  0.1317  0.1748
  581loPI   C2B 9294   1.298   2.149   9.098 -0.0619 -0.1168  0.3959
  581loPI   C3B 9295   1.435   2.123   8.686  0.1168 -0.1889 -0.1905
  581loPI   C4B 9296   1.456   2.244   8.218 -0.1395  0.0894 -0.1031
  582loPI    C1 9297   1.280  15.939  10.754  0.2029 -0.1113 -0.0811
  582loPI    C2 9298   1.054  15.781  11.044  0.2277  0.1343  0.0747
  582loPI    C3 9299   1.379  15.995  11.137  0.3492  0.0471 -0.1409
  582loPI   PO4 9300   1.130  16.078  10.542  0.2562 -0.2460 -0.1175
  582loPI   GL1 9301   1.157  16.247  10.111 -0.1039  0.0956  0.2292
  582loPI   GL2 9302   1.256  15.938  10.060 -0.0472  0.1086 -0.0974
  582loPI   C1A 9303   1.296  16.144   9.617 -0.0330 -0.1662 -0.1339
  582loPI   C2A 9304   1.346  16.084   9.226 -0.0522 -0.0476 -0.0151
  582loPI   C3A 9305   1.389  15.983   8.755 -0.2174 -0.0687  0.2372
  582loPI   C4A 9306   1.322  15.898   8.455 -0.3760 -0.0855  0.0622
  582loPI   C5A 9307   1.385  15.667   8.191 -0.2450 -0.1644  0.1734
  582loPI   C6A 9308   1.267  15.356   8.156  0.3329 -0.4307 -0.0265
  582loPI   C1B 9309   1.409  15.691   9.810  0.1434  0.0276 -0.4071
  582loPI   C2B 9310   1.420  15.639   9.427  0.0666  0.1327  0.1664
  582loPI   C3B 9311   1.494  15.589   9.049 -0.0699  0.0259  0.0393
  582loPI   C4B 9312   1.303  15.460   8.655 -0.1274  0.0182 -0.1296
  583loPI    C1 9313   2.832  14.925  10.608 -0.2921  0.1374  0.0939
  583loPI    C2 9314   3.058  15.255  10.602  0.0288 -0.0783  0.0937
  583loPI    C3 9315   2.978  15.075  10.949  0.1471 -0.1955  0.0612
  583loPI   PO4 9316   2.671  14.907  10.422  0.1618  0.1762 -0.1505
  583loPI   GL1 9317   2.682  14.805  10.003  0.1180 -0.1183 -0.1229
  583loPI   GL2 9318   2.538  14.902   9.857 -0.1307  0.0172 -0.0696
  583loPI   C1A 9319   3.102  14.852   9.743  0.0555 -0.2477  0.1731
  583loPI   C2A 9320   3.387  14.894   9.444  0.0867 -0.0044  0.0219
  583loPI   C3A 9321   3.450  14.783   9.110 -0.3112  0.0291  0.0668
  583loPI   C4A 9322   3.720  14.625   8.770  0.1159  0.0887 -0.3423
  583loPI   C5A 9323   3.904  14.401   8.395  0.0521  0.0975  0.1998
  583loPI   C6A 9324   4.078  14.112   8.102 -0.1537  0.2303  0.2706
  583loPI   C1B 9325   2.644  14.749   9.546 -0.0176  0.2961  0.0013
  583loPI   C2B 9326   2.509  14.664   9.097  0.1131  0.0531 -0.2504
  583loPI   C3B 9327   2.708  14.756   8.839 -0.0131 -0.1221  0.1301
  583loPI   C4B 9328   2.819  14.931   8.467  0.1204 -0.3585  0.1479
  584loPI    C1 9329  15.740   0.100  10.530  0.1533 -0.1004 -0.0596
  584loPI    C2 9330  15.595  -0.064  10.865 -0.4210  0.1121 -0.1914
  584loPI    C3 9331  15.854   0.240  10.887 -0.2342 -0.0607  0.0535
  584loPI   PO4 9332  15.559   0.289  10.397 -0.1290  0.4405  0.0769
  584loPI   GL1 9333  15.488   0.242  10.030  0.0143 -0.1672 -0.1234
  584loPI   GL2 9334  15.159   0.087   9.890  0.1667  0.1165 -0.0825
  584loPI   C1A 9335  15.529   0.355   9.574 -0.0220 -0.0382  0.1673
  584loPI   C2A 9336  15.633   0.294   9.190 -0.1099 -0.2683  0.1844
  584loPI   C3A 9337  15.752   0.346   8.812 -0.4893  0.0166  0.1425
  584loPI   C4A 9338  15.830   0.435   8.512 -0.4076  0.1051 -0.0359
  584loPI   C5A 9339  16.021   0.303   8.131 -0.0015  0.0906 -0.0862
  584loPI   C6A 9340  16.364   0.140   7.885 -0.2677 -0.1872  0.0216
  584loPI   C1B 9341  15.127   0.014   9.391 -0.0831  0.1083  0.2840
  584loPI   C2B 9342  15.220  -0.017   8.898  0.1339 -0.1154  0.1403
  584loPI   C3B 9343  15.155  -0.116   8.476 -0.0920 -0.3910  0.2255
  584loPI   C4B 9344  15.094  -0.198   8.165  0.0444 -0.0036 -0.1902
  585loPI    C1 9345  12.412   9.266  10.432 -0.0543 -0.2621  0.0224
  585loPI    C2 9346  12.792   9.255  10.309  0.0469 -0.0026  0.2990
  585loPI    C3 9347  12.709   9.283  10.699 -0.2612 -0.2789  0.2575
  585loPI   PO4 9348  12.300   9.404  10.298 -0.0551  0.1927 -0.0451
  585loPI   GL1 9349  12.061   9.542   9.860 -0.1163  0.2862 -0.1219
  585loPI   GL2 9350  12.348   9.788   9.716  0.2980  0.0757 -0.0007
  585loPI   C1A 9351  11.915   9.479   9.505 -0.1703  0.0162  0.1610
  585loPI   C2A 9352  11.879   9.596   9.121  0.1312  0.2698  0.0533
  585loPI   C3A 9353  11.953   9.475   8.742  0.2496 -0.2466 -0.2644
  585loPI   C4A 9354  11.976   9.538   8.409 -0.2381  0.1252  0.0255
  585loPI   C5A 9355  12.224   9.613   7.961  0.0528  0.0088  0.0632
  585loPI   C6A 9356  12.486   9.399   7.710  0.2076 -0.3458 -0.2045
  585loPI   C1B 9357  12.317   9.853   9.349  0.1684 -0.4467  0.1441
  585loPI   C2B 9358  12.250   9.879   8.905  0.2381  0.0602 -0.1062
  585loPI   C3B 9359  12.369   9.790   8.478  0.2386 -0.1545 -0.1878
  585loPI   C4B 9360  12.122  10.066   8.095  0.0914  0.0273  0.1622
  586loPI    C1 9361  12.711   5.391   9.701 -0.0164  0.1632 -0.1204
  586loPI    C2 9362  12.587   5.637   9.991  0.0915  0.2291 -0.1295
  586loPI    C3 9363  12.689   5.260  10.078  0.2566  0.2896 -0.0586
  586loPI   PO4 9364  12.852   5.524   9.578  0.2657  0.2298  0.2046
  586loPI   GL1 9365  12.934   5.480   9.107  0.4456  0.2104  0.0165
  586loPI   GL2 9366  12.894   5.887   9.219 -0.0169  0.1440  0.0797
  586loPI   C1A 9367  13.050   5.336   8.648 -0.0753  0.4193 -0.0168
  586loPI   C2A 9368  13.167   5.179   8.315 -0.2807  0.1917 -0.0043
  586loPI   C3A 9369  13.590   5.064   8.096 -0.0366  0.1187 -0.0288
  586loPI   C4A 9370  13.953   5.229   7.892  0.3255 -0.2731 -0.2789
  586loPI   C5A 9371  14.300   5.034   7.698 -0.0229  0.1125 -0.3043
  586loPI   C6A 9372  14.619   4.876   7.951  0.1196  0.0510 -0.0817
  586loPI   C1B 9373  13.041   5.808   8.787 -0.1264  0.0822  0.2795
  586loPI   C2B 9374  13.146   5.771   8.428 -0.0640  0.1394 -0.0636
  586loPI   C3B 9375  13.022   5.665   8.089 -0.1283  0.0083  0.0935
  586loPI   C4B 9376  12.948   5.745   7.710 -0.1398  0.1956  0.1469
  587loPI    C1 9377  16.736  12.750  10.945 -0.0610 -0.0019 -0.1354
  587loPI    C2 9378  16.654  12.376  11.061  0.0571 -0.0222 -0.1152
  587loPI    C3 9379  16.380  12.589  10.860  0.0158 -0.1444 -0.1894
  587loPI   PO4 9380  16.922  12.727  10.786  0.0630 -0.0832 -0.1899
  587loPI   GL1 9381  17.262  12.737  10.395  0.1428  0.0027  0.0384
  587loPI   GL2 9382  17.104  12.593  10.276  0.1879  0.1330  0.2123
  587loPI   C1A 9383  17.261  13.105  10.067  0.2091  0.0772 -0.0393
  587loPI   C2A 9384  17.396  13.229   9.690  0.0126  0.1310 -0.2952
  587loPI   C3A 9385  17.401  13.135   9.289  0.3351 -0.0035 -0.1560
  587loPI   C4A 9386  17.250  13.080   8.775  0.0447 -0.0730 -0.1533
  587loPI   C5A 9387  17.417  13.252   8.360 -0.1398 -0.1432  0.1632
  587loPI   C6A 9388  17.717  13.349   8.112 -0.1536  0.1987  0.1355
  587loPI   C1B 9389  17.088  12.457   9.849 -0.0905  0.2726  0.1709
  587loPI   C2B 9390  17.027  12.400   9.432 -0.0430  0.0017 -0.0848
  587loPI   C3B 9391  17.003  12.254   8.970 -0.0831  0.0334 -0.0875
  587loPI   C4B 9392  17.025  12.227   8.510  0.1453  0.0393  0.1105
  588loPI    C1 9393   7.308  11.470  10.804 -0.0079  0.0596 -0.3322
  588loPI    C2 9394   7.588  11.537  10.526  0.3930  0.0427  0.0556
  588loPI    C3 9395   7.672  11.310  10.845 -0.2298 -0.4031 -0.0763
  588loPI   PO4 9396   7.133  11.642  10.742  0.3052  0.2141 -0.1340
  588loPI   GL1 9397   7.166  11.841  10.370  0.0531 -0.1736  0.4236
  588loPI   GL2 9398   7.165  11.518  10.243  0.3093 -0.2267 -0.0242
  588loPI   C1A 9399   6.897  11.972  10.109  0.1615 -0.1699  0.1853
  588loPI   C2A 9400   6.947  12.059   9.710 -0.0989  0.0446 -0.2096
  588loPI   C3A 9401   7.019  12.131   9.291  0.2856 -0.2638  0.1238
  588loPI   C4A 9402   7.013  12.098   8.828 -0.4680 -0.0498 -0.4727
  588loPI   C5A 9403   6.971  12.260   8.413  0.2957 -0.0427  0.2041
  588loPI   C6A 9404   7.155  12.598   8.220 -0.2370 -0.2020 -0.3569
  588loPI   C1B 9405   6.995  11.532   9.829  0.1389  0.0977  0.0551
  588loPI   C2B 9406   6.994  11.600   9.433 -0.1223 -0.1793  0.1359
  588loPI   C3B 9407   7.126  11.584   8.972  0.1524  0.2483  0.2068
  588loPI   C4B 9408   7.051  11.626   8.577 -0.0188  0.0931  0.1871
  589loPI    C1 9409  13.269   7.094  10.279  0.0112 -0.0234  0.0557
  589loPI    C2 9410  13.118   6.893  10.589 -0.0086  0.1244  0.1430
  589loPI    C3 9411  12.944   7.231  10.467 -0.0001  0.0675 -0.0293
  589loPI   PO4 9412  13.307   6.893  10.048  0.1016  0.2396 -0.3395
  589loPI   GL1 9413  13.335   7.103   9.608  0.3458  0.4647  0.1510
  589loPI   GL2 9414  13.515   7.346   9.900 -0.1366 -0.1562 -0.1143
  589loPI   C1A 9415  13.191   7.227   9.223 -0.0439  0.1341  0.0237
  589loPI   C2A 9416  13.185   7.097   8.758 -0.2895 -0.0738 -0.1474
  589loPI   C3A 9417  13.247   7.068   8.339  0.0832 -0.1454 -0.1798
  589loPI   C4A 9418  13.350   7.099   7.951 -0.0399  0.1352 -0.1173
  589loPI   C5A 9419  13.646   7.324   7.751 -0.0023  0.0102 -0.1228
  589loPI   C6A 9420  13.954   7.531   7.522  0.0921  0.0917 -0.0366
  589loPI   C1B 9421  13.652   7.386   9.427  0.2932 -0.0746  0.0826
  589loPI   C2B 9422  13.632   7.324   8.950 -0.0312  0.1118 -0.0115
  589loPI   C3B 9423  13.665   7.411   8.581 -0.3367 -0.0037 -0.3070
  589loPI   C4B 9424  13.641   7.404   8.257 -0.1489  0.1451  0.2472
  590loPI    C1 9425  14.141   1.428  10.770 -0.1443  0.1146  0.4271
  590loPI    C2 9426  14.446   1.677  10.837 -0.0105  0.0182  0.1887
  590loPI    C3 9427  14.398   1.353  11.067  0.1313 -0.0246  0.1591
  590loPI   PO4 9428  14.086   1.485  10.381  0.0229 -0.1857 -0.1345
  590loPI   GL1 9429  14.004   1.174   9.983 -0.2212 -0.0002 -0.0752
  590loPI   GL2 9430  14.039   0.920   9.887 -0.0205 -0.2151  0.0868
  590loPI   C1A 9431  13.921   1.385   9.543  0.3438  0.1544  0.0483
  590loPI   C2A 9432  14.184   1.370   9.161 -0.1378  0.0673 -0.1152
  590loPI   C3A 9433  14.315   1.337   8.735 -0.0695 -0.2954  0.0689
  590loPI   C4A 9434  14.358   1.462   8.329  0.1458  0.1674 -0.1998
  590loPI   C5A 9435  14.314   1.416   7.878  0.0109  0.1004 -0.0129
  590loPI   C6A 9436  13.936   1.578   7.869  0.3428  0.0106 -0.0790
  590loPI   C1B 9437  14.152   0.914   9.415 -0.1092 -0.3643  0.2897
  590loPI   C2B 9438  14.125   0.898   8.955  0.2205  0.1721 -0.3340
  590loPI   C3B 9439  14.150   0.903   8.481 -0.0175 -0.1923 -0.1863
  590loPI   C4B 9440  14.026   0.557   8.185 -0.0356 -0.1828  0.0329
  591loPI    C1 9441   0.916   5.594  10.760 -0.1243 -0.1517 -0.0489
  591loPI    C2 9442   0.740   5.837  11.024  0.0966 -0.0816  0.0364
  591loPI    C3 9443   0.859   5.472  11.136  0.1083 -0.0861  0.0097
  591loPI   PO4 9444   1.048   5.774  10.586  0.2430  0.0517 -0.1755
  591loPI   GL1 9445   1.156   6.013  10.191  0.1818 -0.3267  0.0346
  591loPI   GL2 9446   0.836   6.089  10.157 -0.0389  0.0940 -0.0367
  591loPI   C1A 9447   1.268   5.641   9.967 -0.2548  0.2723 -0.1394
  591loPI   C2A 9448   1.277   5.676   9.571  0.3608 -0.2568  0.2200
  591loPI   C3A 9449   1.348   5.765   9.150 -0.4010 -0.0800  0.0496
  591loPI   C4A 9450   1.431   5.880   8.730 -0.1123  0.1367  0.0665
  591loPI   C5A 9451   1.761   5.916   8.459  0.0604  0.0181  0.3819
  591loPI   C6A 9452   2.081   6.022   8.172  0.2719 -0.0376 -0.0558
  591loPI   C1B 9453   0.940   6.228   9.768  0.1316  0.0932  0.3134
  591loPI   C2B 9454   1.025   6.262   9.327 -0.1248 -0.0919 -0.0733
  591loPI   C3B 9455   1.153   6.342   8.959 -0.1338 -0.1573 -0.1464
  591loPI   C4B 9456   1.164   6.321   8.558  0.3431 -0.0143  0.1836
  592loPI    C1 9457   2.112  12.780  10.944 -0.0862  0.0978  0.2503
  592loPI    C2 9458   2.466  12.595  10.957 -0.0134  0.2069 -0.0771
  592loPI    C3 9459   2.199  12.537  11.249  0.2960  0.1714  0.2049
  592loPI   PO4 9460   2.184  13.129  10.821  0.3013  0.0463  0.2643
  592loPI   GL1 9461   2.224  13.266  10.456 -0.1875 -0.1398  0.0394
  592loPI   GL2 9462   1.960  13.359  10.361  0.0250 -0.1488 -0.2595
  592loPI   C1A 9463   2.056  12.957  10.063 -0.1202  0.3658  0.0419
  592loPI   C2A 9464   2.234  12.590   9.978  0.0085 -0.3988 -0.0989
  592loPI   C3A 9465   2.477  12.287   9.912 -0.2284  0.2127  0.0391
  592loPI   C4A 9466   2.729  12.050   9.533 -0.0974 -0.1699 -0.1757
  592loPI   C5A 9467   2.709  12.108   9.139  0.0389 -0.0164  0.1641
  592loPI   C6A 9468   2.972  12.088   8.806 -0.3943 -0.0454  0.0643
  592loPI   C1B 9469   1.834  13.480   9.985 -0.1640 -0.2498 -0.1083
  592loPI   C2B 9470   1.885  13.550   9.547  0.1368  0.1912 -0.0136
  592loPI   C3B 9471   1.644  13.558   9.115  0.0624 -0.1461 -0.1752
  592loPI   C4B 9472   1.772  13.481   8.669 -0.2448 -0.0199  0.0440
  593loPI    C1 9473   0.226  17.674  10.592 -0.0055 -0.0690 -0.0669
  593loPI    C2 9474   0.521  17.804  10.828 -0.0089 -0.0845 -0.0542
  593loPI    C3 9475   0.389  17.428  10.862 -0.1175 -0.0393  0.0287
  593loPI   PO4 9476   0.273  17.723  10.322  0.1575  0.1764 -0.0399
  593loPI   GL1 9477   0.330  17.591   9.970 -0.1523 -0.2147  0.0303
  593loPI   GL2 9478   0.269  17.218   9.909  0.1275 -0.1358  0.0873
  593loPI   C1A 9479   0.179  17.553   9.567 -0.3066  0.0529  0.2060
  593loPI   C2A 9480   0.116  17.484   9.113 -0.2359  0.2914  0.0585
  593loPI   C3A 9481   0.332  17.588   8.782  0.0535  0.1065  0.1722
  593loPI   C4A 9482   0.376  17.475   8.395 -0.0635 -0.0457  0.0638
  593loPI   C5A 9483   0.557  17.370   8.038 -0.0349 -0.0925  0.0738
  593loPI   C6A 9484   0.997  17.322   7.763  0.1496  0.0618  0.0002
  593loPI   C1B 9485   0.315  17.054   9.428 -0.0016  0.3823 -0.1815
  593loPI   C2B 9486   0.348  17.025   8.934  0.2030 -0.0251  0.0203
  593loPI   C3B 9487   0.306  16.932   8.488 -0.0861 -0.1412  0.1394
  593loPI   C4B 9488   0.040  16.708   8.127  0.1677 -0.2208 -0.0849
  594loPI    C1 9489  16.029   4.953  10.106 -0.0571 -0.0974  0.0304
  594loPI    C2 9490  16.248   4.657   9.951  0.2254  0.0509  0.1387
  594loPI    C3 9491  16.020   4.589  10.273  0.1000 -0.1071  0.0187
  594loPI   PO4 9492  15.912   4.988   9.879 -0.0874 -0.1789  0.1388
  594loPI   GL1 9493  15.668   5.249   9.623 -0.0284  0.0617 -0.1071
  594loPI   GL2 9494  15.368   5.262   9.511  0.1685 -0.2556 -0.1554
  594loPI   C1A 9495  15.637   5.074   9.169  0.0756  0.0159  0.0202
  594loPI   C2A 9496  15.673   5.138   8.693 -0.0573  0.0170 -0.1337
  594loPI   C3A 9497  15.896   4.989   8.346  0.0065  0.3604  0.0276
  594loPI   C4A 9498  16.268   4.908   8.296 -0.1185 -0.0368 -0.0922
  594loPI   C5A 9499  16.613   4.904   8.040 -0.1530  0.0337 -0.0299
  594loPI   C6A 9500  16.709   5.178   7.681  0.3702 -0.0735  0.1016
  594loPI   C1B 9501  15.223   5.272   8.969  0.0390 -0.1012 -0.0917
  594loPI   C2B 9502  15.255   5.293   8.492  0.0569 -0.0587  0.3785
  594loPI   C3B 9503  15.214   5.076   8.144 -0.0445  0.1701  0.2120
  594loPI   C4B 9504  15.091   4.959   7.744  0.2951  0.1360 -0.0279
  595loPI    C1 9505   5.000   0.072  10.820  0.0244 -0.1481 -0.2181
  595loPI    C2 9506   4.795  -0.223  10.643  0.2579 -0.3593 -0.1413
  595loPI    C3 9507   4.950  -0.277  11.008 -0.1935  0.0618  0.1242
  595loPI   PO4 9508   4.940   0.302  10.691 -0.2063  0.0299  0.1072
  595loPI   GL1 9509   4.916   0.390  10.256  0.2339 -0.4497 -0.0639
  595loPI   GL2 9510   4.761   0.078  10.224  0.2404  0.2305 -0.2903
  595loPI   C1A 9511   5.031   0.513   9.806  0.0019  0.0411  0.2974
  595loPI   C2A 9512   5.145   0.552   9.457 -0.2877 -0.2689 -0.4017
  595loPI   C3A 9513   5.115   0.575   8.988 -0.2556 -0.1819 -0.0428
  595loPI   C4A 9514   5.157   0.631   8.575 -0.0592  0.0665 -0.0953
  595loPI   C5A 9515   5.346   0.874   8.218 -0.0618  0.0219 -0.0625
  595loPI   C6A 9516   5.479   0.993   7.797  0.2993  0.1449  0.0925
  595loPI   C1B 9517   4.937   0.049   9.759 -0.1267 -0.2731  0.1757
  595loPI   C2B 9518   4.997   0.151   9.300  0.0420  0.0427  0.2112
  595loPI   C3B 9519   4.844   0.082   8.899  0.0580  0.1151 -0.0211
  595loPI   C4B 9520   4.735   0.096   8.424  0.4823  0.0113  0.3084
  596loPI    C1 9521  10.172  15.492  10.976  0.1197  0.0269  0.0391
  596loPI    C2 9522  10.481  15.301  11.145  0.0670  0.0870  0.2046
  596loPI    C3 9523  10.432  15.694  11.204  0.1254  0.1360 -0.0631
  596loPI   PO4 9524  10.170  15.451  10.750  0.1633  0.0583  0.2102
  596loPI   GL1 9525  10.393  15.532  10.454 -0.2475 -0.0112  0.0175
  596loPI   GL2 9526  10.352  15.760  10.255 -0.0962 -0.0827 -0.0607
  596loPI   C1A 9527  10.536  15.287  10.085  0.1914  0.3749 -0.0557
  596loPI   C2A 9528  10.651  15.296   9.597 -0.1127  0.0233  0.1599
  596loPI   C3A 9529  10.632  15.340   9.216  0.2526 -0.0289  0.4065
  596loPI   C4A 9530  10.640  15.346   8.817  0.2839 -0.2859 -0.2190
  596loPI   C5A 9531  10.714  15.317   8.428  0.1118  0.1492  0.0095
  596loPI   C6A 9532  10.521  15.262   8.080 -0.0646  0.1931 -0.0208
  596loPI   C1B 9533  10.185  15.955   9.873  0.1827 -0.0243  0.0441
  596loPI   C2B 9534  10.102  16.078   9.512  0.0507 -0.3387 -0.1305
  596loPI   C3B 9535  10.116  16.036   9.098 -0.1185 -0.1770  0.1891
  596loPI   C4B 9536  10.066  15.964   8.639  0.0500 -0.0978 -0.0186
  597loPI    C1 9537  15.143   1.273  10.437 -0.1653  0.0618 -0.0378
  597loPI    C2 9538  15.191   1.125  10.806 -0.0831 -0.1921 -0.1478
  597loPI    C3 9539  14.961   1.447  10.748  0.0511 -0.0382  0.1489
  597loPI   PO4 9540  15.015   1.066  10.324  0.0457 -0.1480  0.1437
  597loPI   GL1 9541  14.761   0.996  10.057 -0.1256 -0.0280 -0.1031
  597loPI   GL2 9542  14.547   0.812   9.889  0.2753  0.1101  0.3675
  597loPI   C1A 9543  14.983   1.048   9.659 -0.1849 -0.2565 -0.2445
  597loPI   C2A 9544  15.133   0.942   9.222  0.3295 -0.0483 -0.3810
  597loPI   C3A 9545  15.173   0.962   8.719 -0.0403 -0.4090  0.0700
  597loPI   C4A 9546  15.517   0.862   8.337 -0.0013 -0.3752 -0.1849
  597loPI   C5A 9547  15.728   0.596   7.938  0.0653  0.1552 -0.2024
  597loPI   C6A 9548  15.870   0.390   7.505  0.2874 -0.0313  0.0659
  597loPI   C1B 9549  14.585   0.661   9.537  0.0231  0.1821  0.2238
  597loPI   C2B 9550  14.555   0.672   9.089 -0.2573 -0.4713  0.2788
  597loPI   C3B 9551  14.812   0.569   8.560  0.1812 -0.0447 -0.2365
  597loPI   C4B 9552  15.018   0.633   8.199 -0.2112 -0.0965 -0.1770
  598loPI    C1 9553   1.442   9.331  10.813  0.1071  0.1295  0.0376
  598loPI    C2 9554   1.626   9.075  11.059  0.0940 -0.1019 -0.1883
  598loPI    C3 9555   1.749   9.455  11.038  0.2135 -0.1258  0.0371
  598loPI   PO4 9556   1.533   9.222  10.551 -0.0847 -0.0398  0.0246
  598loPI   GL1 9557   1.681   9.380  10.277 -0.1366 -0.1275  0.0636
  598loPI   GL2 9558   1.988   9.330  10.222 -0.0703 -0.0837 -0.0151
  598loPI   C1A 9559   1.480   9.323   9.884  0.0310  0.1226  0.1366
  598loPI   C2A 9560   1.489   9.394   9.408 -0.1010 -0.0888 -0.0426
  598loPI   C3A 9561   1.371   9.364   9.011  0.0180 -0.1091  0.1483
  598loPI   C4A 9562   1.343   9.406   8.645  0.2672 -0.4967  0.1447
  598loPI   C5A 9563   1.220   9.651   8.240  0.3232  0.0456  0.2515
  598loPI   C6A 9564   1.429   9.987   8.200  0.1632 -0.1583 -0.0892
  598loPI   C1B 9565   1.994   9.387   9.811 -0.2132 -0.1333 -0.0155
  598loPI   C2B 9566   2.015   9.506   9.365 -0.1036 -0.1238 -0.1081
  598loPI   C3B 9567   2.127   9.553   9.012 -0.0174  0.2630  0.0483
  598loPI   C4B 9568   2.311   9.716   8.584  0.0142  0.1527 -0.0655
  599loPI    C1 9569  17.150   7.114  10.433  0.2055 -0.0157 -0.1767
  599loPI    C2 9570  17.400   7.258  10.710 -0.0769  0.2064 -0.0316
  599loPI    C3 9571  17.253   6.888  10.747  0.0471  0.1604  0.0056
  599loPI   PO4 9572  17.242   7.098  10.216 -0.0792  0.1642  0.0896
  599loPI   GL1 9573  17.238   6.983   9.719 -0.2510 -0.4751 -0.1813
  599loPI   GL2 9574  17.191   7.216   9.433  0.1784  0.1369  0.0899
  599loPI   C1A 9575  17.607   6.861   9.424  0.2833 -0.2180  0.1578
  599loPI   C2A 9576  17.779   6.933   8.906  0.0498  0.0581 -0.0746
  599loPI   C3A 9577  17.784   7.213   8.624 -0.0429 -0.1515  0.0898
  599loPI   C4A 9578  17.906   7.385   8.219 -0.2129 -0.1793  0.0260
  599loPI   C5A 9579  18.201   7.602   7.906  0.0290 -0.0175 -0.0801
  599loPI   C6A 9580  18.381   7.736   7.463  0.3165 -0.1772 -0.2801
  599loPI   C1B 9581  17.416   7.348   8.963 -0.0334 -0.0811  0.0570
  599loPI   C2B 9582  17.307   7.496   8.648  0.0085  0.0171  0.1167
  599loPI   C3B 9583  17.455   7.436   8.262 -0.0880 -0.0295 -0.2197
  599loPI   C4B 9584  17.554   7.530   7.840  0.0288 -0.0392 -0.2013
  600loPI    C1 9585   5.880   6.633  10.499 -0.1919 -0.1806 -0.0633
  600loPI    C2 9586   6.237   6.656  10.321 -0.1457 -0.0195  0.0489
  600loPI    C3 9587   6.175   6.839  10.672 -0.1839 -0.4747  0.2872
  600loPI   PO4 9588   5.741   6.509  10.374  0.0182  0.3479  0.1808
  600loPI   GL1 9589   5.444   6.573  10.035 -0.0110 -0.2293 -0.0775
  600loPI   GL2 9590   5.334   6.221  10.089 -0.1298 -0.0090 -0.0928
  600loPI   C1A 9591   5.580   6.728   9.642  0.0884  0.1325  0.0393
  600loPI   C2A 9592   5.889   6.567   9.354  0.1131 -0.1054  0.1928
  600loPI   C3A 9593   5.930   6.294   8.918 -0.0225  0.0085  0.2489
  600loPI   C4A 9594   5.905   6.196   8.492 -0.3698  0.0129  0.2664
  600loPI   C5A 9595   5.782   5.840   8.239 -0.2980 -0.1038 -0.1663
  600loPI   C6A 9596   5.986   5.770   7.881  0.5000 -0.0963 -0.0690
  600loPI   C1B 9597   5.489   6.249   9.647 -0.0047  0.0576  0.1584
  600loPI   C2B 9598   5.467   6.333   9.203  0.2112 -0.2082  0.1263
  600loPI   C3B 9599   5.515   6.583   8.766  0.0901  0.1872 -0.1675
  600loPI   C4B 9600   5.593   6.980   8.498  0.1521 -0.2887 -0.3405
  601loPI    C1 9601   9.003  15.599  10.672  0.0930  0.1450 -0.1966
  601loPI    C2 9602   9.122  15.752  11.022  0.0534 -0.1453 -0.0524
  601loPI    C3 9603   9.362  15.772  10.702  0.1208  0.0550  0.0087
  601loPI   PO4 9604   8.780  15.702  10.651  0.0135 -0.0795  0.0851
  601loPI   GL1 9605   8.601  15.787  10.172  0.2606 -0.0523 -0.0972
  601loPI   GL2 9606   8.831  15.593  10.175  0.2681  0.2809  0.0050
  601loPI   C1A 9607   8.435  15.829   9.797 -0.0274 -0.0346 -0.1870
  601loPI   C2A 9608   8.384  15.897   9.343 -0.0797 -0.0756 -0.0180
  601loPI   C3A 9609   8.358  15.928   9.022  0.2892  0.3038 -0.1307
  601loPI   C4A 9610   8.222  15.834   8.668 -0.0817  0.0969  0.3329
  601loPI   C5A 9611   8.109  15.749   8.315 -0.0251 -0.3509 -0.1181
  601loPI   C6A 9612   7.953  15.472   7.917  0.2293  0.1365 -0.0360
  601loPI   C1B 9613   8.933  15.633   9.775 -0.0399 -0.3146  0.2196
  601loPI   C2B 9614   8.826  15.626   9.353 -0.3090 -0.0761 -0.1239
  601loPI   C3B 9615   8.788  15.569   8.902  0.0013  0.2873  0.1209
  601loPI   C4B 9616   8.650  15.396   8.437 -0.2476 -0.2643 -0.1470
  602loPI    C1 9617   1.642  15.253  10.781 -0.0300 -0.0442  0.1104
  602loPI    C2 9618   1.790  15.255  11.152 -0.0853  0.3693  0.1354
  602loPI    C3 9619   1.463  15.469  11.066 -0.2689  0.0130 -0.0790
  602loPI   PO4 9620   1.776  15.336  10.611 -0.1639 -0.2994  0.0857
  602loPI   GL1 9621   1.808  15.410  10.250  0.0559 -0.1118 -0.1499
  602loPI   GL2 9622   1.549  15.207  10.105  0.2348  0.0559 -0.1396
  602loPI   C1A 9623   1.885  15.540   9.846 -0.3767  0.0981 -0.1493
  602loPI   C2A 9624   1.901  15.410   9.396  0.0256  0.1412 -0.1222
  602loPI   C3A 9625   1.950  15.359   8.955 -0.0619  0.0367 -0.0967
  602loPI   C4A 9626   2.329  15.578   8.845  0.0507 -0.2690  0.1041
  602loPI   C5A 9627   2.774  15.873   8.776 -0.0896  0.2502 -0.2545
  602loPI   C6A 9628   3.210  16.039   8.538 -0.1346  0.1428 -0.2599
  602loPI   C1B 9629   1.536  15.089   9.709  0.0223  0.1052 -0.1037
  602loPI   C2B 9630   1.575  15.085   9.174 -0.1698 -0.1023 -0.2146
  602loPI   C3B 9631   1.451  14.990   8.790 -0.2116  0.1202 -0.2437
  602loPI   C4B 9632   1.788  14.951   8.511  0.2086 -0.0885  0.0085
  603loPI    C1 9633   0.536   5.269  10.510 -0.1150  0.1222 -0.0277
  603loPI    C2 9634   0.408   5.452  10.842 -0.1236 -0.0498  0.0651
  603loPI    C3 9635   0.500   5.063  10.851 -0.1031 -0.0506 -0.1296
  603loPI   PO4 9636   0.367   5.304  10.234  0.1076 -0.0346 -0.1797
  603loPI   GL1 9637  -0.023   5.294  10.066 -0.0275  0.0836  0.0861
  603loPI   GL2 9638  -0.168   5.556   9.964  0.0116  0.1143  0.2621
  603loPI   C1A 9639   0.012   5.255   9.642  0.0506  0.0465  0.0105
  603loPI   C2A 9640   0.077   5.190   9.235 -0.1849  0.0713 -0.2971
  603loPI   C3A 9641   0.169   5.248   8.881 -0.1671 -0.2556  0.3564
  603loPI   C4A 9642   0.157   5.396   8.480 -0.1008  0.0485  0.2486
  603loPI   C5A 9643   0.001   5.628   8.055 -0.1739  0.0178 -0.0748
  603loPI   C6A 9644  -0.220   5.912   7.801  0.1899  0.0115 -0.0675
  603loPI   C1B 9645  -0.089   5.920   9.709  0.2425  0.1352 -0.0944
  603loPI   C2B 9646  -0.134   6.152   9.281  0.2656  0.2601  0.1976
  603loPI   C3B 9647   0.067   6.091   8.858 -0.0685 -0.0176  0.1869
  603loPI   C4B 9648   0.075   6.014   8.410 -0.1198  0.0574 -0.1055
  604loPI    C1 9649  14.047  15.958  10.964 -0.2661 -0.1195  0.0813
  604loPI    C2 9650  14.309  16.227  11.100  0.0487 -0.2427 -0.2648
  604loPI    C3 9651  13.994  16.123  11.324  0.0030  0.2981 -0.0643
  604loPI   PO4 9652  14.148  15.821  10.765 -0.0145  0.1658 -0.2144
  604loPI   GL1 9653  14.316  15.743  10.400 -0.1828  0.2692  0.0133
  604loPI   GL2 9654  14.599  15.511  10.400  0.2834  0.2490  0.1294
  604loPI   C1A 9655  14.199  15.774   9.967 -0.2503 -0.2228  0.1241
  604loPI   C2A 9656  14.312  15.877   9.460 -0.1230 -0.2795 -0.1128
  604loPI   C3A 9657  14.228  15.791   8.997  0.1072  0.0081 -0.0559
  604loPI   C4A 9658  14.132  15.809   8.607 -0.0132  0.0766  0.1141
  604loPI   C5A 9659  14.051  16.023   8.194 -0.0685 -0.0589 -0.0598
  604loPI   C6A 9660  14.209  16.444   8.190  0.0130 -0.0217  0.1600
  604loPI   C1B 9661  14.741  15.599   9.945 -0.3385  0.5026 -0.0140
  604loPI   C2B 9662  14.810  15.687   9.547 -0.1181 -0.0234 -0.4784
  604loPI   C3B 9663  14.696  15.690   9.158 -0.0569  0.2712  0.1387
  604loPI   C4B 9664  14.639  15.675   8.737  0.0046  0.0288  0.0692
  605loPI    C1 9665  17.479   9.367  11.027 -0.2708 -0.1084 -0.0960
  605loPI    C2 9666  17.549   8.979  11.096 -0.2704 -0.0555  0.2158
  605loPI    C3 9667  17.301   9.183  11.334 -0.3415  0.1149 -0.0008
  605loPI   PO4 9668  17.581   9.393  10.665  0.1728  0.1563 -0.0837
  605loPI   GL1 9669  17.775   9.344  10.308  0.1175  0.0548 -0.0054
  605loPI   GL2 9670  17.783   9.585  10.193  0.2083 -0.0904 -0.2384
  605loPI   C1A 9671  17.813   9.100   9.929  0.0392  0.0236  0.0781
  605loPI   C2A 9672  17.843   9.133   9.431 -0.2155  0.0870  0.2972
  605loPI   C3A 9673  17.862   9.096   9.032  0.0284 -0.2423 -0.1993
  605loPI   C4A 9674  17.843   9.225   8.627 -0.3062  0.1889 -0.0974
  605loPI   C5A 9675  18.154   9.477   8.396 -0.2636  0.0192  0.0218
  605loPI   C6A 9676  18.524   9.694   8.207 -0.1158 -0.0319  0.0880
  605loPI   C1B 9677  17.882   9.553   9.746  0.1856  0.0856  0.0504
  605loPI   C2B 9678  17.829   9.632   9.292 -0.1046 -0.0836 -0.1277
  605loPI   C3B 9679  17.737   9.597   8.941 -0.2350  0.0262 -0.0589
  605loPI   C4B 9680  17.721   9.686   8.469 -0.3283  0.0918 -0.4381
  606loPI    C1 9681   9.219  18.167  10.881 -0.0105  0.0318  0.1388
  606loPI    C2 9682   8.932  18.440  10.829  0.1062  0.1383  0.0489
  606loPI    C3 9683   9.031  18.321  11.198 -0.1206  0.0280  0.0757
  606loPI   PO4 9684   9.206  17.977  10.690  0.1802 -0.3681  0.2090
  606loPI   GL1 9685   9.319  18.054  10.261 -0.0855  0.1208  0.0468
  606loPI   GL2 9686   9.112  17.879  10.100  0.1230  0.1668 -0.2593
  606loPI   C1A 9687   9.571  17.962   9.889 -0.0329 -0.0705 -0.0695
  606loPI   C2A 9688   9.399  17.952   9.454 -0.2266 -0.0681 -0.0574
  606loPI   C3A 9689   9.411  18.041   9.059 -0.2258 -0.1129  0.0829
  606loPI   C4A 9690   9.383  17.862   8.774  0.3220 -0.0286  0.1666
  606loPI   C5A 9691   9.432  17.923   8.381 -0.2253  0.2688 -0.1393
  606loPI   C6A 9692   9.262  18.115   7.908 -0.1363  0.0352 -0.1152
  606loPI   C1B 9693   8.912  17.700   9.752 -0.3202  0.0217  0.2420
  606loPI   C2B 9694   8.901  17.874   9.249  0.1726 -0.0115  0.1683
  606loPI   C3B 9695   8.924  17.884   8.758  0.0105  0.1819  0.1475
  606loPI   C4B 9696   8.976  17.885   8.253  0.1234 -0.3560  0.1052
  607loPI    C1 9697   4.449   0.148  10.782 -0.1651 -0.1390  0.1488
  607loPI    C2 9698   4.464   0.547  10.804  0.0520 -0.1297 -0.1073
  607loPI    C3 9699   4.574   0.325  11.118  0.1041  0.0100 -0.0261
  607loPI   PO4 9700   4.246   0.124  10.671  0.1995  0.2569  0.0601
  607loPI   GL1 9701   4.095   0.449  10.414 -0.2761  0.3328 -0.1493
  607loPI   GL2 9702   4.422   0.431  10.323  0.1072  0.1320  0.0147
  607loPI   C1A 9703   3.937   0.413  10.125 -0.0824 -0.2466 -0.0600
  607loPI   C2A 9704   4.022   0.331   9.769 -0.2568  0.0442  0.0522
  607loPI   C3A 9705   3.987   0.364   9.309 -0.3710 -0.1109 -0.0672
  607loPI   C4A 9706   4.072   0.428   8.940  0.1620 -0.0633  0.0363
  607loPI   C5A 9707   4.136   0.342   8.520 -0.0581  0.0199 -0.1131
  607loPI   C6A 9708   3.846   0.292   8.156 -0.2190  0.0139 -0.0668
  607loPI   C1B 9709   4.461   0.406   9.962 -0.0370  0.0209 -0.0017
  607loPI   C2B 9710   4.511   0.524   9.560  0.2077 -0.0967  0.2076
  607loPI   C3B 9711   4.625   0.473   9.119  0.3100  0.0883  0.0405
  607loPI   C4B 9712   4.573   0.509   8.690 -0.1035 -0.0646  0.2281
  608loPI    C1 9713   0.666   7.252  10.734  0.0961  0.0252  0.2190
  608loPI    C2 9714   0.654   6.905  10.932 -0.0706 -0.1171 -0.0347
  608loPI    C3 9715   0.819   6.921  10.568  0.1729  0.1280  0.0826
  608loPI   PO4 9716   0.455   7.356  10.689  0.3137  0.1885 -0.0755
  608loPI   GL1 9717   0.291   7.503  10.294 -0.1958 -0.1945  0.0404
  608loPI   GL2 9718   0.016   7.341  10.460 -0.1992  0.0030  0.3111
  608loPI   C1A 9719   0.416   7.396   9.882  0.1113 -0.2315  0.4250
  608loPI   C2A 9720   0.614   7.548   9.433 -0.2294 -0.1668 -0.5029
  608loPI   C3A 9721   0.647   7.709   8.924 -0.0776 -0.3514 -0.0598
  608loPI   C4A 9722   0.726   7.609   8.586  0.0967 -0.0192  0.1744
  608loPI   C5A 9723   0.756   7.452   8.165 -0.0698 -0.1231  0.2876
  608loPI   C6A 9724   0.739   7.531   7.696 -0.0122 -0.1218  0.0621
  608loPI   C1B 9725  -0.062   7.367   9.959 -0.0698 -0.0560  0.1798
  608loPI   C2B 9726  -0.055   7.356   9.606  0.0299  0.2408  0.1543
  608loPI   C3B 9727   0.125   7.493   9.297 -0.3777 -0.0385 -0.0626
  608loPI   C4B 9728   0.269   7.444   8.968  0.2559  0.1061 -0.0307
  609loPI    C1 9729   8.267  12.507  10.628  0.0052 -0.1587 -0.1103
  609loPI    C2 9730   8.499  12.406  10.939  0.0476  0.0443 -0.0748
  609loPI    C3 9731   8.399  12.789  10.879 -0.2864 -0.0413 -0.0852
  609loPI   PO4 9732   8.103  12.238  10.544  0.1031  0.0019  0.0152
  609loPI   GL1 9733   7.876  12.320  10.220 -0.1811  0.0650 -0.0565
  609loPI   GL2 9734   8.196  12.591  10.155 -0.2502  0.2022 -0.0267
  609loPI   C1A 9735   7.831  12.270   9.791 -0.0038 -0.1567  0.0346
  609loPI   C2A 9736   7.858  12.264   9.348  0.1876  0.2081  0.0262
  609loPI   C3A 9737   7.841  12.335   8.907 -0.0166 -0.1720  0.2822
  609loPI   C4A 9738   8.052  12.235   8.525  0.1174  0.0617  0.1452
  609loPI   C5A 9739   8.321  12.161   8.168 -0.4097  0.0673 -0.0352
  609loPI   C6A 9740   8.350  11.743   7.997  0.1303  0.3251  0.1023
  609loPI   C1B 9741   8.229  12.554   9.672  0.4101  0.0419 -0.0537
  609loPI   C2B 9742   8.281  12.554   9.244 -0.4024  0.3282  0.1395
  609loPI   C3B 9743   8.303  12.592   8.853  0.1017 -0.0079  0.0623
  609loPI   C4B 9744   8.341  12.658   8.371  0.0233 -0.1403 -0.3868
  610loPI    C1 9745   8.772  10.318  10.899 -0.1016 -0.2479  0.0882
  610loPI    C2 9746   8.548  10.264  11.226 -0.0755 -0.2247  0.1100
  610loPI    C3 9747   8.901  10.449  11.254 -0.1803 -0.0085  0.0307
  610loPI   PO4 9748   8.842  10.130  10.818  0.0973  0.0243  0.5508
  610loPI   GL1 9749   8.647   9.779  10.621  0.0329  0.0605  0.2716
  610loPI   GL2 9750   8.530   9.559  10.386 -0.3283 -0.2333 -0.1883
  610loPI   C1A 9751   8.746  10.018  10.145  0.1989  0.0745 -0.1094
  610loPI   C2A 9752   8.687  10.044   9.757  0.2420  0.1199  0.1623
  610loPI   C3A 9753   8.669  10.064   9.309  0.3054  0.0313 -0.0605
  610loPI   C4A 9754   8.703  10.106   8.889 -0.0270  0.3049  0.1274
  610loPI   C5A 9755   8.712  10.078   8.443 -0.0664  0.3345  0.1318
  610loPI   C6A 9756   8.883  10.378   8.153  0.4328  0.0889 -0.2801
  610loPI   C1B 9757   8.714   9.467   9.959 -0.1453 -0.2331  0.1653
  610loPI   C2B 9758   8.814   9.584   9.540  0.2006  0.2526  0.6259
  610loPI   C3B 9759   8.718   9.554   9.117 -0.0288  0.1582  0.0247
  610loPI   C4B 9760   8.809   9.644   8.647 -0.1365  0.4022 -0.1847
  611loPI    C1 9761   9.607   4.207  10.568 -0.0395  0.1441  0.2373
  611loPI    C2 9762   9.993   4.272  10.649 -0.0285  0.0672  0.2468
  611loPI    C3 9763   9.819   3.931  10.764 -0.0598  0.0360  0.1084
  611loPI   PO4 9764   9.575   4.178  10.284 -0.2051 -0.0296 -0.1098
  611loPI   GL1 9765   9.490   4.141   9.890  0.3705  0.1585 -0.3026
  611loPI   GL2 9766   9.652   4.429   9.833 -0.0072  0.3102  0.0299
  611loPI   C1A 9767   9.328   4.132   9.430  0.3151 -0.1838 -0.0131
  611loPI   C2A 9768   9.266   4.093   8.900  0.2128  0.1689  0.1536
  611loPI   C3A 9769   9.104   4.225   8.430 -0.1409 -0.0118 -0.1047
  611loPI   C4A 9770   8.918   4.164   8.055 -0.0075  0.0657 -0.2590
  611loPI   C5A 9771   8.775   3.852   7.751  0.1015 -0.1053  0.1095
  611loPI   C6A 9772   8.816   3.480   7.627 -0.0033  0.1057  0.0136
  611loPI   C1B 9773   9.706   4.536   9.370  0.0871  0.0726 -0.0464
  611loPI   C2B 9774   9.821   4.483   8.935  0.1440  0.5261  0.2501
  611loPI   C3B 9775  10.021   4.689   8.577 -0.1357  0.0460  0.1771
  611loPI   C4B 9776  10.164   4.773   8.278  0.0350 -0.0530  0.2982
  612loPI    C1 9777  16.399   9.860  10.468 -0.0479  0.2595 -0.2050
  612loPI    C2 9778  16.598   9.521  10.396 -0.0199  0.2117  0.0848
  612loPI    C3 9779  16.433   9.584  10.755 -0.1598  0.4379 -0.0170
  612loPI   PO4 9780  16.126   9.801  10.346  0.1833  0.3814 -0.1176
  612loPI   GL1 9781  16.060   9.392  10.097  0.2803  0.0060 -0.1973
  612loPI   GL2 9782  16.344   9.530   9.968 -0.1752 -0.1270  0.3116
  612loPI   C1A 9783  16.063   9.388   9.607 -0.0070  0.3193 -0.1266
  612loPI   C2A 9784  16.059   9.356   9.230 -0.0986 -0.2642  0.1030
  612loPI   C3A 9785  16.019   9.343   8.831 -0.2329  0.1191 -0.1962
  612loPI   C4A 9786  15.944   9.302   8.399  0.1095 -0.1015  0.0142
  612loPI   C5A 9787  15.975   9.459   7.973 -0.2127 -0.1304 -0.0635
  612loPI   C6A 9788  16.026   9.763   7.664  0.2982 -0.0688 -0.0650
  612loPI   C1B 9789  16.548   9.671   9.583 -0.0712 -0.0806 -0.2612
  612loPI   C2B 9790  16.469   9.682   9.101  0.2470  0.2673 -0.0749
  612loPI   C3B 9791  16.361   9.654   8.682  0.0550  0.2159 -0.1297
  612loPI   C4B 9792  16.332   9.547   8.288  0.1407 -0.1754  0.1903
  613loPI    C1 9793   9.869   5.399  10.449 -0.0196  0.0362  0.0164
  613loPI    C2 9794  10.153   5.155  10.309 -0.1427 -0.1643  0.1110
  613loPI    C3 9795   9.873   5.014  10.557 -0.1798  0.0887  0.2163
  613loPI   PO4 9796   9.838   5.526  10.241 -0.1488  0.0982 -0.1594
  613loPI   GL1 9797  10.060   5.681   9.920 -0.0504 -0.0195  0.1600
  613loPI   GL2 9798  10.099   5.274   9.848  0.0106 -0.0928 -0.0747
  613loPI   C1A 9799   9.924   5.831   9.542  0.1544  0.0371  0.1277
  613loPI   C2A 9800   9.992   5.807   9.160  0.1943 -0.2433 -0.1343
  613loPI   C3A 9801   9.949   5.935   8.770  0.0793 -0.3468 -0.0030
  613loPI   C4A 9802  10.052   5.865   8.421  0.0663  0.0538 -0.1656
  613loPI   C5A 9803  10.020   5.931   8.021 -0.0113  0.0279  0.0076
  613loPI   C6A 9804   9.869   5.880   7.615 -0.0537  0.0264 -0.2325
  613loPI   C1B 9805  10.007   5.301   9.395  0.0855  0.0715 -0.0298
  613loPI   C2B 9806  10.007   5.401   8.872 -0.1611  0.1080  0.4426
  613loPI   C3B 9807  10.238   5.419   8.396  0.0383 -0.0315 -0.3724
  613loPI   C4B 9808  10.076   5.360   8.033  0.0539 -0.0254 -0.0932
  614loPI    C1 9809  12.887  14.790  11.275 -0.1637  0.1704  0.2710
  614loPI    C2 9810  13.195  14.899  11.506  0.0840  0.0849 -0.0120
  614loPI    C3 9811  12.910  14.661  11.653  0.0955  0.2488  0.2846
  614loPI   PO4 9812  12.999  14.777  11.048 -0.0441  0.0016 -0.0464
  614loPI   GL1 9813  13.225  14.706  10.700 -0.0047 -0.1189 -0.0152
  614loPI   GL2 9814  13.577  14.714  10.730 -0.1294 -0.0735 -0.1640
  614loPI   C1A 9815  13.103  14.873  10.313 -0.0880  0.1677 -0.1099
  614loPI   C2A 9816  12.980  14.895   9.885  0.2235 -0.2446  0.3740
  614loPI   C3A 9817  12.937  14.881   9.449 -0.0585  0.0076 -0.0027
  614loPI   C4A 9818  12.982  14.817   8.995 -0.3176  0.1099 -0.0624
  614loPI   C5A 9819  12.962  14.354   8.714  0.0435  0.0485 -0.0175
  614loPI   C6A 9820  13.039  14.202   8.300 -0.2114  0.1341  0.1849
  614loPI   C1B 9821  13.544  14.690  10.238  0.1120  0.1197  0.0888
  614loPI   C2B 9822  13.469  14.704   9.838  0.2013  0.1252 -0.0413
  614loPI   C3B 9823  13.435  14.640   9.413 -0.0775 -0.2243  0.0573
  614loPI   C4B 9824  13.456  14.672   8.944  0.1840 -0.0539  0.0010
  615loPI    C1 9825   7.801  16.558  10.671  0.0453  0.1390 -0.0234
  615loPI    C2 9826   7.647  16.245  10.867  0.2229  0.1765  0.1791
  615loPI    C3 9827   7.728  16.584  11.063 -0.1441  0.4178 -0.0744
  615loPI   PO4 9828   7.931  16.332  10.468  0.1444  0.2150  0.2638
  615loPI   GL1 9829   8.127  16.133  10.157 -0.1136  0.0011  0.1895
  615loPI   GL2 9830   8.275  16.240   9.947 -0.0268  0.1640 -0.0573
  615loPI   C1A 9831   7.868  16.066   9.741  0.1653 -0.0959 -0.1301
  615loPI   C2A 9832   7.859  16.097   9.381 -0.0026  0.0195  0.1732
  615loPI   C3A 9833   7.861  16.189   8.953  0.0072 -0.2149 -0.0999
  615loPI   C4A 9834   7.852  16.195   8.511 -0.1618  0.2129 -0.0233
  615loPI   C5A 9835   7.968  16.187   8.058  0.0919 -0.0370 -0.0727
  615loPI   C6A 9836   7.908  15.980   7.708  0.0057  0.0798  0.1493
  615loPI   C1B 9837   8.332  16.332   9.548  0.0397  0.1518 -0.0661
  615loPI   C2B 9838   8.373  16.418   9.136 -0.0824  0.0674  0.4093
  615loPI   C3B 9839   8.302  16.391   8.658  0.2631  0.0315 -0.0243
  615loPI   C4B 9840   8.454  16.160   8.294 -0.0503 -0.2418 -0.1531
  616loPI    C1 9841   4.336  11.472  10.869 -0.1971  0.0584  0.0173
  616loPI    C2 9842   4.116  11.770  10.717 -0.3883 -0.0791  0.0213
  616loPI    C3 9843   3.963  11.532  11.000 -0.2904 -0.2732 -0.0863
  616loPI   PO4 9844   4.426  11.310  10.627  0.3415  0.1559  0.1571
  616loPI   GL1 9845   4.423  10.982  10.373 -0.0726 -0.0211  0.0902
  616loPI   GL2 9846   4.642  10.829  10.239  0.3687 -0.0862  0.1272
  616loPI   C1A 9847   4.250  11.004   9.955 -0.0238 -0.2917 -0.1634
  616loPI   C2A 9848   4.370  10.963   9.559  0.0534 -0.2319  0.0479
  616loPI   C3A 9849   4.522  11.087   9.084 -0.1795 -0.0999  0.1632
  616loPI   C4A 9850   4.510  11.085   8.660  0.0086 -0.3431  0.2021
  616loPI   C5A 9851   4.430  11.490   8.479  0.1270  0.0670 -0.1487
  616loPI   C6A 9852   4.378  11.837   8.213 -0.1289  0.0998 -0.0380
  616loPI   C1B 9853   4.860  10.826   9.780  0.0092  0.2130 -0.0431
  616loPI   C2B 9854   4.903  10.889   9.295 -0.0709 -0.0162 -0.2431
  616loPI   C3B 9855   4.989  10.974   8.848  0.1243  0.0691 -0.0678
  616loPI   C4B 9856   4.901  10.782   8.451  0.0106 -0.3008  0.0667
  617loPI    C1 9857  10.602  12.250  11.061  0.1655  0.0491 -0.2086
  617loPI    C2 9858  10.703  11.884  11.188 -0.1063 -0.0019 -0.1328
  617loPI    C3 9859  10.847  12.208  11.374 -0.0133 -0.0718 -0.0828
  617loPI   PO4 9860  10.377  12.235  10.833 -0.1878 -0.3824  0.3136
  617loPI   GL1 9861  10.534  12.208  10.442 -0.1391 -0.0526 -0.1272
  617loPI   GL2 9862  10.370  12.341  10.205 -0.0088  0.2752 -0.2804
  617loPI   C1A 9863  10.594  11.933  10.101  0.0044  0.0832 -0.1097
  617loPI   C2A 9864  10.694  11.911   9.603 -0.0076 -0.1339  0.0346
  617loPI   C3A 9865  10.664  11.949   9.190 -0.2541  0.0234  0.0247
  617loPI   C4A 9866  10.630  11.978   8.754  0.1357 -0.1483 -0.0582
  617loPI   C5A 9867  10.659  11.684   8.345 -0.5784  0.0629 -0.2024
  617loPI   C6A 9868  10.318  11.641   7.985  0.3608  0.2347  0.0276
  617loPI   C1B 9869  10.546  12.355   9.743 -0.1515  0.1421  0.2421
  617loPI   C2B 9870  10.482  12.471   9.224  0.1730  0.0503  0.0675
  617loPI   C3B 9871  10.580  12.448   8.826 -0.1046 -0.1886  0.0144
  617loPI   C4B 9872  10.490  12.348   8.449  0.1568 -0.2294 -0.4177
  618loPI    C1 9873   2.469  16.386  10.185 -0.1735 -0.1218 -0.0696
  618loPI    C2 9874   2.329  16.199  10.511 -0.6036  0.1558 -0.0866
  618loPI    C3 9875   2.194  16.098  10.148 -0.2838 -0.0059 -0.1641
  618loPI   PO4 9876   2.716  16.316  10.177  0.4017 -0.4409  0.2136
  618loPI   GL1 9877   2.876  16.628   9.854 -0.0039 -0.1915 -0.0950
  618loPI   GL2 9878   2.549  16.731   9.763 -0.0310  0.1805  0.1328
  618loPI   C1A 9879   2.837  16.709   9.373 -0.0119 -0.1408  0.3253
  618loPI   C2A 9880   2.795  16.759   8.963  0.1928  0.2916 -0.0327
  618loPI   C3A 9881   2.526  16.903   8.634  0.4491 -0.1617 -0.2384
  618loPI   C4A 9882   2.505  16.738   8.240 -0.2163  0.0409 -0.1859
  618loPI   C5A 9883   2.667  16.862   7.896  0.2469  0.1005 -0.0564
  618loPI   C6A 9884   2.970  17.228   7.917 -0.1607 -0.0175 -0.1494
  618loPI   C1B 9885   2.327  16.790   9.393  0.0507 -0.1382 -0.2101
  618loPI   C2B 9886   2.291  16.611   9.012  0.1945 -0.1446 -0.0041
  618loPI   C3B 9887   2.119  16.589   8.618  0.0363  0.0589  0.2316
  618loPI   C4B 9888   2.167  16.395   8.235  0.0452  0.0671  0.1157
  619loPI    C1 9889   2.294   4.657  10.481 -0.3099  0.0143  0.0112
  619loPI    C2 9890   2.369   4.446  10.812 -0.2685 -0.0927 -0.0658
  619loPI    C3 9891   2.211   4.813  10.840  0.2597  0.1325  0.1010
  619loPI   PO4 9892   2.220   4.507  10.327 -0.1686 -0.2810 -0.0163
  619loPI   GL1 9893   2.215   4.517   9.884 -0.0606 -0.1098 -0.1219
  619loPI   GL2 9894   1.931   4.331   9.910  0.0625  0.2654  0.1448
  619loPI   C1A 9895   2.328   4.519   9.438 -0.1353  0.2302  0.1248
  619loPI   C2A 9896   2.237   4.561   9.088 -0.0278 -0.0620 -0.1115
  619loPI   C3A 9897   2.295   4.552   8.643  0.1678  0.0277 -0.0702
  619loPI   C4A 9898   2.129   4.552   8.196  0.2569  0.1737  0.0192
  619loPI   C5A 9899   2.334   4.989   7.992  0.2140  0.0426  0.0996
  619loPI   C6A 9900   2.614   5.312   7.928  0.3644  0.0842 -0.3598
  619loPI   C1B 9901   1.830   4.494   9.530  0.1949  0.1519  0.0105
  619loPI   C2B 9902   1.774   4.468   9.100 -0.0544  0.0423 -0.4035
  619loPI   C3B 9903   1.799   4.496   8.782 -0.0312 -0.0916 -0.0503
  619loPI   C4B 9904   1.705   4.610   8.437 -0.0136 -0.2169  0.1096
  620loPI    C1 9905  15.080   3.480  10.012  0.0161 -0.1360  0.1055
  620loPI    C2 9906  14.750   3.458  10.237 -0.1039 -0.3296 -0.0853
  620loPI    C3 9907  15.037   3.181  10.275  0.0176 -0.1876  0.0474
  620loPI   PO4 9908  15.169   3.712   9.991  0.2596  0.1695  0.0514
  620loPI   GL1 9909  15.090   3.828   9.597 -0.0391  0.0043 -0.0619
  620loPI   GL2 9910  14.891   3.983   9.331  0.1297 -0.1072 -0.2131
  620loPI   C1A 9911  15.361   3.754   9.282 -0.0021  0.0032 -0.1283
  620loPI   C2A 9912  15.625   3.917   8.915 -0.0762  0.3422 -0.0156
  620loPI   C3A 9913  15.957   3.789   8.568  0.2674 -0.1954 -0.3180
  620loPI   C4A 9914  16.089   3.609   8.192  0.1731  0.0452  0.1508
  620loPI   C5A 9915  16.540   3.541   7.894  0.0672  0.2298  0.1665
  620loPI   C6A 9916  16.969   3.699   7.798 -0.0732 -0.0425  0.3744
  620loPI   C1B 9917  15.172   4.147   8.909 -0.2278  0.2634 -0.1623
  620loPI   C2B 9918  15.396   4.211   8.578  0.2076  0.1254  0.1258
  620loPI   C3B 9919  15.664   3.911   8.223 -0.0616  0.1171  0.2389
  620loPI   C4B 9920  15.403   3.620   8.067 -0.0647 -0.2870  0.0237
  621loPI    C1 9921  12.552  16.443  10.721  0.0817  0.1647  0.1231
  621loPI    C2 9922  12.399  16.442  11.090  0.0243  0.0620  0.0993
  621loPI    C3 9923  12.507  16.098  10.918 -0.0393  0.0995 -0.0165
  621loPI   PO4 9924  12.711  16.664  10.702  0.0001 -0.0071  0.0201
  621loPI   GL1 9925  12.929  16.856  10.359 -0.1043 -0.1931 -0.1368
  621loPI   GL2 9926  13.248  16.921  10.275  0.4127  0.2852 -0.2569
  621loPI   C1A 9927  12.809  16.992   9.939  0.0573  0.1192  0.0257
  621loPI   C2A 9928  12.805  16.959   9.504 -0.2020 -0.0069 -0.2777
  621loPI   C3A 9929  12.705  16.961   8.981 -0.1579  0.1807  0.1054
  621loPI   C4A 9930  12.639  16.799   8.503  0.1516  0.0483  0.1749
  621loPI   C5A 9931  12.309  16.590   8.291 -0.2520 -0.0669 -0.2893
  621loPI   C6A 9932  12.129  16.509   7.972 -0.1713 -0.1510  0.2165
  621loPI   C1B 9933  13.247  16.733   9.970  0.0074  0.1728  0.1384
  621loPI   C2B 9934  13.244  16.685   9.582 -0.3294  0.2183  0.1892
  621loPI   C3B 9935  13.253  16.742   9.144  0.3679  0.0187  0.3260
  621loPI   C4B 9936  13.116  16.803   8.742  0.4980  0.1452 -0.0172
  622loPI    C1 9937   3.874   8.903  10.975  0.0084 -0.0407 -0.2257
  622loPI    C2 9938   3.795   8.589  10.740  0.1498 -0.2023 -0.0604
  622loPI    C3 9939   3.619   8.621  11.098  0.1805 -0.1222 -0.0522
  622loPI   PO4 9940   4.128   8.912  10.956  0.0082  0.3961 -0.1411
  622loPI   GL1 9941   4.219   9.107  10.561  0.1255 -0.1565  0.0710
  622loPI   GL2 9942   3.968   8.979  10.423 -0.0208  0.0785 -0.1571
  622loPI   C1A 9943   4.391   8.922  10.170  0.0673 -0.0256  0.2238
  622loPI   C2A 9944   4.541   9.002   9.697  0.0920  0.0722 -0.0781
  622loPI   C3A 9945   4.657   8.980   9.227 -0.1688  0.1825  0.2020
  622loPI   C4A 9946   4.754   8.939   8.725 -0.0869  0.0651 -0.0736
  622loPI   C5A 9947   5.082   8.830   8.412  0.1257  0.0106  0.1748
  622loPI   C6A 9948   5.362   9.109   8.320  0.0229  0.3699  0.2824
  622loPI   C1B 9949   3.934   9.056   9.986  0.1838  0.0709  0.1999
  622loPI   C2B 9950   4.073   8.926   9.599  0.2119 -0.1555  0.4987
  622loPI   C3B 9951   4.337   8.602   9.426 -0.0583 -0.2035  0.0379
  622loPI   C4B 9952   4.756   8.555   9.460  0.0078 -0.0440 -0.0221
  623loPI    C1 9953   3.970  18.031  11.018  0.1143 -0.1928  0.2114
  623loPI    C2 9954   4.369  18.050  11.038  0.1248 -0.0795 -0.0570
  623loPI    C3 9955   4.145  18.311  11.243  0.1926  0.0083 -0.0940
  623loPI   PO4 9956   3.920  18.008  10.801 -0.1956 -0.5470 -0.6169
  623loPI   GL1 9957   4.217  17.976  10.548 -0.0064  0.0333 -0.0845
  623loPI   GL2 9958   4.379  18.131  10.358 -0.1113 -0.0178  0.0908
  623loPI   C1A 9959   4.189  17.815  10.049  0.2727 -0.1827 -0.1370
  623loPI   C2A 9960   4.296  17.870   9.635 -0.2589 -0.2444  0.1447
  623loPI   C3A 9961   4.238  17.893   9.237  0.0828 -0.0868  0.0315
  623loPI   C4A 9962   4.169  17.769   8.843  0.0775  0.1254  0.1831
  623loPI   C5A 9963   4.084  17.652   8.465 -0.0113 -0.0043  0.2834
  623loPI   C6A 9964   4.107  17.503   7.988 -0.1369  0.1607  0.1442
  623loPI   C1B 9965   4.280  18.290   9.979 -0.1898 -0.0212  0.1790
  623loPI   C2B 9966   4.454  18.345   9.521 -0.0547 -0.0202  0.1735
  623loPI   C3B 9967   4.321  18.395   9.102  0.0301 -0.2638 -0.0282
  623loPI   C4B 9968   4.350  18.271   8.752  0.1021  0.0698 -0.0764
  624loPI    C1 9969   6.331  11.668  11.236 -0.0884 -0.0445  0.2729
  624loPI    C2 9970   6.667  11.707  11.022 -0.1763 -0.0257  0.1365
  624loPI    C3 9971   6.650  11.847  11.397 -0.0574  0.0429  0.1167
  624loPI   PO4 9972   6.180  11.773  10.960 -0.2461 -0.2558  0.2012
  624loPI   GL1 9973   6.062  11.672  10.538 -0.0505 -0.1393  0.2469
  624loPI   GL2 9974   5.978  11.927  10.258  0.0333 -0.3705  0.1087
  624loPI   C1A 9975   6.002  11.451  10.146  0.3729  0.2663  0.1171
  624loPI   C2A 9976   6.062  11.388   9.707  0.2062  0.0659 -0.0307
  624loPI   C3A 9977   6.149  11.420   9.258  0.1147 -0.4205 -0.0267
  624loPI   C4A 9978   6.256  11.462   8.879 -0.0426  0.2277  0.0998
  624loPI   C5A 9979   6.245  11.395   8.452  0.2839 -0.2595 -0.2309
  624loPI   C6A 9980   6.176  11.598   8.033  0.0670  0.2027  0.2100
  624loPI   C1B 9981   5.964  11.940   9.846 -0.0973 -0.2125 -0.1511
  624loPI   C2B 9982   6.149  11.891   9.461  0.1129  0.1643 -0.0953
  624loPI   C3B 9983   6.166  11.915   9.024 -0.1437 -0.1363  0.0513
  624loPI   C4B 9984   6.053  11.954   8.642  0.3827  0.1954  0.2532
  625loPI    C1 9985   3.562   3.411  10.901  0.0332 -0.1008 -0.1338
  625loPI    C2 9986   3.523   3.163  11.213  0.0497  0.0342 -0.0231
  625loPI    C3 9987   3.231   3.421  11.125  0.1090  0.0998 -0.0287
  625loPI   PO4 9988   3.668   3.309  10.658  0.2208  0.0626  0.1404
  625loPI   GL1 9989   3.470   2.977  10.321 -0.1546 -0.0598  0.0691
  625loPI   GL2 9990   3.760   3.016  10.273  0.1832  0.0606  0.1040
  625loPI   C1A 9991   3.359   2.967   9.887  0.0585  0.0137 -0.0572
  625loPI   C2A 9992   3.513   2.983   9.463  0.0031 -0.1471  0.0312
  625loPI   C3A 9993   3.595   2.992   8.973  0.0962 -0.0182  0.2431
  625loPI   C4A 9994   3.609   2.970   8.608  0.2819  0.2578  0.0291
  625loPI   C5A 9995   3.878   3.105   8.236 -0.2622  0.0535 -0.0246
  625loPI   C6A 9996   4.145   3.095   8.000  0.1459  0.2060  0.0435
  625loPI   C1B 9997   3.878   3.025   9.887  0.0985 -0.0626  0.1960
  625loPI   C2B 9998   4.044   3.031   9.462 -0.1864 -0.0776  0.1878
  625loPI   C3B 9999   4.120   3.110   9.010  0.0635  0.0472 -0.1756
  625loPI   C4B10000   4.158   3.217   8.601 -0.1594  0.0003  0.2255
  626loPI    C110001  17.532   1.827  10.533  0.2661 -0.0503  0.0515
  626loPI    C210002  17.552   2.204  10.665 -0.1708 -0.0447  0.1164
  626loPI    C310003  17.692   1.905  10.892 -0.0999  0.0492  0.1976
  626loPI   PO410004  17.625   1.837  10.325  0.1714 -0.3525 -0.0251
  626loPI   GL110005  17.388   1.769   9.957  0.0103  0.5260  0.1036
  626loPI   GL210006  17.266   2.006   9.764 -0.0166  0.0417 -0.3685
  626loPI   C1A10007  17.731   1.555   9.681  0.0813 -0.0147 -0.1700
  626loPI   C2A10008  17.950   1.467   9.323 -0.0416 -0.1169 -0.1760
  626loPI   C3A10009  18.064   1.607   8.902  0.2328 -0.1233  0.0260
  626loPI   C4A10010  18.097   1.473   8.523  0.0041 -0.2044 -0.3613
  626loPI   C5A10011  18.100   1.479   8.090 -0.2939  0.1147  0.3146
  626loPI   C6A10012  18.230   1.360   7.743  0.0098  0.0562 -0.0301
  626loPI   C1B10013  17.548   1.977   9.445 -0.0453 -0.0682  0.2824
  626loPI   C2B10014  17.629   1.902   8.934 -0.2169 -0.1282  0.3077
  626loPI   C3B10015  17.791   1.929   8.559 -0.0569 -0.1968 -0.0002
  626loPI   C4B10016  17.813   1.915   8.156 -0.0600 -0.1952  0.1420
  627loPI    C110017   3.995   9.443  10.969  0.0590 -0.4441  0.1087
  627loPI    C210018   3.715   9.373  11.246  0.0055 -0.1685  0.1269
  627loPI    C310019   4.096   9.272  11.316  0.0033 -0.0412  0.3286
  627loPI   PO410020   3.840   9.384  10.710 -0.2817  0.2496 -0.0401
  627loPI   GL110021   3.715   9.422  10.312  0.1116  0.1242 -0.2029
  627loPI   GL210022   3.998   9.641  10.316  0.0942 -0.2241 -0.3097
  627loPI   C1A10023   3.551   9.639   9.959 -0.0032 -0.2142  0.2792
  627loPI   C2A10024   3.581   9.697   9.538 -0.1962 -0.1289  0.1551
  627loPI   C3A10025   3.693   9.780   9.161 -0.0889  0.0961 -0.0083
  627loPI   C4A10026   3.672   9.963   8.763 -0.0268 -0.0657  0.1332
  627loPI   C5A10027   3.832   9.811   8.373 -0.2501  0.1684 -0.0639
  627loPI   C6A10028   3.860   9.459   8.087 -0.0424  0.0768  0.2603
  627loPI   C1B10029   4.090   9.535   9.839  0.0454  0.2091  0.0645
  627loPI   C2B10030   4.134   9.699   9.408  0.3730 -0.0835  0.2507
  627loPI   C3B10031   4.185   9.723   8.941 -0.3822 -0.0155 -0.1215
  627loPI   C4B10032   3.852   9.500   8.761 -0.2180  0.0704 -0.0379
  628loPI    C110033  15.407   8.153  10.437 -0.3361 -0.0884 -0.0040
  628loPI    C210034  15.138   8.404  10.595 -0.1848  0.1550 -0.1272
  628loPI    C310035  15.249   8.077  10.797 -0.3467  0.2125  0.0580
  628loPI   PO410036  15.444   8.228  10.219 -0.0977  0.0289 -0.1080
  628loPI   GL110037  15.313   8.417   9.830  0.1434  0.2261 -0.0123
  628loPI   GL210038  15.376   8.665   9.643 -0.0329  0.0202 -0.2780
  628loPI   C1A10039  15.422   8.143   9.455 -0.2315  0.0988 -0.3829
  628loPI   C2A10040  15.376   8.122   8.917 -0.3592  0.5283 -0.0747
  628loPI   C3A10041  15.331   8.183   8.539 -0.0442  0.0754 -0.0742
  628loPI   C4A10042  15.361   8.162   8.119 -0.1105  0.0105 -0.1780
  628loPI   C5A10043  15.186   8.320   7.714  0.1273 -0.1489 -0.1004
  628loPI   C6A10044  15.142   8.704   7.444  0.0471 -0.3519 -0.0307
  628loPI   C1B10045  15.301   8.572   9.203  0.0871  0.1767 -0.0279
  628loPI   C2B10046  15.146   8.648   8.743  0.0394 -0.0864  0.0011
  628loPI   C3B10047  15.223   8.632   8.265  0.1548 -0.3999 -0.1686
  628loPI   C4B10048  15.167   8.790   7.961  0.2637  0.2298 -0.3079
  629loPI    C110049  11.048  16.589  10.702 -0.0987  0.4474  0.1691
  629loPI    C210050  11.392  16.417  10.591 -0.3299  0.1458 -0.1016
  629loPI    C310051  11.315  16.477  10.979 -0.1145 -0.0889 -0.0194
  629loPI   PO410052  10.904  16.536  10.601 -0.0323  0.1514 -0.0856
  629loPI   GL110053  10.912  16.577  10.118  0.1468 -0.2204  0.2403
  629loPI   GL210054  11.126  16.346  10.206 -0.1491  0.0265  0.1891
  629loPI   C1A10055  10.944  16.576   9.652  0.1227  0.0373  0.0785
  629loPI   C2A10056  10.952  16.273   9.238  0.2155 -0.0665  0.1785
  629loPI   C3A10057  11.014  16.099   8.826  0.1984  0.0389 -0.0680
  629loPI   C4A10058  11.072  16.049   8.368 -0.3710 -0.0951 -0.1171
  629loPI   C5A10059  11.208  15.744   8.214 -0.4118  0.0911 -0.1201
  629loPI   C6A10060  11.477  15.813   7.884  0.0023 -0.0871  0.2340
  629loPI   C1B10061  11.028  16.051   9.857  0.1870 -0.0630 -0.4209
  629loPI   C2B10062  11.014  15.689   9.551 -0.3641  0.0983  0.1458
  629loPI   C3B10063  11.058  15.640   9.146 -0.1145  0.1356 -0.0719
  629loPI   C4B10064  11.073  15.561   8.698 -0.2337 -0.3257 -0.2924
  630loPI    C110065   1.703   5.179  11.104 -0.0345  0.1470  0.0746
  630loPI    C210066   1.809   5.561  11.156 -0.0065  0.1357  0.1004
  630loPI    C310067   1.875   5.293  11.446  0.1873  0.0641 -0.0077
  630loPI   PO410068   1.715   5.141  10.851  0.0148  0.0251 -0.0673
  630loPI   GL110069   1.506   5.162  10.452 -0.3184  0.6149 -0.0113
  630loPI   GL210070   1.431   5.468  10.464 -0.1242  0.3292  0.1446
  630loPI   C1A10071   1.550   5.198   9.938 -0.0254  0.0587 -0.0554
  630loPI   C2A10072   1.641   5.340   9.559  0.1201 -0.1574 -0.0301
  630loPI   C3A10073   1.696   5.345   9.094 -0.2225 -0.0458  0.2137
  630loPI   C4A10074   1.740   5.408   8.659  0.2503 -0.1255 -0.1331
  630loPI   C5A10075   1.847   5.398   8.177 -0.2224  0.0666  0.2206
  630loPI   C6A10076   2.096   5.399   7.803  0.1541 -0.0995  0.1102
  630loPI   C1B10077   1.747   5.587  10.215 -0.1722 -0.1825 -0.0343
  630loPI   C2B10078   1.857   5.698   9.861  0.0640  0.1435 -0.1772
  630loPI   C3B10079   1.822   5.808   9.382  0.1225 -0.0452 -0.0318
  630loPI   C4B10080   1.919   5.816   8.935  0.2132  0.0412  0.0825
  631loPI    C110081   7.152   4.055  10.438  0.0803 -0.0717 -0.2535
  631loPI    C210082   7.101   4.153  10.822  0.1140 -0.0053 -0.2660
  631loPI    C310083   7.454   4.013  10.697  0.1419  0.0924 -0.2976
  631loPI   PO410084   7.026   3.935  10.375 -0.0102 -0.1135 -0.0028
  631loPI   GL110085   7.056   3.570  10.162 -0.3724  0.1735 -0.1689
  631loPI   GL210086   6.684   3.519  10.200  0.0191  0.3216  0.0727
  631loPI   C1A10087   6.989   3.712   9.748  0.0756 -0.0959  0.1155
  631loPI   C2A10088   7.027   3.711   9.311 -0.0766 -0.0837 -0.0527
  631loPI   C3A10089   7.161   3.780   8.849 -0.0765  0.2174 -0.3261
  631loPI   C4A10090   7.071   3.787   8.384  0.0744 -0.1939  0.0368
  631loPI   C5A10091   7.141   3.626   7.931 -0.0815  0.1540  0.0126
  631loPI   C6A10092   7.300   3.650   7.506  0.2223  0.3086  0.1669
  631loPI   C1B10093   6.493   3.560   9.841  0.2285  0.1341 -0.2931
  631loPI   C2B10094   6.533   3.560   9.479 -0.0127  0.2757 -0.2116
  631loPI   C3B10095   6.550   3.644   9.009  0.1974 -0.0893 -0.0256
  631loPI   C4B10096   6.624   3.714   8.561 -0.2238  0.0950 -0.1176
  632loPI    C110097  18.176  12.269  10.848 -0.1168 -0.1057 -0.1529
  632loPI    C210098  18.115  12.661  10.801  0.1082 -0.0397  0.0780
  632loPI    C310099  17.830  12.433  10.964 -0.0580  0.0092 -0.1381
  632loPI   PO410100  18.347  12.123  10.689  0.4007 -0.1629 -0.0882
  632loPI   GL110101  18.275  11.886  10.306  0.0779 -0.1659  0.1961
  632loPI   GL210102  18.069  11.911  10.051 -0.1114 -0.2901  0.2115
  632loPI   C1A10103  18.353  12.256   9.841  0.0877  0.1509  0.0644
  632loPI   C2A10104  18.442  12.246   9.408  0.0698 -0.1123 -0.0364
  632loPI   C3A10105  18.359  12.186   8.956 -0.1230 -0.1948 -0.0515
  632loPI   C4A10106  18.360  12.216   8.467 -0.2600 -0.0132 -0.1552
  632loPI   C5A10107  18.406  11.906   8.166  0.2032 -0.1398 -0.2134
  632loPI   C6A10108  18.229  11.612   8.026  0.2609  0.3456  0.0619
  632loPI   C1B10109  17.946  11.980   9.636  0.2382  0.1426  0.1109
  632loPI   C2B10110  17.908  11.893   9.197  0.0842 -0.0145  0.0849
  632loPI   C3B10111  17.976  11.888   8.840  0.2181  0.0138  0.1408
  632loPI   C4B10112  17.973  11.827   8.412 -0.1429 -0.4385 -0.0283
  633loPI    C110113   1.150  13.876  10.827 -0.0834  0.0951  0.0941
  633loPI    C210114   1.442  13.656  10.990 -0.0747  0.0291 -0.0094
  633loPI    C310115   1.274  13.952  11.200 -0.1749 -0.1588  0.1787
  633loPI   PO410116   1.090  13.654  10.604  0.0128  0.1334 -0.0669
  633loPI   GL110117   0.939  13.474  10.158  0.1044  0.3357 -0.0564
  633loPI   GL210118   0.842  13.696  10.134  0.1176 -0.0612  0.0334
  633loPI   C1A10119   0.666  13.382   9.724  0.4033 -0.0147  0.0753
  633loPI   C2A10120   0.475  13.244   9.310 -0.3160 -0.1039 -0.2493
  633loPI   C3A10121   0.397  13.160   8.964 -0.0016 -0.0104  0.1098
  633loPI   C4A10122   0.399  13.035   8.524  0.0180  0.1554  0.1551
  633loPI   C5A10123   0.274  12.884   8.124 -0.0536  0.0602  0.0160
  633loPI   C6A10124   0.134  12.437   8.052 -0.1579  0.1335 -0.2771
  633loPI   C1B10125   0.828  13.933   9.814 -0.2784 -0.1496 -0.1391
  633loPI   C2B10126   0.760  13.966   9.353  0.2587  0.0040  0.2248
  633loPI   C3B10127   0.753  13.896   8.831  0.0090  0.0764 -0.0418
  633loPI   C4B10128   0.606  13.898   8.414  0.3135  0.3408  0.2115
  634loPI    C110129  10.116   0.835  10.578 -0.0182  0.1002 -0.1186
  634loPI    C210130  10.214   1.202  10.705  0.0468  0.0439 -0.0038
  634loPI    C310131  10.280   0.885  10.940 -0.0432 -0.0379 -0.0877
  634loPI   PO410132  10.118   0.802  10.272 -0.2034  0.1266 -0.0738
  634loPI   GL110133   9.955   0.831   9.819  0.0928 -0.0733  0.0352
  634loPI   GL210134  10.083   1.133   9.861 -0.3858  0.1580  0.0575
  634loPI   C1A10135   9.932   1.018   9.371  0.2859  0.1269 -0.0586
  634loPI   C2A10136   9.908   1.074   8.921 -0.0122  0.0395  0.1182
  634loPI   C3A10137   9.859   0.992   8.478  0.2176 -0.0731  0.5653
  634loPI   C4A10138  10.072   0.979   8.087  0.0005  0.1226 -0.2421
  634loPI   C5A10139  10.092   0.722   7.741  0.1242  0.2123 -0.2354
  634loPI   C6A10140  10.351   0.612   7.349 -0.0159  0.2437 -0.0178
  634loPI   C1B10141  10.098   1.442   9.669 -0.0146 -0.1505 -0.1186
  634loPI   C2B10142  10.164   1.492   9.207 -0.0710  0.2784  0.1233
  634loPI   C3B10143  10.096   1.583   8.784 -0.2117 -0.0867  0.1738
  634loPI   C4B10144  10.086   1.582   8.387 -0.2566  0.0993  0.0164
  635loPI    C110145  12.917   3.053   9.894 -0.1594  0.1183  0.0588
  635loPI    C210146  13.185   2.931  10.164 -0.1796 -0.1721 -0.0495
  635loPI    C310147  12.798   2.960  10.264 -0.1762 -0.2074 -0.0253
  635loPI   PO410148  13.069   3.194   9.724  0.1702 -0.3184 -0.2365
  635loPI   GL110149  13.193   3.352   9.353 -0.1984 -0.0071 -0.2359
  635loPI   GL210150  13.155   3.645   9.292 -0.0548  0.2404  0.0920
  635loPI   C1A10151  13.316   3.273   8.955  0.2861  0.1365  0.2627
  635loPI   C2A10152  13.320   2.847   8.687 -0.0145  0.1396 -0.1220
  635loPI   C3A10153  13.264   2.658   8.330 -0.0403 -0.0378  0.3913
  635loPI   C4A10154  13.065   2.602   7.982  0.0501 -0.1410  0.3963
  635loPI   C5A10155  13.141   2.413   7.501 -0.1085 -0.0520  0.1462
  635loPI   C6A10156  13.280   2.093   7.214 -0.2626  0.2309  0.2735
  635loPI   C1B10157  13.068   3.684   8.799  0.0994  0.0381 -0.2002
  635loPI   C2B10158  12.907   3.757   8.465 -0.1136 -0.1599 -0.0089
  635loPI   C3B10159  12.809   3.818   8.021  0.0784 -0.0241 -0.0371
  635loPI   C4B10160  12.542   3.873   7.683 -0.1494 -0.0053 -0.3961
  636loPI    C110161   9.104   6.316  10.443 -0.0602  0.0069 -0.2646
  636loPI    C210162   8.739   6.189  10.339 -0.1385 -0.0712  0.0906
  636loPI    C310163   8.784   6.544  10.519 -0.0550 -0.1204  0.1674
  636loPI   PO410164   9.331   6.228  10.204  0.1754 -0.6700 -0.0827
  636loPI   GL110165   9.249   6.432   9.870 -0.1263 -0.1130 -0.0452
  636loPI   GL210166   8.909   6.549  10.047  0.1446 -0.2280  0.2943
  636loPI   C1A10167   9.258   6.529   9.472  0.0761 -0.0623  0.0090
  636loPI   C2A10168   9.406   6.495   9.052 -0.0560 -0.0226 -0.2074
  636loPI   C3A10169   9.426   6.546   8.558 -0.2378 -0.1478 -0.1197
  636loPI   C4A10170   9.410   6.643   8.103 -0.0676 -0.0382  0.2474
  636loPI   C5A10171   9.184   6.426   7.869  0.1574 -0.2127 -0.0901
  636loPI   C6A10172   9.338   6.082   7.599  0.2511 -0.1730  0.1814
  636loPI   C1B10173   8.802   6.591   9.578  0.1052  0.0474 -0.0811
  636loPI   C2B10174   8.953   6.796   9.157  0.1938  0.1843 -0.2021
  636loPI   C3B10175   8.952   6.734   8.713 -0.0563  0.1912  0.1494
  636loPI   C4B10176   8.851   6.707   8.234 -0.0373  0.0529 -0.0261
  637loPI    C110177   1.786  16.102  10.623 -0.0669  0.1269 -0.0969
  637loPI    C210178   1.765  15.775  10.851 -0.0158  0.1249 -0.0949
  637loPI    C310179   2.083  16.016  10.877 -0.2025  0.3526  0.1435
  637loPI   PO410180   1.737  15.958  10.354 -0.0830 -0.0399  0.3049
  637loPI   GL110181   1.749  16.150   9.918 -0.1606  0.0523  0.2472
  637loPI   GL210182   1.576  16.540   9.930 -0.1035  0.3692  0.0217
  637loPI   C1A10183   1.941  15.940   9.527 -0.1689  0.3104 -0.0709
  637loPI   C2A10184   1.824  15.886   9.196  0.2347  0.1103 -0.0590
  637loPI   C3A10185   1.879  15.810   8.722 -0.2110 -0.0935  0.2212
  637loPI   C4A10186   1.774  15.491   8.441  0.1398  0.1047  0.1553
  637loPI   C5A10187   1.702  15.199   8.057  0.3782  0.1782 -0.0095
  637loPI   C6A10188   1.822  14.814   8.036 -0.1060 -0.2536 -0.1184
  637loPI   C1B10189   1.683  16.431   9.549  0.1384  0.1233 -0.0142
  637loPI   C2B10190   1.812  16.399   9.108 -0.0392 -0.0973  0.0480
  637loPI   C3B10191   1.749  16.283   8.641 -0.1572 -0.1270  0.1608
  637loPI   C4B10192   1.762  16.046   8.252  0.0570  0.2452 -0.2870
  638loPI    C110193   7.998   4.952  10.931  0.1756 -0.1359  0.0953
  638loPI    C210194   8.389   5.009  10.991  0.1943 -0.1768  0.0140
  638loPI    C310195   8.134   5.031  11.299  0.2762 -0.2823  0.0901
  638loPI   PO410196   8.049   4.704  10.705  0.0909 -0.1052  0.2342
  638loPI   GL110197   7.937   4.705  10.177 -0.0730 -0.1250 -0.0030
  638loPI   GL210198   8.078   4.468  10.077 -0.0749  0.0309  0.1172
  638loPI   C1A10199   8.281   5.005   9.917 -0.0985  0.2236  0.2853
  638loPI   C2A10200   8.353   5.094   9.534 -0.0670 -0.0047  0.1881
  638loPI   C3A10201   8.351   5.069   9.070  0.0860  0.0173 -0.0639
  638loPI   C4A10202   8.333   5.083   8.666 -0.1020  0.2435  0.2870
  638loPI   C5A10203   8.162   5.266   8.333 -0.2921 -0.2855  0.1659
  638loPI   C6A10204   8.159   5.554   8.116 -0.0470  0.0515 -0.0554
  638loPI   C1B10205   7.950   4.696   9.633  0.0284  0.3211 -0.1891
  638loPI   C2B10206   7.927   4.752   9.227 -0.2037  0.0764 -0.0618
  638loPI   C3B10207   7.936   4.830   8.824  0.0693 -0.1290 -0.1078
  638loPI   C4B10208   7.837   4.940   8.341  0.2504  0.3730  0.1228
  639loPI    C110209  11.307   7.150  10.429 -0.1446  0.0099  0.0004
  639loPI    C210210  11.266   6.835  10.186  0.0225  0.0332 -0.0599
  639loPI    C310211  11.384   6.782  10.564 -0.1394  0.0063 -0.0123
  639loPI   PO410212  11.331   7.323  10.154 -0.1066 -0.0939 -0.1331
  639loPI   GL110213  11.266   7.104   9.798 -0.0677 -0.1776 -0.0101
  639loPI   GL210214  11.577   6.945   9.730  0.2140  0.0165 -0.1227
  639loPI   C1A10215  11.107   7.332   9.411 -0.2046  0.0961 -0.1847
  639loPI   C2A10216  11.065   7.488   8.966  0.0625 -0.0285 -0.4331
  639loPI   C3A10217  10.993   7.502   8.507  0.1621  0.2988 -0.0787
  639loPI   C4A10218  10.872   7.396   8.122 -0.2052  0.1676 -0.1226
  639loPI   C5A10219  10.653   7.681   7.822  0.1063  0.2661 -0.1042
  639loPI   C6A10220  10.496   8.064   7.680  0.0586 -0.1191  0.2126
  639loPI   C1B10221  11.713   6.849   9.288 -0.2451 -0.0176 -0.3182
  639loPI   C2B10222  11.722   6.931   8.810 -0.0219 -0.0253  0.1618
  639loPI   C3B10223  11.920   7.106   8.350 -0.2617 -0.2847 -0.1836
  639loPI   C4B10224  11.790   6.915   7.939 -0.2561  0.0073 -0.3369
  640loPI    C110225  17.535   8.531  10.754  0.0979 -0.1491 -0.1352
  640loPI    C210226  17.399   8.181  10.892 -0.1370  0.0559  0.1686
  640loPI    C310227  17.630   8.411  11.123  0.2984 -0.0454 -0.1521
  640loPI   PO410228  17.684   8.508  10.518 -0.1126 -0.1485 -0.2221
  640loPI   GL110229  17.629   8.488  10.163  0.1320 -0.2195 -0.3283
  640loPI   GL210230  17.520   8.773  10.100  0.0712  0.1190  0.1963
  640loPI   C1A10231  17.846   8.521   9.765 -0.1505  0.0910 -0.0026
  640loPI   C2A10232  17.981   8.660   9.399 -0.0311  0.0070  0.1223
  640loPI   C3A10233  18.031   8.619   9.039  0.1007 -0.0975  0.1963
  640loPI   C4A10234  17.962   8.706   8.537 -0.0007 -0.0154  0.0211
  640loPI   C5A10235  17.966   9.006   8.159  0.0710 -0.1667  0.2943
  640loPI   C6A10236  18.323   9.046   7.785  0.0045 -0.2585 -0.1421
  640loPI   C1B10237  17.443   8.886   9.645  0.0661  0.0607  0.0590
  640loPI   C2B10238  17.550   8.819   9.203  0.2036  0.0306  0.1831
  640loPI   C3B10239  17.498   8.816   8.783  0.1147  0.4005 -0.0657
  640loPI   C4B10240  17.496   8.850   8.395  0.0559 -0.2116 -0.0763
  641loPI    C110241   7.698   8.713  10.954 -0.0153  0.1303 -0.0922
  641loPI    C210242   7.507   9.051  11.051 -0.1617 -0.0460  0.2501
  641loPI    C310243   7.770   8.890  11.305 -0.0026 -0.1274  0.0368
  641loPI   PO410244   7.693   8.627  10.718  0.1468  0.0540  0.0606
  641loPI   GL110245   7.837   8.824  10.300 -0.0681  0.1519  0.2709
  641loPI   GL210246   7.813   9.051  10.261  0.0647  0.2351  0.0796
  641loPI   C1A10247   7.875   8.785   9.835  0.0451 -0.2964  0.0256
  641loPI   C2A10248   8.022   8.793   9.419 -0.0489  0.1824 -0.0201
  641loPI   C3A10249   7.992   8.858   8.974  0.2423  0.2963 -0.1700
  641loPI   C4A10250   7.968   8.966   8.503  0.0387 -0.2096 -0.0105
  641loPI   C5A10251   8.036   9.388   8.145 -0.0233  0.0565 -0.2649
  641loPI   C6A10252   7.674   9.662   8.128  0.1077  0.0132  0.2144
  641loPI   C1B10253   7.835   9.262   9.919  0.0756  0.1835 -0.0869
  641loPI   C2B10254   7.951   9.347   9.505 -0.1356  0.0027  0.2362
  641loPI   C3B10255   7.862   9.407   9.073  0.0298  0.0269 -0.1594
  641loPI   C4B10256   7.894   9.480   8.628  0.2569 -0.0090 -0.0580
  642loPI    C110257  14.058   0.430  10.860 -0.1834 -0.2051 -0.0216
  642loPI    C210258  13.717   0.287  11.013 -0.1743  0.0614  0.2573
  642loPI    C310259  13.970   0.492  11.246  0.1152 -0.0198  0.0202
  642loPI   PO410260  14.094   0.495  10.657  0.0393  0.0571  0.3262
  642loPI   GL110261  14.065   0.533  10.228 -0.3299 -0.0610 -0.4938
  642loPI   GL210262  13.808   0.533  10.025 -0.1395  0.1752 -0.2448
  642loPI   C1A10263  14.258   0.401   9.841 -0.2426  0.2299  0.1062
  642loPI   C2A10264  14.243   0.361   9.389  0.0620  0.1323 -0.1863
  642loPI   C3A10265  14.137   0.401   8.885 -0.0259  0.0349  0.0072
  642loPI   C4A10266  14.331   0.439   8.566  0.2138  0.0588  0.0331
  642loPI   C5A10267  14.474   0.708   8.156  0.0932 -0.1231  0.1012
  642loPI   C6A10268  14.631   1.014   7.970  0.2701 -0.0722 -0.0229
  642loPI   C1B10269  13.806   0.557   9.585  0.1672 -0.1507  0.0151
  642loPI   C2B10270  13.736   0.589   9.174  0.0951  0.0367  0.2781
  642loPI   C3B10271  13.699   0.620   8.733 -0.1654 -0.1927  0.1862
  642loPI   C4B10272  13.468   0.624   8.415  0.0900  0.1295  0.1569
  643loPI    C110273   3.793   0.751  10.769  0.3631  0.4249 -0.0874
  643loPI    C210274   3.779   0.912  11.135 -0.0004 -0.0746  0.1316
  643loPI    C310275   3.455   0.918  10.901  0.0085 -0.3945  0.1069
  643loPI   PO410276   4.037   0.870  10.686  0.2608 -0.2178  0.0818
  643loPI   GL110277   3.955   0.886  10.294 -0.1367  0.0616 -0.2855
  643loPI   GL210278   4.190   0.855  10.070  0.1800  0.1031  0.1185
  643loPI   C1A10279   3.836   1.174   9.926  0.1784 -0.2533  0.1340
  643loPI   C2A10280   3.871   1.211   9.519  0.1458  0.1760 -0.0781
  643loPI   C3A10281   3.916   1.210   9.160  0.0579 -0.0779  0.2276
  643loPI   C4A10282   4.007   1.330   8.707  0.1601 -0.2373 -0.1429
  643loPI   C5A10283   4.233   1.302   8.322 -0.1210 -0.2374 -0.3353
  643loPI   C6A10284   4.537   1.442   8.133 -0.3454  0.1295  0.2578
  643loPI   C1B10285   4.166   0.854   9.634 -0.1668 -0.1647 -0.0771
  643loPI   C2B10286   4.260   0.819   9.251  0.1979  0.1273  0.0000
  643loPI   C3B10287   4.225   0.883   8.869 -0.1132  0.1506  0.1670
  643loPI   C4B10288   4.130   0.838   8.409 -0.3780 -0.0345  0.0919
  644loPI    C110289  11.588  16.083  10.973  0.0839  0.1855  0.1241
  644loPI    C210290  11.422  15.816  11.220  0.0782 -0.0048 -0.0821
  644loPI    C310291  11.659  16.103  11.366  0.0140 -0.0682  0.1514
  644loPI   PO410292  11.572  15.982  10.722 -0.0101  0.2381  0.2098
  644loPI   GL110293  11.633  16.004  10.288 -0.1912  0.0595 -0.3171
  644loPI   GL210294  11.909  15.837  10.421 -0.1347 -0.0234 -0.0510
  644loPI   C1A10295  11.506  15.986   9.934 -0.1760  0.0024  0.0146
  644loPI   C2A10296  11.479  15.881   9.542 -0.0089  0.1291 -0.0559
  644loPI   C3A10297  11.438  15.977   9.158  0.2447 -0.0245  0.1394
  644loPI   C4A10298  11.480  15.794   8.694 -0.1210  0.0328 -0.1909
  644loPI   C5A10299  11.679  15.970   8.328 -0.1340 -0.1320 -0.2405
  644loPI   C6A10300  12.010  16.248   8.434 -0.1977  0.0656  0.0327
  644loPI   C1B10301  12.007  15.921   9.993 -0.0027 -0.1065  0.1137
  644loPI   C2B10302  11.954  15.816   9.577 -0.1214  0.1191  0.0452
  644loPI   C3B10303  11.929  15.780   9.137 -0.0332 -0.1492  0.0023
  644loPI   C4B10304  11.988  15.710   8.696 -0.3329 -0.0744 -0.2245
  645loPI    C110305   4.891  15.957  10.609  0.1311 -0.2399  0.0651
  645loPI    C210306   5.155  15.993  10.907  0.0811 -0.1209  0.0955
  645loPI    C310307   4.886  16.281  10.842  0.1340 -0.1155 -0.1059
  645loPI   PO410308   5.053  15.904  10.388 -0.1796  0.2143 -0.1996
  645loPI   GL110309   5.073  16.138  10.056 -0.1140  0.0400 -0.2358
  645loPI   GL210310   4.979  15.744   9.939  0.0164 -0.0215 -0.1434
  645loPI   C1A10311   4.985  16.240   9.573 -0.2523 -0.0206  0.0012
  645loPI   C2A10312   5.067  16.211   9.160 -0.0668  0.3088  0.1856
  645loPI   C3A10313   5.132  16.120   8.726  0.1471 -0.1408  0.0403
  645loPI   C4A10314   5.375  16.153   8.368 -0.1785 -0.0498  0.0589
  645loPI   C5A10315   5.806  16.073   8.110 -0.0038 -0.4849  0.0223
  645loPI   C6A10316   6.125  16.399   8.050  0.0632 -0.2550 -0.0606
  645loPI   C1B10317   4.879  15.799   9.555  0.0878 -0.2030  0.3477
  645loPI   C2B10318   4.810  15.538   9.177 -0.0728  0.2855  0.4258
  645loPI   C3B10319   4.789  15.569   8.844  0.0972 -0.1124 -0.1866
  645loPI   C4B10320   4.542  15.636   8.573  0.1121  0.1665 -0.0870
  646loPI    C110321  18.311  14.230  10.493  0.0692  0.1118  0.0385
  646loPI    C210322  18.296  14.514  10.774 -0.2661  0.1308  0.0046
  646loPI    C310323  18.216  14.134  10.869 -0.1341  0.0976 -0.0154
  646loPI   PO410324  18.244  14.297  10.254 -0.3386  0.1736 -0.1660
  646loPI   GL110325  18.074  14.373   9.962  0.0889  0.2402 -0.0086
  646loPI   GL210326  18.020  14.680   9.982  0.0759 -0.0777  0.1052
  646loPI   C1A10327  18.104  14.358   9.619 -0.1002  0.0992 -0.2080
  646loPI   C2A10328  18.110  14.382   9.239 -0.0044 -0.0204  0.1637
  646loPI   C3A10329  18.082  14.300   8.899 -0.0042  0.0307  0.1656
  646loPI   C4A10330  17.945  14.239   8.530 -0.4351 -0.2053 -0.2225
  646loPI   C5A10331  17.967  14.376   8.077 -0.0247  0.1710 -0.0408
  646loPI   C6A10332  17.971  14.621   7.732 -0.0640 -0.2360  0.1430
  646loPI   C1B10333  18.085  14.902   9.579 -0.1215  0.1377 -0.2602
  646loPI   C2B10334  18.104  14.908   9.241  0.0130  0.2823 -0.3631
  646loPI   C3B10335  18.050  14.794   8.886  0.0047  0.0211  0.3108
  646loPI   C4B10336  17.892  14.726   8.432  0.0611 -0.1398 -0.1543
  647loPI    C110337   4.512  10.643  11.042  0.1083 -0.2451  0.2093
  647loPI    C210338   4.863  10.745  11.205  0.1581  0.0606 -0.0780
  647loPI    C310339   4.524  10.794  11.412  0.2676 -0.0843  0.1397
  647loPI   PO410340   4.552  10.621  10.718 -0.0528 -0.4354 -0.0972
  647loPI   GL110341   4.329  10.438  10.333 -0.0708 -0.0231  0.0164
  647loPI   GL210342   4.020  10.579  10.194 -0.5423  0.2101  0.0626
  647loPI   C1A10343   4.442  10.526   9.850  0.2629  0.0773  0.1571
  647loPI   C2A10344   4.528  10.561   9.403 -0.0434  0.0591 -0.0451
  647loPI   C3A10345   4.525  10.581   8.982  0.0633 -0.1886  0.2806
  647loPI   C4A10346   4.390  10.653   8.568 -0.2022  0.0159  0.0676
  647loPI   C5A10347   4.387  10.865   8.219  0.0552 -0.0336 -0.0394
  647loPI   C6A10348   4.659  11.018   8.009 -0.0491 -0.2637  0.0349
  647loPI   C1B10349   3.948  10.571   9.750  0.2897  0.3393  0.0357
  647loPI   C2B10350   3.996  10.660   9.221  0.2808 -0.0031 -0.3735
  647loPI   C3B10351   4.034  10.900   8.817 -0.0365 -0.3525 -0.0795
  647loPI   C4B10352   4.025  11.233   8.507 -0.1922 -0.1648  0.1422
  648loPI    C110353  16.422   4.069   9.913  0.0196 -0.2343 -0.0712
  648loPI    C210354  16.069   4.138  10.088  0.0792 -0.1528  0.0182
  648loPI    C310355  16.110   3.830   9.836 -0.0827 -0.1014 -0.0729
  648loPI   PO410356  16.472   4.242   9.761  0.1634  0.0486 -0.1322
  648loPI   GL110357  16.378   4.146   9.407 -0.6281 -0.1563 -0.0265
  648loPI   GL210358  16.762   4.148   9.293 -0.2660  0.1301 -0.2017
  648loPI   C1A10359  16.069   4.211   9.111 -0.1584  0.1389  0.0443
  648loPI   C2A10360  15.909   4.312   8.769  0.1210 -0.1962 -0.0679
  648loPI   C3A10361  15.998   4.367   8.373 -0.1224  0.1724 -0.0936
  648loPI   C4A10362  15.809   4.347   7.970 -0.1815  0.1004 -0.0431
  648loPI   C5A10363  15.790   3.971   7.725 -0.4124  0.3533  0.1159
  648loPI   C6A10364  16.042   3.583   7.701  0.1406  0.0620 -0.0548
  648loPI   C1B10365  16.530   4.048   8.902  0.1129  0.1210 -0.1196
  648loPI   C2B10366  16.366   4.033   8.485 -0.1390  0.2010  0.2597
  648loPI   C3B10367  16.273   4.031   8.039 -0.1763  0.2255 -0.2132
  648loPI   C4B10368  16.334   3.981   7.593  0.1072  0.1171  0.2169
  649loPI    C110369   4.565   8.611  11.188 -0.0331  0.0259 -0.0212
  649loPI    C210370   4.537   8.944  11.408  0.1508  0.0754 -0.0710
  649loPI    C310371   4.652   8.601  11.578  0.1722  0.0860 -0.0641
  649loPI   PO410372   4.745   8.772  10.913 -0.0642 -0.0971 -0.0043
  649loPI   GL110373   4.815   8.849  10.462  0.0613  0.1136 -0.4737
  649loPI   GL210374   4.732   8.603  10.304 -0.1356 -0.1906 -0.1912
  649loPI   C1A10375   4.960   9.163  10.058  0.2385  0.3836 -0.1941
  649loPI   C2A10376   5.071   9.343   9.642 -0.0483 -0.1960 -0.1662
  649loPI   C3A10377   5.118   9.453   9.191 -0.1092  0.1910  0.0199
  649loPI   C4A10378   5.010   9.496   8.683 -0.0361 -0.0650  0.1510
  649loPI   C5A10379   4.879   9.375   8.350  0.0381  0.1716  0.3162
  649loPI   C6A10380   4.659   9.144   8.021 -0.2256 -0.0122  0.2246
  649loPI   C1B10381   4.942   8.587   9.998  0.0948 -0.1953  0.1245
  649loPI   C2B10382   5.158   8.848   9.602 -0.3591  0.1626 -0.0415
  649loPI   C3B10383   5.172   8.919   9.188  0.1745  0.4125 -0.2311
  649loPI   C4B10384   5.255   9.097   8.840 -0.0243 -0.0038  0.2616
  650loPI    C110385   5.107  14.329  10.933  0.0903 -0.1062 -0.2840
  650loPI    C210386   5.114  14.687  10.755 -0.2416  0.0414 -0.0103
  650loPI    C310387   5.319  14.628  11.094  0.0907 -0.1324 -0.2359
  650loPI   PO410388   4.999  14.017  10.690 -0.1969  0.1097  0.1639
  650loPI   GL110389   5.066  13.849  10.285 -0.1490  0.1228 -0.0161
  650loPI   GL210390   5.430  13.981  10.319  0.0318  0.0406 -0.2140
  650loPI   C1A10391   5.361  13.671   9.924  0.0113  0.1812 -0.0622
  650loPI   C2A10392   5.484  13.750   9.467  0.0551  0.2437 -0.2056
  650loPI   C3A10393   5.523  13.653   8.948 -0.1487  0.0192  0.0692
  650loPI   C4A10394   5.708  13.721   8.455  0.1419 -0.1648  0.0237
  650loPI   C5A10395   5.753  14.081   8.345 -0.2844 -0.2435 -0.0677
  650loPI   C6A10396   5.923  14.395   8.106  0.1144 -0.3277  0.2942
  650loPI   C1B10397   5.589  14.305   9.974  0.2649 -0.1689  0.1068
  650loPI   C2B10398   5.846  14.207   9.708  0.1399 -0.1097 -0.1357
  650loPI   C3B10399   6.000  14.111   9.313  0.1608 -0.0546  0.1117
  650loPI   C4B10400   5.927  14.007   8.898 -0.1029  0.1718 -0.1598
  651loPI    C110401  15.098  10.693  10.163  0.1506  0.0616  0.0527
  651loPI    C210402  14.708  10.756  10.100  0.1877  0.1237 -0.1209
  651loPI    C310403  14.832  10.598  10.446  0.0343  0.3754  0.0524
  651loPI   PO410404  15.257  10.545   9.995  0.0614  0.0387  0.0635
  651loPI   GL110405  15.045  10.511   9.579  0.1415 -0.0497 -0.2347
  651loPI   GL210406  15.000  10.206   9.675  0.1164  0.0014  0.0834
  651loPI   C1A10407  14.891  10.738   9.187  0.1058 -0.0409 -0.1041
  651loPI   C2A10408  14.914  10.744   8.660 -0.0283 -0.2940  0.1185
  651loPI   C3A10409  14.561  10.517   8.460  0.1232  0.2039 -0.2592
  651loPI   C4A10410  14.452  10.350   8.010  0.1347 -0.4466 -0.7848
  651loPI   C5A10411  14.543  10.322   7.549  0.0286  0.1528 -0.0577
  651loPI   C6A10412  14.874  10.131   7.381 -0.1136  0.1689 -0.3249
  651loPI   C1B10413  14.950  10.223   9.169 -0.1604  0.2394 -0.3136
  651loPI   C2B10414  14.938  10.231   8.690 -0.3712 -0.0460 -0.1116
  651loPI   C3B10415  14.964  10.298   8.272  0.0504  0.1450 -0.2269
  651loPI   C4B10416  14.920  10.211   7.869 -0.1813  0.1042  0.3127
  652loPI    C110417   4.097  16.170  10.396  0.0299  0.1463  0.0010
  652loPI    C210418   4.378  16.253  10.669  0.0124  0.3193 -0.0327
  652loPI    C310419   4.224  16.546  10.444  0.0814  0.1671 -0.2825
  652loPI   PO410420   4.100  16.059  10.268 -0.0977  0.0304 -0.0056
  652loPI   GL110421   3.745  15.944  10.047  0.4426 -0.1722 -0.3069
  652loPI   GL210422   3.769  15.618   9.964  0.0607  0.0263 -0.2762
  652loPI   C1A10423   3.702  16.126   9.613 -0.3222  0.0661 -0.1971
  652loPI   C2A10424   3.667  16.270   9.313 -0.1144  0.0888  0.1928
  652loPI   C3A10425   3.655  16.288   8.919 -0.2990 -0.1168  0.1328
  652loPI   C4A10426   3.727  16.183   8.508  0.1124 -0.0645  0.0805
  652loPI   C5A10427   3.603  16.145   7.946  0.0324 -0.0201  0.0864
  652loPI   C6A10428   3.483  16.401   7.638 -0.0629  0.1745  0.0102
  652loPI   C1B10429   3.746  15.631   9.537  0.1470  0.2499 -0.0667
  652loPI   C2B10430   3.628  15.732   9.228 -0.2180  0.2899  0.2172
  652loPI   C3B10431   3.693  15.722   8.733 -0.1846  0.2492  0.1076
  652loPI   C4B10432   3.596  15.695   8.266 -0.0293 -0.3009 -0.0268
  653loPI    C110433   8.126   1.481  10.800  0.2982  0.1685 -0.0720
  653loPI    C210434   8.459   1.265  10.850  0.1056 -0.0829  0.1487
  653loPI    C310435   8.127   1.173  11.055 -0.1322  0.0991 -0.1468
  653loPI   PO410436   8.103   1.411  10.563  0.3800 -0.0494 -0.0497
  653loPI   GL110437   7.949   1.157  10.283 -0.0542 -0.3064  0.0395
  653loPI   GL210438   7.631   1.115  10.151  0.1247 -0.1607 -0.1158
  653loPI   C1A10439   8.059   1.307   9.875 -0.2677 -0.2315 -0.2957
  653loPI   C2A10440   8.106   1.233   9.422  0.2112  0.0436 -0.0570
  653loPI   C3A10441   8.115   1.166   9.012  0.1743  0.4214  0.4386
  653loPI   C4A10442   8.113   1.182   8.672 -0.0930  0.1679 -0.2445
  653loPI   C5A10443   8.003   1.035   8.300 -0.1532 -0.0430 -0.0836
  653loPI   C6A10444   7.887   1.067   7.888 -0.1086  0.0671  0.1348
  653loPI   C1B10445   7.626   1.095   9.660  0.0123 -0.1967 -0.0246
  653loPI   C2B10446   7.611   1.152   9.240  0.1537 -0.1937 -0.0296
  653loPI   C3B10447   7.574   1.052   8.884  0.0640  0.1076  0.1997
  653loPI   C4B10448   7.564   1.052   8.493  0.0305  0.1858 -0.2577
  654loPI    C110449  11.567  11.967  10.897 -0.1717  0.0164  0.0598
  654loPI    C210450  11.476  12.354  10.934 -0.0137  0.0559  0.0418
  654loPI    C310451  11.340  12.090  11.202  0.0055  0.1457  0.1408
  654loPI   PO410452  11.523  11.981  10.618 -0.1161  0.1637 -0.3985
  654loPI   GL110453  11.242  11.928  10.260  0.2161 -0.0356  0.0731
  654loPI   GL210454  11.380  11.562  10.288 -0.0810  0.1877 -0.0134
  654loPI   C1A10455  11.133  12.221   9.966  0.0645 -0.1305 -0.0323
  654loPI   C2A10456  11.075  12.251   9.568 -0.1682 -0.0501 -0.1083
  654loPI   C3A10457  11.102  12.201   9.166 -0.3959 -0.0998 -0.0605
  654loPI   C4A10458  11.068  12.263   8.646 -0.1061  0.1806  0.1672
  654loPI   C5A10459  10.981  12.165   8.214 -0.0212  0.1556  0.2792
  654loPI   C6A10460  10.915  11.796   7.932  0.2189  0.3486 -0.0014
  654loPI   C1B10461  11.561  11.485   9.928  0.0046  0.1056 -0.0126
  654loPI   C2B10462  11.611  11.588   9.404  0.0138 -0.0022 -0.2860
  654loPI   C3B10463  11.687  11.502   8.956 -0.0139  0.2663 -0.0541
  654loPI   C4B10464  11.597  11.482   8.480 -0.0758 -0.0347 -0.0970
  655loPI    C110465   1.586   8.418  11.078 -0.1133  0.1602  0.1403
  655loPI    C210466   1.835   8.229  11.328 -0.0579  0.1175  0.0535
  655loPI    C310467   1.801   8.627  11.343  0.1096  0.1350 -0.0181
  655loPI   PO410468   1.590   8.291  10.868 -0.0684  0.0852  0.1042
  655loPI   GL110469   1.501   8.338  10.534  0.1569 -0.1015  0.1561
  655loPI   GL210470   1.344   8.360  10.295  0.1056 -0.1342  0.1647
  655loPI   C1A10471   1.732   8.081  10.128 -0.2071  0.0494 -0.0087
  655loPI   C2A10472   1.812   8.054   9.630 -0.0358 -0.0329  0.0703
  655loPI   C3A10473   1.943   8.188   9.248 -0.0456  0.0580  0.3075
  655loPI   C4A10474   1.950   8.164   8.786 -0.0166  0.2371 -0.0677
  655loPI   C5A10475   2.004   8.128   8.422  0.0992  0.3112  0.2974
  655loPI   C6A10476   1.977   8.485   8.217 -0.1789  0.3638  0.1553
  655loPI   C1B10477   1.518   8.433   9.851 -0.0567 -0.2254  0.0244
  655loPI   C2B10478   1.624   8.530   9.439  0.1825  0.0852  0.0669
  655loPI   C3B10479   1.634   8.565   9.061  0.0569  0.0785 -0.0929
  655loPI   C4B10480   1.707   8.577   8.598 -0.0689  0.0862  0.0912
  656loPI    C110481   3.007   9.916  10.738 -0.0271  0.1922 -0.1175
  656loPI    C210482   2.868  10.089  11.071  0.2161  0.0553  0.0596
  656loPI    C310483   3.262  10.055  11.014  0.1734 -0.1955 -0.1002
  656loPI   PO410484   2.835   9.956  10.573  0.0576  0.0122  0.0293
  656loPI   GL110485   2.988  10.224  10.246  0.0653  0.0003 -0.1192
  656loPI   GL210486   3.203   9.945  10.208 -0.0375 -0.0153 -0.2458
  656loPI   C1A10487   2.944  10.395   9.847 -0.0604 -0.3450 -0.1583
  656loPI   C2A10488   2.920  10.620   9.476 -0.0955  0.1285 -0.3086
  656loPI   C3A10489   3.062  10.555   9.086  0.0174 -0.0694  0.2177
  656loPI   C4A10490   3.078  10.660   8.699 -0.0586  0.0209 -0.2143
  656loPI   C5A10491   3.353  10.729   8.315 -0.4753  0.0210 -0.2738
  656loPI   C6A10492   3.352  10.703   7.787 -0.1556 -0.0191  0.0220
  656loPI   C1B10493   3.209   9.991   9.824 -0.2289  0.3012 -0.1611
  656loPI   C2B10494   3.232  10.056   9.399 -0.0945  0.1930 -0.1056
  656loPI   C3B10495   3.189  10.061   8.976 -0.1099  0.0892  0.2680
  656loPI   C4B10496   3.230  10.210   8.550 -0.0594 -0.0216  0.4175
  657loPI    C110497  16.675  16.405  10.512  0.1465 -0.1974 -0.0488
  657loPI    C210498  16.431  16.090  10.539 -0.2015  0.0910  0.2732
  657loPI    C310499  16.729  16.135  10.802 -0.0269 -0.0674  0.1061
  657loPI   PO410500  16.761  16.500  10.287  0.3202  0.1275 -0.3428
  657loPI   GL110501  16.955  16.292   9.980  0.0469 -0.2440  0.3646
  657loPI   GL210502  16.832  16.066  10.032 -0.1380 -0.0774  0.2214
  657loPI   C1A10503  16.851  16.311   9.596  0.0002  0.1167 -0.2222
  657loPI   C2A10504  16.924  16.200   9.279 -0.2635 -0.0718  0.2210
  657loPI   C3A10505  16.870  16.132   8.857 -0.0821 -0.1307 -0.0034
  657loPI   C4A10506  16.696  16.233   8.412 -0.2908  0.3126  0.0648
  657loPI   C5A10507  16.801  16.414   7.986  0.2385  0.1311 -0.3280
  657loPI   C6A10508  17.080  16.374   7.567 -0.1001 -0.0001 -0.1537
  657loPI   C1B10509  16.509  15.890   9.748  0.1071 -0.0484 -0.2134
  657loPI   C2B10510  16.529  15.951   9.414  0.0798  0.1462  0.2432
  657loPI   C3B10511  16.471  15.799   8.995  0.1359 -0.2207  0.0880
  657loPI   C4B10512  16.439  15.871   8.602  0.2396 -0.3417 -0.3392
  658loPI    C110513  18.166  17.907  10.349 -0.1407 -0.0530 -0.1234
  658loPI    C210514  18.114  18.035  10.725 -0.2437 -0.1034 -0.1199
  658loPI    C310515  18.080  18.291  10.420 -0.0487 -0.0384 -0.0890
  658loPI   PO410516  18.023  17.642  10.314 -0.2844  0.0802 -0.0443
  658loPI   GL110517  18.132  17.510   9.982 -0.0214 -0.1404 -0.2346
  658loPI   GL210518  18.040  17.163   9.963  0.4059 -0.3366 -0.0601
  658loPI   C1A10519  17.996  17.435   9.518  0.1298 -0.1918  0.0940
  658loPI   C2A10520  17.962  17.275   9.160  0.2374  0.0647  0.0648
  658loPI   C3A10521  18.194  17.170   8.768 -0.1411  0.2752 -0.2835
  658loPI   C4A10522  18.167  17.141   8.387  0.2728 -0.2710  0.1151
  658loPI   C5A10523  17.819  17.258   8.295 -0.2652  0.1522 -0.1552
  658loPI   C6A10524  17.577  16.879   8.334  0.0033 -0.3667  0.0668
  658loPI   C1B10525  18.159  16.956   9.617 -0.1866  0.0719  0.2373
  658loPI   C2B10526  18.213  16.835   9.241 -0.0099  0.2540  0.2389
  658loPI   C3B10527  18.205  16.610   9.005  0.2674  0.1691 -0.0027
  658loPI   C4B10528  18.122  16.681   8.618  0.4588  0.1766 -0.3074
  659loPI    C110529   2.081  11.290  10.987 -0.0039 -0.0115  0.0022
  659loPI    C210530   2.061  10.914  11.123  0.0448  0.0145  0.0821
  659loPI    C310531   1.908  11.214  11.339 -0.0202  0.0375  0.0049
  659loPI   PO410532   1.999  11.279  10.798 -0.0002 -0.4610 -0.0367
  659loPI   GL110533   1.747  11.475  10.452  0.0585 -0.1684  0.0884
  659loPI   GL210534   1.521  11.298  10.319 -0.0898 -0.1543 -0.0920
  659loPI   C1A10535   1.941  11.621  10.074 -0.1542  0.1711 -0.0328
  659loPI   C2A10536   1.806  11.685   9.709 -0.4212  0.3943  0.0802
  659loPI   C3A10537   1.846  11.824   9.261  0.2193 -0.0642 -0.2028
  659loPI   C4A10538   1.930  12.096   9.060 -0.0235 -0.0629  0.1172
  659loPI   C5A10539   2.320  12.208   8.863 -0.0534 -0.1868  0.0843
  659loPI   C6A10540   2.624  12.279   8.512  0.0475  0.2383 -0.2591
  659loPI   C1B10541   1.701  11.218   9.937  0.1059 -0.1288  0.1152
  659loPI   C2B10542   1.630  11.215   9.512 -0.1317 -0.1085 -0.1368
  659loPI   C3B10543   1.555  11.133   9.054 -0.1407 -0.1631 -0.0880
  659loPI   C4B10544   1.499  11.185   8.587 -0.1607  0.1974 -0.0949
  660loPI    C110545  12.261   8.151  10.488 -0.1190 -0.1585 -0.0795
  660loPI    C210546  12.618   8.169  10.667 -0.0126  0.1658 -0.3161
  660loPI    C310547  12.294   8.309  10.854  0.0308  0.1332 -0.2160
  660loPI   PO410548  12.306   8.266  10.269 -0.1934  0.0040 -0.2129
  660loPI   GL110549  12.278   8.368   9.892  0.0786 -0.1543  0.1022
  660loPI   GL210550  12.081   8.624   9.961  0.1008 -0.0792 -0.0684
  660loPI   C1A10551  12.244   8.503   9.410 -0.0931  0.1476  0.0465
  660loPI   C2A10552  12.123   8.485   8.964  0.2026 -0.4579 -0.2197
  660loPI   C3A10553  12.118   8.542   8.589 -0.2829 -0.2171  0.1955
  660loPI   C4A10554  12.095   8.502   8.237 -0.0738  0.0693  0.2860
  660loPI   C5A10555  11.814   8.432   7.855 -0.4157  0.0414 -0.0558
  660loPI   C6A10556  11.489   8.494   7.726  0.1308  0.0068  0.1976
  660loPI   C1B10557  11.726   8.632   9.628  0.2960  0.1139  0.1477
  660loPI   C2B10558  11.692   8.717   9.205  0.0501  0.0488 -0.3575
  660loPI   C3B10559  11.657   8.654   8.637 -0.1313  0.0324 -0.3502
  660loPI   C4B10560  11.627   8.723   8.216  0.2406 -0.0443  0.1054
  661loPI    C110561   3.978  14.522  10.461  0.2750 -0.2174  0.0298
  661loPI    C210562   4.298  14.760  10.433  0.2008 -0.1112  0.0794
  661loPI    C310563   4.051  14.720  10.121  0.0512  0.1091  0.1673
  661loPI   PO410564   4.119  14.269  10.469  0.0586  0.2408 -0.0587
  661loPI   GL110565   4.564  14.094  10.224 -0.0703 -0.0109  0.1785
  661loPI   GL210566   4.409  14.326  10.067  0.2854 -0.0804  0.1129
  661loPI   C1A10567   4.478  13.958   9.744  0.0541 -0.0783 -0.0244
  661loPI   C2A10568   4.834  14.007   9.426  0.1854  0.3694  0.2534
  661loPI   C3A10569   5.041  13.785   9.117  0.3128 -0.0400  0.1824
  661loPI   C4A10570   5.146  13.362   8.851  0.0280 -0.3154  0.1847
  661loPI   C5A10571   5.411  13.266   8.452  0.1228 -0.1922  0.1835
  661loPI   C6A10572   5.774  13.241   8.283  0.0699  0.1115 -0.0614
  661loPI   C1B10573   4.689  14.393   9.800  0.0554 -0.2174  0.4261
  661loPI   C2B10574   4.846  14.540   9.453  0.0839  0.2700 -0.6386
  661loPI   C3B10575   5.062  14.384   9.129  0.0274  0.0268  0.0037
  661loPI   C4B10576   5.111  14.508   8.704 -0.0934  0.2364  0.0700
  662loPI    C110577  17.230   2.460   9.929 -0.1906  0.0898 -0.1274
  662loPI    C210578  17.231   2.648  10.282  0.0139  0.1177 -0.1410
  662loPI    C310579  17.520   2.387  10.194 -0.2179 -0.1379 -0.1589
  662loPI   PO410580  17.264   2.677   9.777  0.3104 -0.1013 -0.0608
  662loPI   GL110581  17.293   2.626   9.408  0.1469  0.3335  0.0036
  662loPI   GL210582  17.133   2.340   9.399  0.1137  0.0130 -0.0301
  662loPI   C1A10583  17.499   2.843   9.121 -0.0896 -0.0679  0.0989
  662loPI   C2A10584  17.582   2.771   8.692  0.1278 -0.2012  0.1624
  662loPI   C3A10585  17.462   3.137   8.389  0.1673 -0.3530  0.5250
  662loPI   C4A10586  17.676   3.178   7.938  0.0766  0.0419 -0.1173
  662loPI   C5A10587  18.070   3.261   7.751 -0.1035 -0.0076 -0.0332
  662loPI   C6A10588  18.295   3.582   7.585  0.1918 -0.2103 -0.3343
  662loPI   C1B10589  17.117   2.343   9.042  0.2385  0.1098  0.1733
  662loPI   C2B10590  17.405   2.344   8.733  0.0482 -0.0009  0.0402
  662loPI   C3B10591  17.554   2.273   8.348  0.1258  0.0790  0.0186
  662loPI   C4B10592  17.661   2.676   8.167 -0.2790 -0.0832 -0.1317
  663loPI    C110593  14.172  14.175  10.958  0.2455 -0.0180 -0.0058
  663loPI    C210594  13.988  14.530  10.955 -0.0296 -0.1583 -0.1962
  663loPI    C310595  13.943  14.284  11.267  0.1757 -0.0214 -0.0561
  663loPI   PO410596  14.174  14.160  10.640 -0.1198  0.1695  0.2358
  663loPI   GL110597  14.250  14.026  10.214  0.1235 -0.0267 -0.0526
  663loPI   GL210598  14.476  14.299  10.233 -0.0087 -0.2190  0.2283
  663loPI   C1A10599  14.020  13.912   9.873 -0.0769  0.0190  0.1791
  663loPI   C2A10600  14.012  13.991   9.451 -0.0425  0.1831  0.0303
  663loPI   C3A10601  13.936  14.058   9.028  0.1215 -0.1203 -0.1011
  663loPI   C4A10602  13.808  13.997   8.640  0.2596  0.2387  0.0489
  663loPI   C5A10603  13.634  14.027   8.190  0.1190 -0.0198 -0.0728
  663loPI   C6A10604  13.558  14.143   7.800  0.3439 -0.4964  0.1699
  663loPI   C1B10605  14.396  14.231   9.761 -0.0702 -0.2201 -0.1412
  663loPI   C2B10606  14.399  14.417   9.319 -0.0885  0.0045  0.0516
  663loPI   C3B10607  14.345  14.349   8.940  0.1368  0.0660  0.3602
  663loPI   C4B10608  14.365  14.413   8.500 -0.1573  0.0928 -0.2251
  664loPI    C110609   6.668  12.644  10.820 -0.2465  0.0494 -0.1581
  664loPI    C210610   6.940  12.938  10.816 -0.0150 -0.1613 -0.1634
  664loPI    C310611   6.585  12.995  10.992  0.0830  0.0721 -0.0378
  664loPI   PO410612   6.541  12.496  10.548  0.1727  0.1283  0.1548
  664loPI   GL110613   6.406  12.158  10.396  0.0377 -0.2078 -0.0947
  664loPI   GL210614   6.298  12.293  10.103 -0.3287  0.1387  0.0568
  664loPI   C1A10615   6.468  11.795  10.007  0.1128  0.1398  0.0110
  664loPI   C2A10616   6.557  11.728   9.604 -0.1303  0.1478 -0.1030
  664loPI   C3A10617   6.579  11.723   9.132  0.0811 -0.2314 -0.1923
  664loPI   C4A10618   6.588  11.817   8.668 -0.0284 -0.1022 -0.0472
  664loPI   C5A10619   6.598  11.588   8.266  0.0552 -0.1407  0.0088
  664loPI   C6A10620   6.615  11.385   7.862 -0.0943  0.2190  0.3748
  664loPI   C1B10621   6.444  12.214   9.693  0.2084  0.0605  0.1164
  664loPI   C2B10622   6.475  12.205   9.286 -0.0143 -0.0827  0.0611
  664loPI   C3B10623   6.549  12.250   8.843 -0.1507 -0.0336  0.0216
  664loPI   C4B10624   6.533  12.506   8.474 -0.3964  0.1837  0.1677
  665loPI    C110625  11.001  15.133  11.030 -0.2147  0.0136 -0.1094
  665loPI    C210626  11.140  14.825  11.243 -0.0568  0.0100 -0.2149
  665loPI    C310627  11.099  15.185  11.414 -0.2932 -0.0798 -0.0765
  665loPI   PO410628  10.939  14.969  10.777 -0.1218  0.1070  0.0415
  665loPI   GL110629  10.778  14.962  10.379 -0.2618 -0.0877  0.0036
  665loPI   GL210630  11.069  15.226  10.236 -0.0374 -0.0977 -0.1777
  665loPI   C1A10631  10.700  14.803  10.009 -0.3399 -0.3138 -0.0280
  665loPI   C2A10632  10.734  14.783   9.562 -0.0858 -0.0075 -0.2096
  665loPI   C3A10633  10.729  14.856   9.209  0.0856  0.1005 -0.0520
  665loPI   C4A10634  10.621  14.812   8.716  0.1496 -0.0492 -0.1202
  665loPI   C5A10635  10.741  14.845   8.338 -0.1466 -0.2296  0.0814
  665loPI   C6A10636  10.795  14.893   7.872  0.1239 -0.3284 -0.1570
  665loPI   C1B10637  11.049  15.117   9.827 -0.0225  0.1825  0.1029
  665loPI   C2B10638  11.149  15.107   9.405  0.0370  0.1016 -0.1913
  665loPI   C3B10639  11.111  15.064   8.992 -0.0681  0.0366 -0.1441
  665loPI   C4B10640  11.148  15.116   8.543  0.1880 -0.1246  0.2459
  666loPI    C110641   6.042   0.190  10.456  0.0880 -0.1391 -0.0431
  666loPI    C210642   5.911   0.113  10.826  0.1466 -0.2817 -0.0513
  666loPI    C310643   5.661   0.084  10.515  0.0448  0.0350 -0.0028
  666loPI   PO410644   6.214   0.063  10.351  0.1639  0.3769 -0.1035
  666loPI   GL110645   6.228   0.013   9.956 -0.4693  0.2441 -0.1978
  666loPI   GL210646   5.977   0.296   9.971  0.1481 -0.1473 -0.0144
  666loPI   C1A10647   6.251  -0.089   9.555 -0.2722 -0.1610  0.2150
  666loPI   C2A10648   6.287  -0.090   9.177  0.1217 -0.0414 -0.1491
  666loPI   C3A10649   6.283  -0.161   8.865 -0.4241 -0.1142  0.0235
  666loPI   C4A10650   6.333  -0.140   8.462 -0.0210 -0.0379  0.1591
  666loPI   C5A10651   6.536  -0.356   8.059 -0.1839  0.5075 -0.1039
  666loPI   C6A10652   6.809  -0.590   8.115 -0.0860  0.2518  0.1159
  666loPI   C1B10653   5.935   0.340   9.551 -0.1143 -0.1064 -0.1813
  666loPI   C2B10654   5.977   0.291   9.076 -0.0309 -0.1040  0.0235
  666loPI   C3B10655   5.916   0.266   8.703  0.1262  0.2198  0.0628
  666loPI   C4B10656   5.957   0.196   8.294  0.0070 -0.0381 -0.2214
  667loPI    C110657  11.050   6.345  10.700  0.2707  0.2992 -0.5180
  667loPI    C210658  11.342   6.077  10.754  0.0232  0.0973 -0.1436
  667loPI    C310659  11.315   6.394  10.996 -0.0812  0.1020 -0.1610
  667loPI   PO410660  11.077   6.399  10.457 -0.2485  0.1239 -0.2214
  667loPI   GL110661  11.002   6.338  10.004 -0.0565  0.4596 -0.1863
  667loPI   GL210662  11.031   6.568   9.879 -0.0345 -0.1806 -0.0562
  667loPI   C1A10663  10.712   6.381   9.543  0.1562  0.3475  0.1657
  667loPI   C2A10664  10.714   6.512   9.114 -0.2758 -0.3955  0.0872
  667loPI   C3A10665  10.783   6.698   8.675 -0.1266  0.0330 -0.1268
  667loPI   C4A10666  10.816   6.436   8.385  0.1533 -0.1892  0.0289
  667loPI   C5A10667  11.121   6.401   8.111 -0.0052 -0.1191 -0.3197
  667loPI   C6A10668  11.318   6.158   7.862  0.2415  0.0376 -0.2109
  667loPI   C1B10669  11.114   6.745   9.463 -0.2331  0.0555  0.0032
  667loPI   C2B10670  11.186   6.960   9.108 -0.1843 -0.1838  0.2564
  667loPI   C3B10671  11.183   7.040   8.631 -0.1909 -0.2408 -0.0435
  667loPI   C4B10672  11.042   6.998   8.259 -0.2569  0.2441  0.3125
  668loPI    C110673   4.226   6.484  10.639 -0.0519  0.0360 -0.2399
  668loPI    C210674   3.923   6.264  10.498  0.1510 -0.3033 -0.1583
  668loPI    C310675   4.022   6.243  10.885 -0.0900  0.2518 -0.0577
  668loPI   PO410676   4.400   6.551  10.456  0.1825 -0.0159 -0.0347
  668loPI   GL110677   4.567   6.832  10.128 -0.0227  0.0072  0.0616
  668loPI   GL210678   4.509   6.584  10.002  0.0509 -0.3566  0.3018
  668loPI   C1A10679   4.705   7.076   9.836 -0.2497  0.1570  0.3213
  668loPI   C2A10680   4.781   7.161   9.445  0.0842  0.2350 -0.3833
  668loPI   C3A10681   5.024   7.123   9.108 -0.0631 -0.0396  0.1074
  668loPI   C4A10682   5.103   7.102   8.694  0.0277 -0.0004 -0.1265
  668loPI   C5A10683   4.827   7.254   8.281 -0.2582  0.1130 -0.0036
  668loPI   C6A10684   4.671   7.623   8.203  0.3000  0.0642  0.1066
  668loPI   C1B10685   4.600   6.618   9.603  0.0969  0.0899  0.2842
  668loPI   C2B10686   4.629   6.607   9.168 -0.2043  0.0719  0.2258
  668loPI   C3B10687   4.892   6.649   8.834 -0.4934 -0.0023  0.2513
  668loPI   C4B10688   5.158   6.687   8.298  0.1448  0.0957  0.0814
  669loPI    C110689  13.596   0.624  10.465 -0.1934  0.2143  0.1447
  669loPI    C210690  13.329   0.579  10.760  0.0010 -0.1870  0.2658
  669loPI    C310691  13.658   0.799  10.820 -0.3214  0.3611  0.0961
  669loPI   PO410692  13.647   0.323  10.472 -0.2057 -0.4032 -0.2383
  669loPI   GL110693  13.565   0.017  10.247 -0.0605  0.2637 -0.0973
  669loPI   GL210694  13.974  -0.017  10.190 -0.0270 -0.4851 -0.0910
  669loPI   C1A10695  13.366  -0.115   9.853  0.2730 -0.0241  0.1685
  669loPI   C2A10696  13.385  -0.261   9.476 -0.3994 -0.1235  0.0366
  669loPI   C3A10697  13.404  -0.202   9.043 -0.0834  0.0130  0.0528
  669loPI   C4A10698  13.403  -0.256   8.666 -0.1878  0.1508 -0.1683
  669loPI   C5A10699  13.296  -0.281   8.278  0.3887 -0.1204  0.1349
  669loPI   C6A10700  13.048  -0.657   8.070  0.0986 -0.1168 -0.0032
  669loPI   C1B10701  13.786   0.109   9.758  0.1635  0.0534  0.1322
  669loPI   C2B10702  13.767   0.096   9.323  0.0224  0.1675  0.3749
  669loPI   C3B10703  13.831   0.031   8.876  0.1701  0.0903  0.0337
  669loPI   C4B10704  13.769   0.158   8.495  0.2757 -0.0905  0.0709
  670loPI    C110705   6.732  17.961  10.898  0.0584  0.0219 -0.0545
  670loPI    C210706   7.095  18.064  11.028  0.0175 -0.0405  0.1119
  670loPI    C310707   6.976  17.683  11.049 -0.0815 -0.0095  0.1180
  670loPI   PO410708   6.772  18.164  10.641 -0.0519  0.0256  0.1012
  670loPI   GL110709   6.829  18.182  10.217 -0.3683 -0.1547  0.0831
  670loPI   GL210710   6.718  18.403  10.127 -0.0486 -0.3158  0.2047
  670loPI   C1A10711   7.065  18.065   9.930  0.2989 -0.4108  0.0500
  670loPI   C2A10712   7.000  17.901   9.495  0.0942  0.0693  0.2748
  670loPI   C3A10713   7.058  17.810   9.000 -0.0667  0.0261  0.0014
  670loPI   C4A10714   7.113  17.907   8.573  0.0847  0.1828  0.2441
  670loPI   C5A10715   7.221  18.070   8.173  0.1442  0.1338 -0.1990
  670loPI   C6A10716   7.244  18.543   8.034  0.0612 -0.0462  0.2630
  670loPI   C1B10717   6.699  18.374   9.643  0.0745 -0.1310 -0.3880
  670loPI   C2B10718   6.780  18.241   9.178 -0.0535  0.2127 -0.0157
  670loPI   C3B10719   6.790  18.236   8.712  0.0108  0.0624 -0.1038
  670loPI   C4B10720   6.824  18.367   8.240  0.0740  0.0462 -0.2852
  671loPI    C110721  16.543  10.804  11.034 -0.3175 -0.0540 -0.1815
  671loPI    C210722  16.235  10.983  10.853 -0.1402  0.3065 -0.1360
  671loPI    C310723  16.290  11.030  11.246 -0.0826  0.1630 -0.1266
  671loPI   PO410724  16.721  10.885  10.847 -0.2412 -0.0962  0.3804
  671loPI   GL110725  16.784  10.672  10.395 -0.4734  0.0110 -0.0117
  671loPI   GL210726  16.803  10.347  10.426  0.2726 -0.2315 -0.0124
  671loPI   C1A10727  16.706  10.928  10.061  0.0642  0.0077 -0.1762
  671loPI   C2A10728  16.498  11.127   9.639 -0.3392  0.0986  0.2370
  671loPI   C3A10729  16.276  11.220   9.315 -0.2111 -0.0366 -0.1651
  671loPI   C4A10730  15.878  11.275   9.277  0.1647 -0.0850 -0.0659
  671loPI   C5A10731  15.738  11.316   8.882  0.0381  0.4497  0.0595
  671loPI   C6A10732  15.658  11.395   8.453 -0.0567  0.0397 -0.0767
  671loPI   C1B10733  16.839  10.383   9.917  0.0893 -0.1255  0.1718
  671loPI   C2B10734  16.883  10.098   9.644  0.2711  0.1157 -0.0288
  671loPI   C3B10735  16.857   9.978   9.173 -0.1420  0.0438 -0.0836
  671loPI   C4B10736  16.777   9.989   8.735 -0.1126 -0.0984 -0.0145
  672loPI    C110737  12.592  15.176  11.240 -0.1084 -0.1414  0.1325
  672loPI    C210738  12.337  15.483  11.209 -0.1626 -0.2050 -0.0699
  672loPI    C310739  12.319  15.240  11.525 -0.0758  0.0375  0.1250
  672loPI   PO410740  12.549  15.154  10.937 -0.1878  0.0706 -0.0440
  672loPI   GL110741  12.778  15.176  10.559 -0.1124 -0.1092 -0.1835
  672loPI   GL210742  13.084  15.381  10.621 -0.1439  0.3344  0.0121
  672loPI   C1A10743  12.575  15.104  10.097 -0.2788 -0.1808  0.1632
  672loPI   C2A10744  12.492  15.153   9.721  0.3661 -0.0889 -0.0307
  672loPI   C3A10745  12.515  15.017   9.286 -0.1362 -0.0151 -0.0942
  672loPI   C4A10746  12.387  15.000   8.896  0.2239 -0.1031 -0.1782
  672loPI   C5A10747  12.593  14.953   8.504  0.1315 -0.0761 -0.5256
  672loPI   C6A10748  12.797  14.629   8.294 -0.1571  0.0246 -0.1032
  672loPI   C1B10749  13.039  15.418  10.165  0.2369  0.1608 -0.1247
  672loPI   C2B10750  12.968  15.385   9.741 -0.2013 -0.0065  0.0105
  672loPI   C3B10751  12.890  15.511   9.328  0.0623  0.1392 -0.0924
  672loPI   C4B10752  12.857  15.313   8.956  0.1897  0.3155 -0.0675
  673loPI    C110753   0.859   3.502  10.617 -0.0340  0.4036 -0.0967
  673loPI    C210754   1.207   3.643  10.755  0.0148  0.2824 -0.0943
  673loPI    C310755   0.886   3.633  10.994  0.1051  0.0508  0.0201
  673loPI   PO410756   0.953   3.484  10.325  0.1379  0.0537  0.0990
  673loPI   GL110757   1.226   3.551   9.922  0.1316  0.0918 -0.1278
  673loPI   GL210758   0.969   3.387   9.840  0.1338  0.2458 -0.2389
  673loPI   C1A10759   1.432   3.445   9.485  0.1398  0.2497 -0.1396
  673loPI   C2A10760   1.438   3.548   9.128 -0.2123  0.0282 -0.0102
  673loPI   C3A10761   1.525   3.533   8.626 -0.1254 -0.0911  0.1988
  673loPI   C4A10762   1.302   3.695   8.261 -0.3223  0.3947 -0.0937
  673loPI   C5A10763   1.084   4.058   8.038 -0.1352 -0.0180  0.1886
  673loPI   C6A10764   1.152   4.294   7.693  0.2370 -0.0413  0.2449
  673loPI   C1B10765   0.951   3.438   9.427  0.1782 -0.1489  0.0480
  673loPI   C2B10766   0.888   3.521   9.032 -0.3653  0.2609  0.0576
  673loPI   C3B10767   1.061   3.371   8.654  0.1470 -0.2667  0.0801
  673loPI   C4B10768   1.352   3.131   8.404  0.1947 -0.0887 -0.0349
  674loPI    C110769  12.138  10.962  10.864 -0.0263  0.0550  0.0926
  674loPI    C210770  11.763  11.061  10.765 -0.0347  0.0068  0.0759
  674loPI    C310771  11.924  11.200  11.104 -0.0706  0.0203  0.0874
  674loPI   PO410772  12.229  11.048  10.607 -0.2672  0.1450  0.1230
  674loPI   GL110773  12.078  10.988  10.235  0.0329 -0.2478 -0.0179
  674loPI   GL210774  12.221  10.722  10.137 -0.1124 -0.2522  0.0916
  674loPI   C1A10775  12.080  11.321  10.010 -0.1573 -0.1232  0.0615
  674loPI   C2A10776  12.056  11.345   9.646  0.1131  0.0785 -0.0036
  674loPI   C3A10777  12.107  11.343   9.214  0.0775 -0.0446  0.1603
  674loPI   C4A10778  12.187  11.359   8.743  0.2155 -0.2577  0.3320
  674loPI   C5A10779  12.128  11.348   8.285 -0.0202  0.0531 -0.0485
  674loPI   C6A10780  12.210  11.364   7.841 -0.0425  0.2731 -0.1324
  674loPI   C1B10781  12.109  10.839   9.775 -0.3497 -0.1467  0.0711
  674loPI   C2B10782  12.204  10.897   9.460 -0.0268  0.0073  0.2484
  674loPI   C3B10783  12.158  10.827   9.042  0.1636  0.5644 -0.0162
  674loPI   C4B10784  12.160  10.839   8.638  0.1250 -0.0975 -0.2443
  675loPI    C110785   6.487   1.188  11.110  0.1240  0.3251 -0.0603
  675loPI    C210786   6.144   1.120  11.305  0.1379  0.0467 -0.1291
  675loPI    C310787   6.460   1.268  11.501  0.0612  0.0472 -0.0054
  675loPI   PO410788   6.454   1.364  10.893  0.1335  0.0431  0.1234
  675loPI   GL110789   6.366   1.300  10.485 -0.0341 -0.0795  0.5083
  675loPI   GL210790   6.665   1.311  10.390  0.0025  0.0795 -0.1040
  675loPI   C1A10791   6.232   1.271  10.117 -0.1598 -0.1269 -0.4019
  675loPI   C2A10792   6.246   1.289   9.664  0.2377  0.0537  0.1024
  675loPI   C3A10793   6.222   1.262   9.287 -0.0811  0.0935  0.1191
  675loPI   C4A10794   6.255   1.258   8.881  0.0149  0.1768  0.0586
  675loPI   C5A10795   6.310   1.226   8.449  0.4821 -0.1407 -0.1844
  675loPI   C6A10796   6.609   1.460   8.175  0.0532  0.0073  0.0174
  675loPI   C1B10797   6.744   1.412   9.938  0.4861  0.1126 -0.1747
  675loPI   C2B10798   6.828   1.360   9.503 -0.2703 -0.2418  0.2736
  675loPI   C3B10799   6.795   1.316   9.037  0.1532 -0.2034 -0.0233
  675loPI   C4B10800   6.742   1.355   8.678  0.1440 -0.1506 -0.0521
  676loPI    C110801  15.685  17.847  10.582  0.1106 -0.1461 -0.0599
  676loPI    C210802  15.721  17.792  10.977 -0.2023  0.2879  0.0361
  676loPI    C310803  15.989  18.016  10.780  0.1264 -0.1745 -0.0598
  676loPI   PO410804  15.374  17.794  10.577  0.1616  0.1664  0.0652
  676loPI   GL110805  15.326  17.512  10.189 -0.0342 -0.5148 -0.0895
  676loPI   GL210806  15.514  17.322   9.965  0.0589  0.0328 -0.0480
  676loPI   C1A10807  15.203  17.818   9.904  0.1169  0.2897 -0.0102
  676loPI   C2A10808  15.208  17.884   9.538 -0.1353 -0.0644  0.0677
  676loPI   C3A10809  15.165  17.855   9.189  0.2834  0.0541  0.0337
  676loPI   C4A10810  15.239  17.820   8.764  0.1338 -0.0326  0.0661
  676loPI   C5A10811  15.278  17.659   8.332  0.0883  0.1830  0.0635
  676loPI   C6A10812  15.377  17.411   7.968  0.0587 -0.1691 -0.0683
  676loPI   C1B10813  15.324  17.353   9.562  0.1359  0.5516 -0.2193
  676loPI   C2B10814  15.280  17.377   9.082 -0.2403  0.2333  0.1782
  676loPI   C3B10815  15.276  17.281   8.673 -0.0242  0.4880  0.1809
  676loPI   C4B10816  15.082  17.127   8.196  0.1648 -0.0979  0.0658
  677PSPI    C110817  11.808   3.942   5.169 -0.0204 -0.0943 -0.0549
  677PSPI    C210818  11.488   3.848   4.948 -0.0910  0.1764 -0.0707
  677PSPI    C310819  11.808   4.016   4.776 -0.0899  0.2555  0.0076
  677PSPI   PO410820  11.802   3.685   5.389 -0.0659  0.1108  0.2576
  677PSPI   GL110821  12.021   3.579   5.753  0.1460 -0.2075 -0.0310
  677PSPI   GL210822  11.759   3.725   5.961  0.0022  0.2649 -0.0035
  677PSPI   C1A10823  12.148   3.549   6.244  0.0934 -0.0198 -0.0730
  677PSPI   C2A10824  12.185   3.584   6.678 -0.3179 -0.0185 -0.0327
  677PSPI   C3A10825  12.283   3.642   7.139 -0.0925 -0.1164  0.1356
  677PSPI   C4A10826  12.148   3.650   7.533 -0.1646  0.2387  0.0214
  677PSPI   C1B10827  11.667   3.701   6.342  0.0300 -0.2708 -0.2911
  677PSPI   C2B10828  11.740   3.668   6.861 -0.2337 -0.3518 -0.1718
  677PSPI   C3B10829  11.827   3.412   7.070  0.0498 -0.1704 -0.0215
  677PSPI   C4B10830  12.120   3.207   6.938  0.1467 -0.0628 -0.2587
  678PSPI    C110831  14.538   0.836   5.565  0.0134  0.1641  0.1152
  678PSPI    C210832  14.578   1.179   5.363  0.2147 -0.0842 -0.2795
  678PSPI    C310833  14.849   0.888   5.320  0.0584 -0.2882  0.0670
  678PSPI   PO410834  14.480   0.900   5.790 -0.1344 -0.1279 -0.1321
  678PSPI   GL110835  14.496   0.820   6.204 -0.0243 -0.2271 -0.2480
  678PSPI   GL210836  14.629   1.121   6.230  0.3859  0.1534 -0.2147
  678PSPI   C1A10837  14.273   0.942   6.544 -0.0432  0.1291 -0.2944
  678PSPI   C2A10838  14.211   1.037   7.079  0.3053 -0.3994  0.0370
  678PSPI   C3A10839  14.090   1.097   7.547 -0.0413 -0.2758 -0.0206
  678PSPI   C4A10840  14.050   1.019   8.013  0.0082  0.2030  0.0916
  678PSPI   C1B10841  14.485   1.340   6.426  0.1629 -0.2677 -0.0745
  678PSPI   C2B10842  14.409   1.513   6.853  0.0799  0.1069 -0.0885
  678PSPI   C3B10843  14.394   1.583   7.354  0.1916  0.0914  0.0950
  678PSPI   C4B10844  14.768   1.509   7.618  0.1214 -0.2105 -0.1378
  679PSPI    C110845  15.895   1.907   5.388 -0.2625 -0.1706  0.1937
  679PSPI    C210846  15.811   2.191   5.118  0.2749 -0.0781  0.1129
  679PSPI    C310847  15.900   1.820   4.997 -0.3023 -0.2581  0.2125
  679PSPI   PO410848  16.026   2.075   5.601 -0.0710 -0.0231  0.2713
  679PSPI   GL110849  16.036   2.021   6.015  0.1611 -0.0789 -0.3120
  679PSPI   GL210850  16.364   2.020   6.064 -0.0426  0.1210  0.0359
  679PSPI   C1A10851  15.919   2.020   6.498 -0.0669  0.2642  0.1081
  679PSPI   C2A10852  16.020   2.163   6.876  0.0314 -0.0797 -0.1717
  679PSPI   C3A10853  16.048   2.326   7.294  0.0167  0.2966  0.0524
  679PSPI   C4A10854  15.880   2.329   7.713  0.2067  0.0267  0.2031
  679PSPI   C1B10855  16.391   2.314   6.474  0.3049  0.3468 -0.0663
  679PSPI   C2B10856  16.455   2.509   6.895 -0.2098  0.2536 -0.0360
  679PSPI   C3B10857  16.855   2.584   7.125  0.2316 -0.0394 -0.1018
  679PSPI   C4B10858  17.241   2.668   7.248  0.1077  0.1764  0.2677
  680PSPI    C110859   3.275  13.701   6.427 -0.2395  0.2321 -0.1865
  680PSPI    C210860   3.221  13.731   6.032  0.0678 -0.3794 -0.2868
  680PSPI    C310861   3.355  13.389   6.190  0.0918 -0.0952  0.3362
  680PSPI   PO410862   3.419  13.871   6.503 -0.2958 -0.0514 -0.0701
  680PSPI   GL110863   3.789  13.729   6.805 -0.0479 -0.1289 -0.0427
  680PSPI   GL210864   3.562  13.502   6.864  0.1528 -0.0544  0.3379
  680PSPI   C1A10865   3.969  13.832   7.188 -0.0547  0.0515  0.0093
  680PSPI   C2A10866   3.880  13.830   7.638 -0.0865  0.0829 -0.0905
  680PSPI   C3A10867   3.662  13.892   7.862 -0.0844 -0.1529  0.0691
  680PSPI   C4A10868   3.691  13.898   8.297 -0.1430  0.3166  0.4628
  680PSPI   C1B10869   3.509  13.234   7.091 -0.2730  0.1505 -0.2072
  680PSPI   C2B10870   3.458  12.964   7.503  0.2485  0.0447  0.2730
  680PSPI   C3B10871   3.611  12.893   7.896 -0.2698  0.0564  0.0441
  680PSPI   C4B10872   3.649  12.517   8.116 -0.1410 -0.1400  0.2024
  681PSPI    C110873   4.213   5.506   5.756  0.0172 -0.0323  0.0266
  681PSPI    C210874   4.010   5.849   5.788 -0.1534 -0.1340  0.0453
  681PSPI    C310875   3.965   5.619   5.463  0.2538  0.0472 -0.1462
  681PSPI   PO410876   4.162   5.451   6.067 -0.0672 -0.2325  0.0960
  681PSPI   GL110877   4.007   5.502   6.429  0.1052 -0.0038 -0.2818
  681PSPI   GL210878   3.829   5.781   6.322 -0.2740 -0.2252 -0.0256
  681PSPI   C1A10879   4.072   5.486   6.829 -0.1735 -0.0802  0.1378
  681PSPI   C2A10880   4.315   5.324   7.088  0.1298  0.0640 -0.0171
  681PSPI   C3A10881   4.691   5.244   7.199  0.0266  0.0266 -0.1372
  681PSPI   C4A10882   4.826   5.019   7.524  0.0982 -0.0476  0.1748
  681PSPI   C1B10883   3.572   5.903   6.706  0.0788 -0.1326 -0.2669
  681PSPI   C2B10884   3.513   6.039   7.103  0.2178 -0.0578 -0.0908
  681PSPI   C3B10885   3.427   6.052   7.413  0.1732  0.2949  0.0292
  681PSPI   C4B10886   3.388   6.067   7.866  0.0491 -0.1825 -0.0206
  682PSPI    C110887  15.055   9.513   5.210  0.0977  0.0445 -0.0198
  682PSPI    C210888  14.770   9.742   5.048 -0.0289  0.0179  0.1618
  682PSPI    C310889  15.049   9.574   4.815 -0.1618  0.0427 -0.0173
  682PSPI   PO410890  14.999   9.338   5.308 -0.0013 -0.1965  0.0993
  682PSPI   GL110891  14.907   9.174   5.805 -0.1755 -0.0998  0.1451
  682PSPI   GL210892  14.767   9.432   5.937  0.1680  0.1690  0.0057
  682PSPI   C1A10893  14.849   9.007   6.188  0.2760 -0.0643 -0.0907
  682PSPI   C2A10894  14.901   8.992   6.573 -0.0573  0.1650  0.2339
  682PSPI   C3A10895  14.829   8.888   7.009 -0.1856  0.0490 -0.0610
  682PSPI   C4A10896  14.634   8.904   7.415  0.1637  0.0875  0.2177
  682PSPI   C1B10897  14.590   9.363   6.331  0.1455  0.3023 -0.2267
  682PSPI   C2B10898  14.603   9.307   6.744 -0.1501 -0.1483 -0.0665
  682PSPI   C3B10899  14.328   9.363   7.021  0.0679  0.2111 -0.0661
  682PSPI   C4B10900  14.283   9.300   7.508 -0.2923  0.0462 -0.0400
  683PSPI    C110901  16.980   5.395   5.376 -0.1825  0.1201 -0.0433
  683PSPI    C210902  17.223   5.707   5.435  0.0195 -0.0760  0.1854
  683PSPI    C310903  17.264   5.481   5.107  0.0365 -0.0105  0.1422
  683PSPI   PO410904  16.941   5.344   5.653 -0.0650  0.3605 -0.3267
  683PSPI   GL110905  16.933   5.637   5.994  0.0661  0.0177  0.0944
  683PSPI   GL210906  16.758   5.617   6.189 -0.1892 -0.0225  0.0056
  683PSPI   C1A10907  16.898   6.121   6.085 -0.1929  0.1411  0.3115
  683PSPI   C2A10908  16.653   6.268   6.409  0.0528  0.1312  0.2092
  683PSPI   C3A10909  16.624   6.298   6.772 -0.0033 -0.3706  0.2269
  683PSPI   C4A10910  16.620   6.198   7.257 -0.2043  0.1960 -0.1663
  683PSPI   C1B10911  16.861   5.805   6.582 -0.2620 -0.1438 -0.0571
  683PSPI   C2B10912  16.858   5.781   7.044 -0.2201 -0.0917  0.1426
  683PSPI   C3B10913  16.877   5.484   7.377  0.0807 -0.1639  0.1061
  683PSPI   C4B10914  17.218   5.250   7.536 -0.3356 -0.1337  0.3633
  684PSPI    C110915  10.225   2.046   5.488 -0.2315  0.1507 -0.0400
  684PSPI    C210916  10.157   1.937   5.109  0.1639  0.2685 -0.1490
  684PSPI    C310917  10.071   2.308   5.228 -0.0538  0.2018 -0.0954
  684PSPI   PO410918  10.542   1.979   5.542 -0.0579  0.0145 -0.0730
  684PSPI   GL110919  10.768   1.815   5.970  0.0222 -0.1525  0.0515
  684PSPI   GL210920  11.094   1.900   5.880  0.0782 -0.2545 -0.0524
  684PSPI   C1A10921  10.680   2.082   6.245 -0.1535 -0.1580 -0.0225
  684PSPI   C2A10922  10.610   2.177   6.750 -0.0307 -0.1393 -0.2335
  684PSPI   C3A10923  10.666   1.940   7.183 -0.1128  0.4497  0.1316
  684PSPI   C4A10924  10.771   1.755   7.587  0.2129 -0.0367  0.1667
  684PSPI   C1B10925  11.165   1.818   6.282 -0.1733 -0.2360  0.0765
  684PSPI   C2B10926  11.054   2.073   6.687 -0.0286  0.2274 -0.1632
  684PSPI   C3B10927  11.124   2.233   7.084  0.3788 -0.0189  0.0240
  684PSPI   C4B10928  11.365   2.515   7.295 -0.0489  0.0251  0.0207
  685PSPI    C110929   8.913  10.454   5.384 -0.0311  0.2612  0.1183
  685PSPI    C210930   8.636  10.248   5.182  0.1904 -0.1467  0.2180
  685PSPI    C310931   8.585  10.639   5.250 -0.1608 -0.1280 -0.1190
  685PSPI   PO410932   8.968  10.279   5.602 -0.0898 -0.0731  0.2857
  685PSPI   GL110933   9.106  10.205   6.026 -0.2221 -0.0470 -0.1305
  685PSPI   GL210934   8.776  10.235   6.141 -0.0504  0.0059 -0.1589
  685PSPI   C1A10935   9.140  10.252   6.485 -0.0053 -0.2066  0.2475
  685PSPI   C2A10936   9.157  10.231   6.965  0.0300 -0.1074 -0.1288
  685PSPI   C3A10937   9.134  10.180   7.390 -0.0598 -0.0847 -0.0104
  685PSPI   C4A10938   9.182  10.377   7.755 -0.0941 -0.2203  0.1032
  685PSPI   C1B10939   8.630  10.215   6.585 -0.0233 -0.0649  0.1858
  685PSPI   C2B10940   8.657  10.077   7.068 -0.0381  0.0841  0.1088
  685PSPI   C3B10941   8.637  10.099   7.466  0.3250 -0.0619  0.2588
  685PSPI   C4B10942   8.658  10.474   7.702  0.3286 -0.2303  0.0573
  686PSPI    C110943   6.074   6.595   5.893 -0.1220 -0.1345 -0.2698
  686PSPI    C210944   5.716   6.736   5.999  0.0489  0.0086  0.1381
  686PSPI    C310945   5.978   6.975   5.816 -0.1028 -0.1305 -0.2740
  686PSPI   PO410946   5.990   6.367   6.061  0.0919 -0.2201 -0.1172
  686PSPI   GL110947   6.055   6.057   6.334  0.1917 -0.0557  0.2282
  686PSPI   GL210948   6.128   5.686   6.378 -0.0758  0.1330 -0.0340
  686PSPI   C1A10949   6.009   6.001   6.846  0.1608  0.3233  0.2429
  686PSPI   C2A10950   6.105   6.259   7.236  0.1663 -0.2357  0.0753
  686PSPI   C3A10951   6.276   6.220   7.606  0.1168 -0.0155 -0.2346
  686PSPI   C4A10952   6.292   6.187   8.104 -0.1846  0.1069  0.2339
  686PSPI   C1B10953   6.347   5.612   6.697 -0.0436 -0.1109  0.3123
  686PSPI   C2B10954   6.417   5.750   7.081  0.3168  0.0255  0.0311
  686PSPI   C3B10955   6.492   5.782   7.480 -0.1632  0.0890  0.3376
  686PSPI   C4B10956   6.529   5.779   7.905  0.2426  0.0566 -0.1428
  687PSPI    C110957  13.530  13.379   5.722  0.0648  0.0943 -0.0152
  687PSPI    C210958  13.517  13.275   5.336  0.1792  0.1288 -0.0289
  687PSPI    C310959  13.419  13.647   5.446  0.3782  0.1892 -0.0531
  687PSPI   PO410960  13.770  13.261   5.794 -0.0656  0.1921 -0.2668
  687PSPI   GL110961  14.124  13.306   6.043 -0.1656 -0.1035  0.2455
  687PSPI   GL210962  14.280  13.552   5.936  0.2015 -0.1887 -0.2398
  687PSPI   C1A10963  13.842  13.133   6.460 -0.0334 -0.2986 -0.1520
  687PSPI   C2A10964  13.781  13.090   6.929  0.0129  0.1392 -0.0180
  687PSPI   C3A10965  14.052  12.880   7.355  0.3140  0.1935  0.3154
  687PSPI   C4A10966  14.377  12.624   7.560 -0.2043 -0.1767 -0.0198
  687PSPI   C1B10967  14.161  13.718   6.358 -0.1915 -0.1203 -0.1000
  687PSPI   C2B10968  13.973  13.536   6.754 -0.1626  0.0936  0.0219
  687PSPI   C3B10969  13.737  13.603   7.093  0.2991  0.2104 -0.0182
  687PSPI   C4B10970  13.779  13.822   7.477  0.1777 -0.0002 -0.3066
  688PSPI    C110971   7.788  16.219   5.965 -0.0425  0.0909  0.0150
  688PSPI    C210972   8.008  16.383   5.674  0.1148 -0.1458 -0.0026
  688PSPI    C310973   7.618  16.316   5.616  0.0531  0.1959 -0.0029
  688PSPI   PO410974   7.977  16.194   6.189 -0.1721  0.0059  0.0454
  688PSPI   GL110975   8.289  15.920   6.374 -0.0126 -0.0984 -0.0049
  688PSPI   GL210976   8.246  15.612   6.447 -0.3305 -0.1607  0.1733
  688PSPI   C1A10977   8.667  16.055   6.517 -0.0620 -0.2899 -0.0355
  688PSPI   C2A10978   8.864  16.442   6.434  0.3390 -0.0230  0.1800
  688PSPI   C3A10979   9.172  16.561   6.293 -0.0817  0.1031 -0.1060
  688PSPI   C4A10980   9.473  16.885   6.353 -0.0086 -0.3693 -0.1163
  688PSPI   C1B10981   8.151  15.836   6.812 -0.0019  0.0963  0.2354
  688PSPI   C2B10982   8.144  15.781   7.334 -0.2375 -0.1455  0.1277
  688PSPI   C3B10983   8.375  15.865   7.741 -0.1660  0.0460  0.3687
  688PSPI   C4B10984   8.595  15.746   8.086 -0.0821 -0.1508  0.4178
  689PSPI    C110985  12.856   7.976   5.264  0.1140  0.1600  0.1229
  689PSPI    C210986  12.986   8.354   5.246  0.0946  0.1632  0.0478
  689PSPI    C310987  12.806   8.189   4.929 -0.1015  0.1650  0.1567
  689PSPI   PO410988  12.633   7.989   5.475  0.2525 -0.0760 -0.0992
  689PSPI   GL110989  12.501   8.071   5.856 -0.2085 -0.0561  0.2451
  689PSPI   GL210990  12.557   7.737   5.857 -0.0837  0.2826 -0.1217
  689PSPI   C1A10991  12.770   8.102   6.160  0.3991 -0.0205 -0.0786
  689PSPI   C2A10992  13.039   8.124   6.531  0.0235 -0.1194 -0.0356
  689PSPI   C3A10993  13.115   7.756   6.828  0.3603 -0.3742  0.0135
  689PSPI   C4A10994  13.481   8.044   6.959 -0.5056  0.2683 -0.1615
  689PSPI   C1B10995  12.675   7.526   6.234 -0.2689  0.1304  0.3453
  689PSPI   C2B10996  12.675   7.692   6.615  0.0290  0.3682 -0.0612
  689PSPI   C3B10997  12.708   7.546   7.100 -0.0230 -0.3658  0.2538
  689PSPI   C4B10998  12.700   7.824   7.458  0.3745 -0.0167 -0.0642
  690PSPI    C110999   5.401   7.470   5.640 -0.1878  0.0372 -0.0068
  690PSPI    C211000   5.410   7.090   5.765 -0.2058  0.0540  0.0463
  690PSPI    C311001   5.247   7.181   5.411 -0.1169  0.0008 -0.0088
  690PSPI   PO411002   5.348   7.604   6.012 -0.0403  0.1999 -0.1361
  690PSPI   GL111003   5.318   7.628   6.460  0.0462 -0.2760  0.3044
  690PSPI   GL211004   5.282   7.315   6.641  0.0200  0.0901 -0.0785
  690PSPI   C1A11005   5.332   7.940   6.815 -0.0491 -0.0159  0.0879
  690PSPI   C2A11006   5.361   7.969   7.210 -0.0212 -0.0083 -0.0375
  690PSPI   C3A11007   5.599   8.105   7.597  0.0472 -0.1174  0.2515
  690PSPI   C4A11008   5.587   8.345   7.911 -0.2629 -0.0243 -0.0417
  690PSPI   C1B11009   4.917   7.464   6.903 -0.0454  0.1019 -0.0117
  690PSPI   C2B11010   4.805   7.415   7.302  0.1111  0.3963 -0.0260
  690PSPI   C3B11011   4.971   7.299   7.752  0.1356 -0.0408  0.0204
  690PSPI   C4B11012   4.994   7.004   7.925  0.1829  0.2166  0.2382
  691PSPI    C111013  18.312   7.748   5.386  0.2048 -0.1786 -0.3674
  691PSPI    C211014  18.011   7.491   5.329 -0.0088 -0.0238  0.0260
  691PSPI    C311015  18.177   7.676   5.016 -0.1439 -0.3090 -0.2194
  691PSPI   PO411016  18.231   7.869   5.554  0.0735  0.2554 -0.0259
  691PSPI   GL111017  17.940   7.589   5.834  0.0531  0.0315  0.2437
  691PSPI   GL211018  18.182   7.741   6.059 -0.2385 -0.0985  0.2028
  691PSPI   C1A11019  17.664   7.215   5.988 -0.2151  0.3033  0.1151
  691PSPI   C2A11020  17.274   7.048   6.102 -0.3183  0.0128 -0.1179
  691PSPI   C3A11021  16.846   7.042   6.066  0.1134  0.4432  0.2551
  691PSPI   C4A11022  16.730   6.855   5.695  0.4098 -0.0877 -0.1198
  691PSPI   C1B11023  17.902   7.638   6.326  0.0152  0.0980 -0.2098
  691PSPI   C2B11024  17.800   7.497   6.638  0.1313  0.1660  0.0580
  691PSPI   C3B11025  17.581   7.532   6.933 -0.3462 -0.0739 -0.0629
  691PSPI   C4B11026  17.673   7.704   7.419  0.1913 -0.0089 -0.0393
  692PSPI    C111027  14.759  15.062   5.569 -0.0109 -0.0726  0.0187
  692PSPI    C211028  14.750  14.756   5.311 -0.1429  0.0025 -0.0670
  692PSPI    C311029  15.091  14.853   5.495 -0.0578 -0.0781 -0.1816
  692PSPI   PO411030  14.564  15.017   5.799 -0.0438 -0.1202 -0.0381
  692PSPI   GL111031  14.689  14.828   6.279 -0.0541 -0.0348  0.0151
  692PSPI   GL211032  14.518  15.047   6.315 -0.0900 -0.3346  0.1092
  692PSPI   C1A11033  15.024  14.599   6.495  0.1653  0.1311  0.0687
  692PSPI   C2A11034  15.355  14.655   6.758 -0.3780  0.1874 -0.3399
  692PSPI   C3A11035  15.282  14.670   7.224 -0.0171 -0.1401 -0.1001
  692PSPI   C4A11036  15.282  14.782   7.630  0.2424 -0.2340  0.3237
  692PSPI   C1B11037  14.390  15.320   6.597 -0.0364  0.0548 -0.1236
  692PSPI   C2B11038  14.446  15.291   7.020  0.0722  0.4174  0.1127
  692PSPI   C3B11039  14.270  14.866   7.107 -0.1281 -0.2446 -0.0387
  692PSPI   C4B11040  14.355  14.566   7.404  0.1968 -0.2549 -0.1307
  693PSPI    C111041   8.927   5.011   5.236  0.0111 -0.0035 -0.0742
  693PSPI    C211042   9.028   4.643   5.116 -0.2505 -0.2189  0.3426
  693PSPI    C311043   8.657   4.780   5.053 -0.1060  0.0443  0.0364
  693PSPI   PO411044   9.077   4.964   5.564 -0.0139 -0.2301 -0.0499
  693PSPI   GL111045   8.983   5.069   5.979  0.3587 -0.1677  0.1590
  693PSPI   GL211046   8.860   4.800   6.006 -0.0613 -0.2373  0.0134
  693PSPI   C1A11047   9.047   4.967   6.445 -0.0629  0.0028  0.1331
  693PSPI   C2A11048   9.104   4.996   6.893  0.1539 -0.0095 -0.0143
  693PSPI   C3A11049   8.889   5.256   7.138  0.1031 -0.0090 -0.0050
  693PSPI   C4A11050   8.634   5.590   7.215  0.0473  0.2783  0.0654
  693PSPI   C1B11051   9.183   4.531   6.112  0.3385 -0.0115 -0.0769
  693PSPI   C2B11052   9.042   4.099   6.175 -0.1658  0.1884 -0.0461
  693PSPI   C3B11053   8.709   3.730   6.112  0.1476 -0.0266 -0.0945
  693PSPI   C4B11054   8.279   3.553   6.183  0.1879  0.0198 -0.1059
  694PSPI    C111055   6.819  10.235   5.501 -0.2474  0.2148  0.0834
  694PSPI    C211056   6.793  10.633   5.473  0.2318  0.2644  0.2535
  694PSPI    C311057   6.918  10.418   5.159 -0.0580  0.2416  0.1512
  694PSPI   PO411058   6.624  10.140   5.769 -0.0161  0.1983  0.0515
  694PSPI   GL111059   6.584  10.216   6.230 -0.1237 -0.0674  0.2847
  694PSPI   GL211060   6.198  10.171   6.233 -0.1488  0.0047 -0.1158
  694PSPI   C1A11061   6.632  10.283   6.739 -0.0936  0.1192 -0.1811
  694PSPI   C2A11062   6.713  10.342   7.088 -0.3322 -0.1824  0.0335
  694PSPI   C3A11063   6.799  10.435   7.513  0.0631  0.1838 -0.0340
  694PSPI   C4A11064   6.995  10.584   7.803  0.0904 -0.4163 -0.1568
  694PSPI   C1B11065   6.393   9.906   6.577 -0.0599  0.4534  0.0817
  694PSPI   C2B11066   6.343   9.538   6.875  0.0161  0.1143 -0.0099
  694PSPI   C3B11067   6.247   9.182   7.176  0.2321 -0.0272 -0.0513
  694PSPI   C4B11068   6.261   8.726   7.221  0.0335 -0.2558 -0.4027
  695PSPI    C111069   3.813   1.110   5.604 -0.1035 -0.0467 -0.3933
  695PSPI    C211070   4.087   0.929   5.375  0.1736 -0.1354 -0.0023
  695PSPI    C311071   4.197   1.218   5.629 -0.1517  0.0622 -0.0790
  695PSPI   PO411072   3.671   0.914   5.763 -0.2180  0.2111  0.0700
  695PSPI   GL111073   3.785   0.622   6.089 -0.0014 -0.2456  0.0341
  695PSPI   GL211074   4.063   0.639   6.292 -0.0921 -0.0891 -0.2299
  695PSPI   C1A11075   3.548   0.571   6.529 -0.1704  0.3326  0.0471
  695PSPI   C2A11076   3.435   0.602   6.932 -0.2162 -0.1375  0.0415
  695PSPI   C3A11077   3.551   0.600   7.319  0.0804  0.1696  0.0341
  695PSPI   C4A11078   3.719   0.398   7.675  0.1644 -0.0765  0.0283
  695PSPI   C1B11079   4.024   0.407   6.728 -0.0334  0.0094  0.0036
  695PSPI   C2B11080   3.956   0.394   7.093  0.1636  0.4292  0.1016
  695PSPI   C3B11081   3.992   0.056   7.224  0.2041 -0.0164  0.1405
  695PSPI   C4B11082   3.748  -0.156   7.557 -0.1065  0.1620 -0.2529
  696PSPI    C111083  14.048   0.936   5.488 -0.2578  0.1417  0.0433
  696PSPI    C211084  14.185   0.786   5.144  0.1566  0.2598  0.1506
  696PSPI    C311085  13.821   0.686   5.275  0.2104 -0.2219 -0.0465
  696PSPI   PO411086  14.071   1.178   5.495  0.2655  0.1976  0.3315
  696PSPI   GL111087  13.683   1.256   5.853  0.0450  0.0715 -0.0921
  696PSPI   GL211088  13.950   1.479   5.863  0.0193 -0.1363  0.0103
  696PSPI   C1A11089  13.470   1.490   6.141  0.0645  0.1403 -0.2213
  696PSPI   C2A11090  13.404   1.462   6.528  0.0505 -0.0838  0.0692
  696PSPI   C3A11091  13.420   1.450   7.014  0.3853  0.1552  0.0055
  696PSPI   C4A11092  13.354   1.465   7.499  0.1220 -0.3204 -0.0543
  696PSPI   C1B11093  14.180   1.753   6.201 -0.0865  0.1886  0.0026
  696PSPI   C2B11094  14.493   1.849   6.517 -0.0185 -0.3965 -0.1225
  696PSPI   C3B11095  14.578   1.952   6.993  0.3654 -0.3999  0.2160
  696PSPI   C4B11096  14.635   1.969   7.416 -0.0761  0.2083  0.0550
  697POPI    C111097   1.907   5.577   5.734  0.1084  0.1810 -0.2359
  697POPI    C211098   1.879   5.278   5.470  0.0126  0.0887 -0.1223
  697POPI    C311099   1.551   5.476   5.584  0.0107 -0.0638  0.1456
  697POPI   PO411100   2.048   5.494   5.924 -0.0605 -0.0125  0.0861
  697POPI   GL111101   1.918   5.321   6.229  0.4212 -0.2411 -0.3356
  697POPI   GL211102   1.978   5.035   6.330 -0.0404 -0.3067 -0.0034
  697POPI   C1A11103   1.772   5.451   6.619  0.2226 -0.0586  0.0327
  697POPI   D2A11104   1.788   5.800   6.930 -0.0711  0.0335  0.0439
  697POPI   C3A11105   1.864   6.100   7.187 -0.0677 -0.3779  0.2043
  697POPI   C4A11106   1.529   6.213   7.595  0.1628  0.0832  0.1285
  697POPI   C1B11107   1.755   4.814   6.621 -0.1032 -0.0607  0.1061
  697POPI   C2B11108   1.594   5.033   6.887  0.0189  0.2640 -0.0138
  697POPI   C3B11109   1.416   5.020   7.314  0.0214 -0.0317 -0.1384
  697POPI   C4B11110   1.346   4.853   7.642 -0.1396 -0.1573  0.1475
  698POPI    C111111   1.917  17.218   5.822  0.3245  0.0814  0.0503
  698POPI    C211112   1.592  17.324   6.029  0.1654 -0.0197 -0.1442
  698POPI    C311113   1.906  17.571   6.011  0.0291  0.1590 -0.1051
  698POPI   PO411114   1.816  16.909   5.734 -0.1217 -0.0140 -0.4150
  698POPI   GL111115   1.989  16.500   6.070 -0.0792 -0.4689  0.1015
  698POPI   GL211116   2.281  16.424   6.232 -0.1491  0.0576  0.0040
  698POPI   C1A11117   1.778  16.338   6.367  0.0566  0.2103 -0.0441
  698POPI   D2A11118   1.697  16.071   6.814 -0.3141  0.0363  0.1121
  698POPI   C3A11119   1.795  16.200   7.155 -0.2734  0.3948 -0.1772
  698POPI   C4A11120   1.770  16.207   7.588 -0.0204  0.0682 -0.2649
  698POPI   C1B11121   2.064  16.662   6.603 -0.4549 -0.0525  0.3034
  698POPI   C2B11122   1.836  16.815   6.923 -0.1990  0.0085  0.1972
  698POPI   C3B11123   1.449  16.776   7.205  0.0622  0.0859  0.0044
  698POPI   C4B11124   1.353  16.383   7.443 -0.1267  0.2739  0.1927
  699POPI    C111125   4.225  14.018   5.681 -0.0087 -0.1288 -0.1301
  699POPI    C211126   3.883  14.169   5.540 -0.1427 -0.2703  0.0398
  699POPI    C311127   4.232  14.337   5.440 -0.2707 -0.0262 -0.0051
  699POPI   PO411128   4.229  13.905   6.026  0.2125 -0.2223  0.0002
  699POPI   GL111129   4.440  13.945   6.455 -0.5000  0.1852  0.1040
  699POPI   GL211130   4.346  14.215   6.432 -0.0912  0.1704 -0.0103
  699POPI   C1A11131   4.310  13.788   6.761 -0.3337 -0.1702 -0.1898
  699POPI   D2A11132   4.431  13.638   7.133  0.2316  0.1953  0.4344
  699POPI   C3A11133   4.404  13.659   7.504  0.1363 -0.3706  0.1141
  699POPI   C4A11134   4.200  13.617   7.926 -0.1679  0.0523 -0.2584
  699POPI   C1B11135   4.139  14.269   6.844  0.0550 -0.0372 -0.1385
  699POPI   C2B11136   4.379  14.150   7.196 -0.0058 -0.0527  0.1460
  699POPI   C3B11137   4.356  14.169   7.597 -0.0445 -0.3533  0.1188
  699POPI   C4B11138   4.547  14.268   7.979  0.0122 -0.1488 -0.2038
  700POPI    C111139   3.066  15.098   5.822  0.2759 -0.0541  0.0539
  700POPI    C211140   2.977  14.970   5.454 -0.1072 -0.1350  0.1704
  700POPI    C311141   3.348  15.094   5.538  0.1266 -0.6195 -0.0995
  700POPI   PO411142   2.972  14.944   6.006  0.0725 -0.3787 -0.2107
  700POPI   GL111143   2.819  15.104   6.340  0.1562 -0.4075  0.0634
  700POPI   GL211144   2.654  15.338   6.442 -0.0851  0.0723  0.3014
  700POPI   C1A11145   2.812  14.773   6.619 -0.2907  0.1694 -0.1447
  700POPI   D2A11146   2.750  14.389   6.520  0.0128 -0.0311 -0.1283
  700POPI   C3A11147   2.526  14.230   6.857 -0.0236  0.1680 -0.0555
  700POPI   C4A11148   2.583  14.256   7.286 -0.1639  0.0619  0.0882
  700POPI   C1B11149   2.606  15.436   6.902 -0.5165  0.0957 -0.1322
  700POPI   C2B11150   2.743  15.080   7.111 -0.2455 -0.3780  0.1994
  700POPI   C3B11151   2.740  15.066   7.555 -0.0627 -0.0894  0.1679
  700POPI   C4B11152   2.761  14.995   7.947 -0.0165  0.3671 -0.1857
  701POPI    C111153  10.406   9.067   5.882  0.0806 -0.0403 -0.0907
  701POPI    C211154  10.304   9.410   5.703  0.0524  0.0907  0.1723
  701POPI    C311155  10.065   9.251   5.982  0.0628 -0.1473  0.0485
  701POPI   PO411156  10.730   9.006   5.858  0.1962 -0.0600 -0.0222
  701POPI   GL111157  10.823   8.577   6.058  0.2094  0.0499  0.0144
  701POPI   GL211158  10.710   8.755   6.266 -0.0760  0.0345  0.0224
  701POPI   C1A11159  11.178   8.449   6.275 -0.3567 -0.1671  0.0335
  701POPI   D2A11160  11.390   8.427   6.695  0.3855  0.0252  0.0311
  701POPI   C3A11161  11.451   8.263   7.073 -0.1222 -0.1419 -0.1205
  701POPI   C4A11162  11.380   8.161   7.412  0.1902 -0.0069  0.1166
  701POPI   C1B11163  10.903   8.601   6.681 -0.0833 -0.1452 -0.0480
  701POPI   C2B11164  10.959   8.581   7.065 -0.1122 -0.1620 -0.0780
  701POPI   C3B11165  10.674   8.665   7.318 -0.3006 -0.0641 -0.3013
  701POPI   C4B11166  10.376   8.893   7.426 -0.1940 -0.1729  0.1859
  702POPI    C111167  17.563   8.909   5.372  0.0034 -0.1880  0.1986
  702POPI    C211168  17.333   8.622   5.215  0.0292 -0.1306  0.0538
  702POPI    C311169  17.468   8.919   4.984 -0.0636  0.0430  0.2191
  702POPI   PO411170  17.412   9.004   5.631 -0.1848  0.2705  0.0134
  702POPI   GL111171  17.445   9.027   6.097 -0.1548  0.1053 -0.0300
  702POPI   GL211172  17.441   8.759   6.234 -0.0030  0.2093  0.1820
  702POPI   C1A11173  17.463   9.326   6.454  0.1944 -0.0427  0.1720
  702POPI   D2A11174  17.303   9.405   6.786 -0.1334  0.0676 -0.0783
  702POPI   C3A11175  17.231   9.401   7.267  0.0218  0.3450 -0.2674
  702POPI   C4A11176  17.292   9.447   7.700  0.0895 -0.0675  0.2669
  702POPI   C1B11177  17.394   8.847   6.686  0.0211 -0.2980  0.2205
  702POPI   C2B11178  17.413   8.935   7.090  0.0542  0.0694  0.2039
  702POPI   C3B11179  17.303   8.991   7.559 -0.1266  0.1552 -0.1996
  702POPI   C4B11180  17.537   9.028   7.883  0.1898  0.0426  0.1026
  703POPI    C111181   7.803  12.174   5.528  0.0942 -0.0896  0.1639
  703POPI    C211182   8.172  12.311   5.454 -0.0824  0.1470 -0.3186
  703POPI    C311183   8.066  11.944   5.334 -0.0013  0.0723 -0.1645
  703POPI   PO411184   7.820  12.300   5.825  0.0088 -0.1204  0.0903
  703POPI   GL111185   8.028  12.445   6.205  0.1854 -0.0295  0.0005
  703POPI   GL211186   7.755  12.446   6.313  0.2006  0.0887  0.1087
  703POPI   C1A11187   8.234  12.420   6.553  0.1151  0.1671  0.0685
  703POPI   D2A11188   8.497  12.162   6.649  0.3745  0.1048 -0.2794
  703POPI   C3A11189   8.482  12.134   7.157 -0.1470  0.2117  0.1362
  703POPI   C4A11190   8.477  12.329   7.458 -0.0818  0.2303  0.1266
  703POPI   C1B11191   7.831  12.602   6.727  0.0383 -0.0364  0.0778
  703POPI   C2B11192   7.859  12.763   7.169  0.0391  0.0031  0.1458
  703POPI   C3B11193   7.803  12.970   7.564  0.2378 -0.0130  0.1497
  703POPI   C4B11194   7.428  13.081   7.923 -0.0061 -0.1039 -0.1702
  704POPI    C111195   6.629   7.782   6.182  0.2948 -0.0112 -0.0147
  704POPI    C211196   6.633   7.725   5.786  0.0596  0.0588 -0.0287
  704POPI    C311197   6.291   7.689   5.990  0.1738  0.0525  0.1646
  704POPI   PO411198   6.778   8.023   6.238 -0.0114 -0.0836  0.1497
  704POPI   GL111199   6.724   8.240   6.694  0.1433  0.1816 -0.0226
  704POPI   GL211200   7.080   8.286   6.621  0.0671 -0.0864 -0.1096
  704POPI   C1A11201   6.697   8.445   7.068  0.0401 -0.1662 -0.1153
  704POPI   D2A11202   6.737   8.937   7.125 -0.0243  0.1516 -0.0436
  704POPI   C3A11203   6.648   9.146   7.521  0.1851  0.0445 -0.0679
  704POPI   C4A11204   6.564   9.671   7.711  0.1532  0.3297 -0.1341
  704POPI   C1B11205   7.114   8.061   6.994 -0.0914 -0.3103 -0.0360
  704POPI   C2B11206   7.398   7.954   7.380 -0.0117 -0.1162 -0.1977
  704POPI   C3B11207   7.521   7.948   7.821 -0.1175 -0.0119 -0.0230
  704POPI   C4B11208   7.666   8.319   7.949 -0.1155 -0.2439  0.4214
  705POPI    C111209  15.916   4.965   5.175 -0.0538 -0.2475 -0.1041
  705POPI    C211210  15.973   5.072   4.794  0.0105 -0.0153 -0.0307
  705POPI    C311211  16.256   4.866   4.987 -0.0192 -0.1274 -0.1054
  705POPI   PO411212  15.749   4.780   5.210  0.2028  0.2457 -0.1475
  705POPI   GL111213  15.430   4.927   5.518  0.0111  0.0101 -0.1927
  705POPI   GL211214  15.566   5.230   5.633 -0.2067  0.1311  0.0493
  705POPI   C1A11215  15.680   4.775   5.878 -0.0224 -0.0515 -0.0633
  705POPI   D2A11216  15.901   4.691   6.267  0.1547 -0.1307 -0.0553
  705POPI   C3A11217  15.749   4.424   6.585 -0.1595 -0.3636  0.2293
  705POPI   C4A11218  15.633   4.011   6.758 -0.0662 -0.1289  0.0433
  705POPI   C1B11219  15.473   5.183   6.072  0.0718  0.1422 -0.0700
  705POPI   C2B11220  15.564   5.022   6.392 -0.1282 -0.0760  0.0317
  705POPI   C3B11221  15.811   4.974   6.695  0.1909  0.1262 -0.2464
  705POPI   C4B11222  16.201   4.797   6.729  0.0564 -0.2930 -0.0348
  706POPI    C111223  10.799  13.352   5.402 -0.0890 -0.0022  0.1122
  706POPI    C211224  10.632  13.674   5.235  0.0021  0.1719  0.3509
  706POPI    C311225  10.415  13.342   5.290 -0.0301  0.1106 -0.1050
  706POPI   PO411226  10.947  13.415   5.639 -0.0524  0.0759  0.1864
  706POPI   GL111227  10.835  13.644   5.986 -0.1175 -0.1181 -0.0426
  706POPI   GL211228  11.155  13.520   6.131  0.1152 -0.4161  0.2236
  706POPI   C1A11229  10.700  13.660   6.461 -0.0116 -0.0274 -0.1354
  706POPI   D2A11230  10.582  14.003   6.722 -0.4021 -0.2449  0.1565
  706POPI   C3A11231  10.483  14.048   7.044 -0.1263  0.0041 -0.0057
  706POPI   C4A11232  10.520  13.772   7.449 -0.0983  0.0161  0.2008
  706POPI   C1B11233  11.224  13.496   6.590 -0.0696 -0.0360  0.0406
  706POPI   C2B11234  11.345  13.574   7.090  0.0466 -0.3460  0.4205
  706POPI   C3B11235  11.679  13.406   7.434 -0.2507  0.0292 -0.1212
  706POPI   C4B11236  11.962  13.086   7.592 -0.2742  0.1048 -0.0658
  707POPI    C111237   6.783  11.271   6.181 -0.1355  0.2634 -0.1012
  707POPI    C211238   7.095  11.376   5.954  0.0146 -0.1827 -0.1101
  707POPI    C311239   6.774  11.205   5.787  0.0376 -0.3187 -0.0172
  707POPI   PO411240   6.898  11.373   6.451  0.4171  0.0456  0.1097
  707POPI   GL111241   6.719  11.522   6.848  0.0557  0.3809  0.1303
  707POPI   GL211242   6.949  11.334   7.014  0.0125  0.4410  0.1302
  707POPI   C1A11243   6.478  11.867   6.987  0.0125 -0.0000  0.0402
  707POPI   D2A11244   6.732  12.262   7.144 -0.0486  0.1362 -0.0053
  707POPI   C3A11245   6.859  12.038   7.524  0.0867  0.3262  0.0175
  707POPI   C4A11246   6.923  11.840   7.860 -0.1309 -0.3816  0.1553
  707POPI   C1B11247   6.840  11.429   7.376 -0.1846 -0.2450  0.4097
  707POPI   C2B11248   6.440  11.722   7.486 -0.2786  0.0560 -0.2401
  707POPI   C3B11249   6.388  11.969   7.785 -0.1116 -0.0490 -0.0371
  707POPI   C4B11250   6.416  12.087   8.287  0.0472  0.1538 -0.0926
  708POPI    C111251  14.381  11.442   5.368 -0.0145  0.1371  0.0980
  708POPI    C211252  14.521  11.140   5.145  0.0312  0.0205  0.2824
  708POPI    C311253  14.609  11.518   5.048 -0.2310 -0.0100 -0.0947
  708POPI   PO411254  14.408  11.283   5.664 -0.3100  0.0492  0.0404
  708POPI   GL111255  14.228  11.398   6.092 -0.0219 -0.5273  0.0829
  708POPI   GL211256  14.498  11.482   6.245 -0.1760 -0.1430 -0.1589
  708POPI   C1A11257  13.926  11.300   6.361  0.1451  0.1137  0.1925
  708POPI   D2A11258  14.083  11.139   6.746  0.0114  0.0573 -0.3459
  708POPI   C3A11259  14.010  10.865   7.008  0.0060 -0.0476 -0.3879
  708POPI   C4A11260  14.143  10.668   7.333 -0.2773  0.1786  0.0846
  708POPI   C1B11261  14.536  11.415   6.677 -0.1941  0.5616  0.3625
  708POPI   C2B11262  14.512  11.211   7.076 -0.1357 -0.0280  0.2480
  708POPI   C3B11263  14.474  11.061   7.454  0.2249  0.0028  0.0816
  708POPI   C4B11264  14.220  10.974   7.721 -0.2973 -0.0370  0.2333
  709POPI    C111265   2.298   6.220   5.759 -0.1483  0.0064  0.0077
  709POPI    C211266   2.125   6.211   5.399 -0.2397 -0.0497  0.0524
  709POPI    C311267   2.048   6.513   5.649  0.0113  0.1161 -0.0660
  709POPI   PO411268   2.223   5.983   5.850  0.0638  0.2482 -0.0329
  709POPI   GL111269   2.420   5.845   6.234  0.0444 -0.0547  0.0843
  709POPI   GL211270   2.419   6.149   6.269 -0.2408 -0.2276  0.0408
  709POPI   C1A11271   2.262   5.560   6.601  0.2772 -0.5143  0.2451
  709POPI   D2A11272   2.182   5.214   6.744  0.0796  0.1503  0.0070
  709POPI   C3A11273   2.135   5.382   7.174 -0.0462 -0.3985  0.2144
  709POPI   C4A11274   2.443   5.131   7.496 -0.0497  0.0625 -0.2637
  709POPI   C1B11275   2.658   6.417   6.660 -0.0151  0.0578  0.1473
  709POPI   C2B11276   2.607   6.410   7.060  0.0405  0.0072  0.2372
  709POPI   C3B11277   2.745   6.059   7.337 -0.1518 -0.1652  0.0339
  709POPI   C4B11278   2.890   6.092   7.776  0.1912  0.0184  0.0181
  710POPI    C111279   1.285  11.829   6.100 -0.0136 -0.1865 -0.2341
  710POPI    C211280   1.382  11.661   5.750  0.4122 -0.2968 -0.0701
  710POPI    C311281   1.640  11.905   5.933  0.0325  0.0808 -0.0210
  710POPI   PO411282   1.188  11.602   6.244  0.0684  0.0471 -0.0535
  710POPI   GL111283   1.183  11.494   6.578 -0.1794  0.0919  0.1665
  710POPI   GL211284   1.541  11.603   6.614  0.0548 -0.1949  0.1824
  710POPI   C1A11285   1.250  11.522   7.139  0.3275  0.1250  0.0457
  710POPI   D2A11286   1.324  11.546   7.520  0.0128  0.0549 -0.0243
  710POPI   C3A11287   1.033  11.781   7.798 -0.1219  0.0665 -0.2554
  710POPI   C4A11288   0.810  11.687   8.166 -0.1713 -0.2427  0.1805
  710POPI   C1B11289   1.704  11.737   6.939 -0.1958 -0.1143  0.3275
  710POPI   C2B11290   1.629  11.898   7.320 -0.0237  0.1086 -0.1812
  710POPI   C3B11291   1.444  12.064   7.611 -0.0281 -0.1494 -0.0260
  710POPI   C4B11292   1.519  12.020   7.992 -0.1531 -0.3654  0.1874
  711POPI    C111293   1.081   4.694   5.674 -0.1669  0.0808 -0.0207
  711POPI    C211294   0.908   5.034   5.554 -0.3558 -0.0043  0.0061
  711POPI    C311295   0.943   4.726   5.300 -0.1456  0.0484 -0.0314
  711POPI   PO411296   1.262   4.784   5.880  0.0982 -0.1416 -0.1471
  711POPI   GL111297   0.928   4.947   6.174  0.1592 -0.0652 -0.1575
  711POPI   GL211298   0.707   5.170   6.106 -0.0660 -0.2084  0.1312
  711POPI   C1A11299   0.787   5.106   6.555  0.1417  0.0148  0.1939
  711POPI   D2A11300   0.707   4.897   6.913  0.1308 -0.2485  0.2376
  711POPI   C3A11301   0.629   4.566   7.081  0.1412  0.1070 -0.1062
  711POPI   C4A11302   0.661   4.379   7.410 -0.2357 -0.1478 -0.1800
  711POPI   C1B11303   0.361   4.843   6.281  0.0136  0.1409 -0.0628
  711POPI   C2B11304   0.073   4.572   6.140 -0.2524  0.1451 -0.0825
  711POPI   C3B11305  -0.103   4.369   6.440  0.0857  0.1500  0.3150
  711POPI   C4B11306  -0.147   3.882   6.609  0.1801  0.1100 -0.1979
  712POPI    C111307   3.626   2.718   5.721 -0.2372 -0.0925 -0.0833
  712POPI    C211308   3.624   2.516   5.375 -0.0209  0.0844 -0.1903
  712POPI    C311309   3.948   2.726   5.483 -0.1810  0.2386 -0.0016
  712POPI   PO411310   3.453   2.576   5.856 -0.3694 -0.2835  0.2450
  712POPI   GL111311   3.249   2.583   6.317  0.1178 -0.1261 -0.1330
  712POPI   GL211312   3.413   2.947   6.256 -0.2777 -0.2210  0.1871
  712POPI   C1A11313   3.102   2.677   6.708  0.2783 -0.3022  0.1439
  712POPI   D2A11314   3.027   2.617   7.150 -0.1738 -0.0187  0.0529
  712POPI   C3A11315   2.716   2.293   7.194  0.0565 -0.2486  0.1987
  712POPI   C4A11316   2.370   2.203   7.524  0.0015 -0.0859 -0.5333
  712POPI   C1B11317   3.533   3.118   6.642 -0.1464  0.0205  0.0507
  712POPI   C2B11318   3.629   3.064   6.962  0.1057 -0.1788  0.0127
  712POPI   C3B11319   3.746   3.405   7.356  0.0115  0.2056  0.2178
  712POPI   C4B11320   3.736   3.388   7.791 -0.1351  0.0682  0.0129
  713POPI    C111321  16.593   6.212   5.096  0.0930  0.1076  0.1187
  713POPI    C211322  16.284   6.104   4.866  0.1012  0.0522  0.1335
  713POPI    C311323  16.449   5.839   5.116  0.1141  0.1025  0.1785
  713POPI   PO411324  16.555   6.361   5.246 -0.2054 -0.0774  0.1405
  713POPI   GL111325  16.725   6.376   5.683 -0.0369  0.1494  0.0736
  713POPI   GL211326  16.432   6.134   5.657 -0.2872  0.0456 -0.0628
  713POPI   C1A11327  16.539   6.541   6.018 -0.0964 -0.2401  0.1590
  713POPI   D2A11328  16.415   6.715   6.435 -0.0352  0.0005  0.3648
  713POPI   C3A11329  16.558   6.814   6.906 -0.2387 -0.0680  0.1887
  713POPI   C4A11330  16.683   6.736   7.317  0.1234 -0.1832  0.0350
  713POPI   C1B11331  16.336   6.058   6.043  0.0831  0.0238  0.1005
  713POPI   C2B11332  16.148   6.263   6.529 -0.1209  0.2280 -0.2489
  713POPI   C3B11333  16.146   6.250   6.971 -0.1233  0.0018 -0.4079
  713POPI   C4B11334  16.224   6.515   7.346 -0.2582 -0.0995 -0.0484
  714POPI    C111335   6.137  13.048   5.862 -0.1352  0.1353  0.1968
  714POPI    C211336   6.105  13.342   5.593  0.0978 -0.0568 -0.0466
  714POPI    C311337   5.811  13.072   5.631  0.0176  0.0318 -0.0335
  714POPI   PO411338   6.199  13.246   6.137 -0.0458  0.0256 -0.1624
  714POPI   GL111339   6.375  13.169   6.464 -0.4977  0.0416 -0.2706
  714POPI   GL211340   6.738  13.194   6.444  0.0590 -0.1414  0.0072
  714POPI   C1A11341   6.247  13.309   6.833  0.1260  0.0148 -0.0723
  714POPI   D2A11342   6.060  13.369   7.204 -0.0225  0.0899  0.1628
  714POPI   C3A11343   6.076  13.589   7.507  0.3042  0.2201 -0.1532
  714POPI   C4A11344   5.788  13.930   7.752 -0.1407  0.2450 -0.1163
  714POPI   C1B11345   6.737  13.180   6.891 -0.1048  0.0586  0.2268
  714POPI   C2B11346   6.531  13.413   7.311  0.1263 -0.2299 -0.0326
  714POPI   C3B11347   6.471  13.318   7.687  0.0706  0.2824  0.1094
  714POPI   C4B11348   6.587  13.402   8.007 -0.0499  0.2563 -0.2477
  715POPI    C111349   9.186  12.850   5.819  0.0091  0.0183  0.0920
  715POPI    C211350   9.533  12.810   5.623  0.1019 -0.1189  0.2814
  715POPI    C311351   9.201  12.639   5.479  0.0427  0.2739 -0.0681
  715POPI   PO411352   9.213  12.845   6.042  0.2692 -0.0364 -0.1211
  715POPI   GL111353   9.173  12.543   6.391  0.2642 -0.4055  0.1191
  715POPI   GL211354   9.060  12.301   6.395  0.0849 -0.0084 -0.1112
  715POPI   C1A11355   9.216  12.617   6.804 -0.2806 -0.0271 -0.3421
  715POPI   D2A11356   9.226  12.761   7.182 -0.2237  0.0547 -0.2276
  715POPI   C3A11357   8.741  12.762   7.383 -0.2330 -0.2794 -0.0064
  715POPI   C4A11358   8.302  12.782   7.558  0.1836  0.1223 -0.0985
  715POPI   C1B11359   8.969  12.166   6.828  0.1131 -0.0476  0.4884
  715POPI   C2B11360   8.939  12.232   7.239  0.4383  0.0008 -0.0868
  715POPI   C3B11361   9.097  12.395   7.591  0.3082 -0.1910  0.2678
  715POPI   C4B11362   9.231  12.451   8.018  0.1592  0.0561 -0.0850
  716POPI    C111363  17.106  13.735   5.791  0.0034 -0.0025  0.0022
  716POPI    C211364  16.774  13.934   5.689  0.0302 -0.0530 -0.1862
  716POPI    C311365  17.024  13.802   5.405  0.1781 -0.0727 -0.0481
  716POPI   PO411366  17.232  13.872   5.936 -0.1368  0.0119  0.0853
  716POPI   GL111367  17.093  13.784   6.358 -0.0913  0.2184  0.2067
  716POPI   GL211368  17.408  13.582   6.406 -0.1156 -0.0683 -0.1133
  716POPI   C1A11369  17.146  14.069   6.677 -0.0168 -0.0740  0.1033
  716POPI   D2A11370  17.395  14.155   7.017  0.3326 -0.2048 -0.1454
  716POPI   C3A11371  17.419  14.024   7.400 -0.1292 -0.1507 -0.0173
  716POPI   C4A11372  17.649  14.225   7.668 -0.0449 -0.1371  0.1832
  716POPI   C1B11373  17.348  13.585   6.854 -0.0733  0.1301  0.0588
  716POPI   C2B11374  17.403  13.352   7.127 -0.1358 -0.1209  0.0437
  716POPI   C3B11375  17.354  12.911   7.429 -0.2511 -0.0870 -0.2720
  716POPI   C4B11376  17.789  12.791   7.623  0.1986  0.0091 -0.0528
  717POPI    C111377   8.283   8.161   5.221 -0.0268  0.1064  0.1395
  717POPI    C211378   7.912   8.298   5.163  0.0114  0.1441 -0.0197
  717POPI    C311379   8.204   8.397   4.908  0.1824  0.3057  0.2342
  717POPI   PO411380   8.259   8.183   5.504  0.1189 -0.0875  0.0399
  717POPI   GL111381   8.530   8.161   5.962 -0.1076 -0.2555 -0.2874
  717POPI   GL211382   8.766   8.395   6.186 -0.0083 -0.3174  0.0929
  717POPI   C1A11383   8.464   8.076   6.330  0.0703 -0.1663 -0.1529
  717POPI   D2A11384   8.722   7.724   6.579 -0.0137  0.1494 -0.0470
  717POPI   C3A11385   8.842   7.661   6.947  0.0285 -0.2925 -0.1520
  717POPI   C4A11386   8.913   7.828   7.381 -0.2660  0.2225 -0.0827
  717POPI   C1B11387   8.985   8.268   6.597 -0.2978  0.0714 -0.1828
  717POPI   C2B11388   9.191   8.158   7.016 -0.3135  0.3592 -0.0841
  717POPI   C3B11389   9.162   8.220   7.399  0.2265 -0.1577 -0.0258
  717POPI   C4B11390   9.203   8.089   7.879 -0.0922 -0.0449 -0.3473
  718POPI    C111391   4.324   1.993   6.012  0.0504  0.0805  0.0254
  718POPI    C211392   4.416   2.182   5.671  0.0515 -0.0050 -0.0219
  718POPI    C311393   4.631   2.248   6.002  0.0739  0.0496 -0.0474
  718POPI   PO411394   4.109   2.000   6.111 -0.2024  0.0182  0.2064
  718POPI   GL111395   4.090   2.395   6.469 -0.0724 -0.0481 -0.4470
  718POPI   GL211396   4.000   2.146   6.645 -0.2616  0.1212 -0.0730
  718POPI   C1A11397   3.692   2.554   6.684 -0.1403 -0.0097 -0.3321
  718POPI   D2A11398   3.478   2.563   7.002 -0.0070 -0.0828 -0.2697
  718POPI   C3A11399   3.544   2.725   7.338 -0.2400 -0.1826 -0.1586
  718POPI   C4A11400   3.391   3.041   7.514  0.2118  0.0393 -0.3926
  718POPI   C1B11401   3.903   2.244   7.009  0.1256 -0.1086 -0.1684
  718POPI   C2B11402   3.833   2.318   7.448 -0.0252 -0.0657  0.0380
  718POPI   C3B11403   3.686   2.423   7.806 -0.0142  0.0054 -0.0149
  718POPI   C4B11404   3.583   2.502   8.307  0.0570  0.0487  0.0117
  719POPI    C111405  14.294  16.519   5.713  0.1280 -0.1804 -0.0796
  719POPI    C211406  14.681  16.623   5.727  0.0764  0.0068 -0.0115
  719POPI    C311407  14.397  16.900   5.780 -0.0701 -0.0992 -0.2284
  719POPI   PO411408  14.289  16.223   5.890 -0.1844 -0.1197 -0.0885
  719POPI   GL111409  14.497  16.094   6.326 -0.0722  0.0068 -0.1305
  719POPI   GL211410  14.486  15.778   6.463  0.1477 -0.1360  0.0927
  719POPI   C1A11411  14.184  16.244   6.634 -0.1412 -0.0123 -0.0589
  719POPI   D2A11412  13.995  16.414   7.028 -0.0747  0.2304  0.3226
  719POPI   C3A11413  14.009  16.583   7.459  0.1317 -0.1353  0.0341
  719POPI   C4A11414  13.869  16.415   7.802 -0.3080 -0.1283  0.0292
  719POPI   C1B11415  14.847  15.514   6.570 -0.0289  0.0510 -0.0925
  719POPI   C2B11416  15.052  15.547   6.957  0.0752 -0.1173  0.1914
  719POPI   C3B11417  14.846  15.375   7.382 -0.0897  0.1311 -0.1757
  719POPI   C4B11418  15.048  15.225   7.766  0.2048 -0.1204  0.1129
  720POPI    C111419  11.723  14.195   5.845 -0.0245  0.0331  0.0419
  720POPI    C211420  12.029  14.136   5.595 -0.1310  0.1063 -0.1076
  720POPI    C311421  11.944  14.505   5.724 -0.0148  0.0560  0.1179
  720POPI   PO411422  11.659  13.963   5.928 -0.0451  0.3864 -0.2887
  720POPI   GL111423  11.530  13.808   6.322  0.1349  0.0731 -0.1088
  720POPI   GL211424  11.792  13.684   6.311 -0.0948 -0.0060 -0.0147
  720POPI   C1A11425  11.472  14.012   6.745  0.0911 -0.0327  0.2584
  720POPI   D2A11426  11.398  14.124   7.147  0.2574 -0.0946  0.0644
  720POPI   C3A11427  11.355  14.465   7.356 -0.0311 -0.1754 -0.2146
  720POPI   C4A11428  11.212  14.355   7.777 -0.0016  0.1056 -0.4247
  720POPI   C1B11429  11.713  13.428   6.655  0.0833  0.2937 -0.2221
  720POPI   C2B11430  11.914  13.203   6.996 -0.2495 -0.2543 -0.1243
  720POPI   C3B11431  12.125  12.998   7.110  0.0545  0.0994 -0.0178
  720POPI   C4B11432  12.291  12.641   7.528 -0.2351 -0.0891  0.1222
  721POPI    C111433   5.253   5.038   5.888 -0.0825  0.0250  0.0028
  721POPI    C211434   4.912   5.008   5.682 -0.0663 -0.0133 -0.0187
  721POPI    C311435   5.259   4.915   5.507 -0.0639 -0.1572  0.0610
  721POPI   PO411436   5.178   4.939   6.124 -0.3063  0.0979 -0.2370
  721POPI   GL111437   4.974   5.172   6.488  0.0594  0.2607  0.1263
  721POPI   GL211438   4.856   4.856   6.457  0.0373 -0.1915  0.0514
  721POPI   C1A11439   5.099   4.961   6.869 -0.1423  0.1974  0.1261
  721POPI   D2A11440   5.201   4.752   7.295 -0.0437 -0.1401 -0.0291
  721POPI   C3A11441   5.494   4.658   7.610 -0.2601 -0.2717  0.4053
  721POPI   C4A11442   5.712   4.430   7.786 -0.2009  0.3785 -0.2051
  721POPI   C1B11443   4.996   4.488   6.728  0.0120  0.0513  0.1181
  721POPI   C2B11444   5.076   4.265   7.106 -0.1177 -0.1517  0.1668
  721POPI   C3B11445   5.068   4.301   7.575 -0.1001 -0.1324  0.0127
  721POPI   C4B11446   5.293   4.253   7.890  0.2485  0.0537  0.0813
  722POPI    C111447   8.998  10.700   5.882 -0.0228 -0.0902 -0.3054
  722POPI    C211448   8.701  10.955   5.963 -0.0106 -0.1377 -0.1060
  722POPI    C311449   8.628  10.624   5.751 -0.0610 -0.0558 -0.2181
  722POPI   PO411450   9.187  10.883   6.056  0.1180  0.1357 -0.0577
  722POPI   GL111451   9.395  10.884   6.473 -0.2980 -0.0836  0.2509
  722POPI   GL211452   9.613  11.137   6.463  0.0968 -0.0673 -0.0108
  722POPI   C1A11453   9.314  10.684   6.763  0.0657 -0.1434  0.1675
  722POPI   D2A11454   9.314  10.697   7.218 -0.1900  0.0159 -0.2632
  722POPI   C3A11455   9.359  10.963   7.584  0.2979 -0.0685 -0.1821
  722POPI   C4A11456   9.330  11.390   7.726  0.1445  0.1064 -0.0166
  722POPI   C1B11457   9.666  11.076   6.902 -0.1987 -0.2102  0.1728
  722POPI   C2B11458   9.522  11.295   7.216 -0.0944  0.0974 -0.0277
  722POPI   C3B11459   9.783  11.534   7.537  0.0973 -0.2247  0.1477
  722POPI   C4B11460   9.714  11.783   7.880 -0.0021  0.0151 -0.1355
  723POPI    C111461  12.799  12.538   5.437 -0.0239  0.1331  0.3616
  723POPI    C211462  12.694  12.912   5.533 -0.1407  0.2188 -0.0801
  723POPI    C311463  12.441  12.679   5.328  0.0259 -0.0217 -0.0170
  723POPI   PO411464  13.091  12.478   5.629 -0.2150  0.0870 -0.0294
  723POPI   GL111465  13.381  12.390   6.049  0.0189  0.0284  0.1103
  723POPI   GL211466  13.551  12.080   6.084 -0.1554 -0.0531 -0.0294
  723POPI   C1A11467  13.107  12.635   6.373 -0.2474 -0.0169  0.0253
  723POPI   D2A11468  12.829  12.466   6.679 -0.1124  0.2295  0.1816
  723POPI   C3A11469  12.935  12.016   6.919  0.1274 -0.0903  0.0714
  723POPI   C4A11470  12.958  12.008   7.294  0.0539 -0.1069 -0.1740
  723POPI   C1B11471  13.689  11.732   6.222  0.1050 -0.0439  0.0459
  723POPI   C2B11472  13.690  11.985   6.599  0.0451  0.2459  0.1563
  723POPI   C3B11473  14.125  12.256   6.696  0.0191 -0.1385  0.0681
  723POPI   C4B11474  14.205  12.538   7.085 -0.1964  0.1331  0.0138
  724POPI    C111475   0.011  12.682   6.020  0.1936 -0.0025 -0.0224
  724POPI    C211476   0.072  12.806   5.645  0.0451 -0.1689 -0.1033
  724POPI    C311477   0.366  12.623   5.845  0.1758  0.0609 -0.0806
  724POPI   PO411478  -0.237  12.582   6.061 -0.4439 -0.0629 -0.2224
  724POPI   GL111479  -0.370  12.315   6.408 -0.1676 -0.2793 -0.0735
  724POPI   GL211480  -0.667  12.017   6.423 -0.0328 -0.3051 -0.2872
  724POPI   C1A11481  -0.426  12.512   6.795  0.0044 -0.0338  0.2549
  724POPI   D2A11482  -0.603  12.873   7.019  0.0198  0.2592  0.0006
  724POPI   C3A11483  -1.121  12.900   6.950  0.0259  0.0198  0.2729
  724POPI   C4A11484  -1.386  13.219   7.097 -0.1330  0.2271 -0.1901
  724POPI   C1B11485  -0.571  12.068   6.870  0.1909  0.1741  0.1677
  724POPI   C2B11486  -0.387  12.207   7.223  0.1011 -0.0117 -0.0084
  724POPI   C3B11487  -0.404  12.337   7.579  0.1317  0.1210 -0.0615
  724POPI   C4B11488  -0.353  12.167   8.039 -0.0430  0.1933 -0.0467
  725POPI    C111489   3.870  13.336   5.868 -0.1148 -0.0361 -0.3497
  725POPI    C211490   3.515  13.422   5.704 -0.2215  0.1126 -0.0480
  725POPI    C311491   3.798  13.704   5.728 -0.0898  0.0015 -0.2643
  725POPI   PO411492   3.863  13.188   6.179  0.3300 -0.0837  0.2516
  725POPI   GL111493   3.611  13.044   6.462 -0.0055  0.3277  0.1060
  725POPI   GL211494   3.383  12.863   6.458  0.0797  0.2047  0.2523
  725POPI   C1A11495   3.733  12.879   6.844  0.1081 -0.1721  0.1491
  725POPI   D2A11496   3.601  12.627   7.185 -0.1664 -0.1762 -0.5188
  725POPI   C3A11497   3.937  12.570   7.452  0.0958  0.0483 -0.0179
  725POPI   C4A11498   4.095  12.591   7.806 -0.0321  0.2515 -0.2507
  725POPI   C1B11499   3.269  12.718   6.901  0.0890  0.1080  0.2011
  725POPI   C2B11500   3.103  12.621   7.264 -0.1159  0.1810  0.3537
  725POPI   C3B11501   2.847  12.465   7.705 -0.0483 -0.2228 -0.0216
  725POPI   C4B11502   2.668  12.362   8.062  0.3436 -0.0182  0.0941
  726POPI    C111503   1.826   0.491   5.474  0.0316 -0.0779  0.0728
  726POPI    C211504   2.022   0.837   5.515  0.1494 -0.1256 -0.0762
  726POPI    C311505   1.623   0.835   5.482  0.1384 -0.0137  0.0390
  726POPI   PO411506   1.923   0.347   5.825 -0.2636  0.0007 -0.1619
  726POPI   GL111507   1.986   0.593   6.238  0.0136  0.0082 -0.0706
  726POPI   GL211508   2.194   0.396   6.324 -0.0841  0.4028  0.3002
  726POPI   C1A11509   1.681   0.664   6.525 -0.2558  0.0252 -0.0174
  726POPI   D2A11510   1.688   0.665   6.946  0.0820 -0.1053  0.1605
  726POPI   C3A11511   1.702   1.072   7.218 -0.3330 -0.2345  0.3149
  726POPI   C4A11512   1.790   1.111   7.632 -0.3203  0.0676  0.1634
  726POPI   C1B11513   2.064   0.325   6.772  0.4008 -0.1920  0.0922
  726POPI   C2B11514   2.073  -0.059   7.112 -0.0128  0.3416  0.4194
  726POPI   C3B11515   1.839  -0.139   7.481  0.0727  0.0275  0.0068
  726POPI   C4B11516   1.507  -0.129   7.786  0.0509  0.0370  0.0970
  727POPI    C111517   0.821   8.231   5.724  0.0214 -0.3291 -0.0178
  727POPI    C211518   0.780   7.975   5.420  0.0254 -0.1916 -0.1354
  727POPI    C311519   0.890   8.353   5.349  0.0183 -0.1566  0.0366
  727POPI   PO411520   0.648   8.161   5.893  0.1785 -0.2508  0.4295
  727POPI   GL111521   0.578   7.918   6.257 -0.1615  0.1386  0.2433
  727POPI   GL211522   0.526   8.218   6.321 -0.1128 -0.2607 -0.1479
  727POPI   C1A11523   0.511   7.598   6.535 -0.0699  0.1587 -0.0165
  727POPI   D2A11524   0.284   7.210   6.510  0.0314 -0.0393  0.0838
  727POPI   C3A11525   0.173   7.023   6.819 -0.0632  0.2182 -0.0968
  727POPI   C4A11526   0.162   6.937   7.164  0.2241 -0.0773  0.0308
  727POPI   C1B11527   0.551   8.115   6.762 -0.1216 -0.2303 -0.0278
  727POPI   C2B11528   0.608   8.182   7.159  0.0417 -0.0250 -0.1057
  727POPI   C3B11529   0.495   7.886   7.439  0.0123 -0.2367  0.0434
  727POPI   C4B11530   0.440   7.842   7.845 -0.1951  0.0500 -0.1099
  728POPI    C111531   1.149  10.586   5.819 -0.0272 -0.1138 -0.0655
  728POPI    C211532   0.901  10.864   5.673  0.0697 -0.0679 -0.1438
  728POPI    C311533   1.066  10.594   5.428 -0.0083 -0.1824 -0.0710
  728POPI   PO411534   1.117  10.621   6.101  0.2107 -0.0513  0.1494
  728POPI   GL111535   1.324  10.809   6.438  0.2187  0.2323 -0.1231
  728POPI   GL211536   1.519  11.091   6.498  0.4587  0.0680  0.0252
  728POPI   C1A11537   1.357  10.671   6.898  0.0579 -0.1780  0.2981
  728POPI   D2A11538   1.296  10.684   7.179  0.0999 -0.3352 -0.1344
  728POPI   C3A11539   1.534  10.573   7.559  0.0180 -0.3325  0.1491
  728POPI   C4A11540   1.387  10.465   7.920  0.1029 -0.2460  0.0718
  728POPI   C1B11541   1.573  11.109   6.966 -0.1528 -0.3604  0.0884
  728POPI   C2B11542   1.472  11.049   7.448  0.1125 -0.1308  0.4109
  728POPI   C3B11543   1.492  11.010   7.834 -0.0918  0.4290  0.0549
  728POPI   C4B11544   1.218  11.071   8.162 -0.0462  0.1800  0.0030
  729POPI    C111545   1.452  17.147   5.559 -0.1625  0.0882 -0.1338
  729POPI    C211546   1.530  17.215   5.173  0.0928 -0.0187 -0.1030
  729POPI    C311547   1.447  16.845   5.298 -0.0717  0.0292 -0.0679
  729POPI   PO411548   1.273  17.278   5.644 -0.3819  0.0778 -0.4382
  729POPI   GL111549   1.031  17.471   6.002  0.2849 -0.1291 -0.2972
  729POPI   GL211550   1.170  17.691   6.209 -0.1502  0.0619 -0.1932
  729POPI   C1A11551   0.721  17.710   6.165  0.1923  0.0213 -0.2912
  729POPI   D2A11552   0.547  17.832   6.599  0.0853 -0.2379  0.1845
  729POPI   C3A11553   0.567  17.958   7.015  0.3081 -0.0842 -0.0548
  729POPI   C4A11554   0.394  17.930   7.466  0.0483  0.1646 -0.1117
  729POPI   C1B11555   1.200  17.813   6.640 -0.2048 -0.0286  0.1530
  729POPI   C2B11556   1.266  17.608   7.057 -0.0813 -0.1706  0.0838
  729POPI   C3B11557   1.245  17.759   7.523  0.0537 -0.0988  0.1775
  729POPI   C4B11558   1.449  17.634   7.849  0.0050 -0.2935 -0.0558
  730POPI    C111559  14.324  11.801   5.765  0.0504 -0.0434  0.1480
  730POPI    C211560  13.929  11.862   5.795  0.0045 -0.2092 -0.0948
  730POPI    C311561  14.107  11.874   5.437  0.2293 -0.0873  0.0190
  730POPI   PO411562  14.472  11.942   5.932  0.0508 -0.0970  0.0573
  730POPI   GL111563  14.799  12.017   6.244  0.1715 -0.3323 -0.0048
  730POPI   GL211564  14.966  11.789   6.278  0.1059 -0.0669  0.1743
  730POPI   C1A11565  14.599  12.011   6.699  0.6037  0.1100  0.1901
  730POPI   D2A11566  14.442  12.138   7.130 -0.4000  0.0681 -0.1469
  730POPI   C3A11567  14.729  12.305   7.317  0.3392 -0.0978  0.0464
  730POPI   C4A11568  15.013  12.064   7.516 -0.0912  0.0266  0.0728
  730POPI   C1B11569  15.044  11.728   6.717  0.0152 -0.0402  0.0891
  730POPI   C2B11570  14.804  11.686   7.070  0.1315 -0.0154 -0.1105
  730POPI   C3B11571  14.765  11.489   7.437  0.1380 -0.0498  0.0554
  730POPI   C4B11572  14.788  11.339   7.854  0.1585 -0.1630  0.0875
  731POPI    C111573   8.789  15.263   5.744  0.4508  0.0805 -0.1238
  731POPI    C211574   8.643  15.595   5.574 -0.0898  0.0081  0.1747
  731POPI    C311575   8.579  15.239   5.404  0.2354  0.0240  0.0110
  731POPI   PO411576   8.787  15.271   6.015  0.1200  0.0743 -0.2958
  731POPI   GL111577   8.881  15.407   6.408  0.0771  0.0396  0.1334
  731POPI   GL211578   8.867  15.671   6.694 -0.0879  0.1114  0.0091
  731POPI   C1A11579   9.294  15.413   6.535  0.2581  0.0209 -0.1962
  731POPI   D2A11580   9.584  15.650   6.748  0.1783 -0.0636 -0.0096
  731POPI   C3A11581   9.536  15.696   7.202 -0.1310  0.1999 -0.0133
  731POPI   C4A11582   9.428  15.783   7.582 -0.0490 -0.0779  0.2022
  731POPI   C1B11583   8.655  15.860   6.960  0.0809 -0.1003 -0.0159
  731POPI   C2B11584   8.668  15.813   7.382 -0.1710  0.0893  0.1737
  731POPI   C3B11585   8.976  15.786   7.703 -0.0301  0.3115  0.2078
  731POPI   C4B11586   9.027  15.423   8.050  0.0078  0.1830  0.0384
  732POPI    C111587  15.111  14.208   5.683 -0.0791 -0.1535 -0.3597
  732POPI    C211588  15.500  14.125   5.642  0.0595  0.2068  0.1305
  732POPI    C311589  15.317  14.361   5.376  0.0992 -0.1886 -0.2590
  732POPI   PO411590  15.118  14.156   5.949 -0.1487  0.0774 -0.3279
  732POPI   GL111591  15.343  13.820   6.246  0.0601  0.1043 -0.0738
  732POPI   GL211592  15.320  14.095   6.415  0.0855 -0.0659 -0.1564
  732POPI   C1A11593  15.540  13.717   6.628 -0.0676 -0.1979 -0.0296
  732POPI   D2A11594  15.698  13.686   7.064  0.0123  0.0765  0.2800
  732POPI   C3A11595  15.781  13.905   7.396 -0.0629 -0.1705  0.0705
  732POPI   C4A11596  15.577  13.937   7.833 -0.1622 -0.3794  0.4126
  732POPI   C1B11597  14.955  14.173   6.722 -0.1518 -0.2749  0.2873
  732POPI   C2B11598  14.792  14.363   7.136 -0.4819  0.1723 -0.2711
  732POPI   C3B11599  14.850  14.533   7.553 -0.2496  0.2802  0.2408
  732POPI   C4B11600  14.857  14.704   7.873 -0.0947 -0.0046 -0.3775
  733POPI    C111601  11.883  15.342   5.877  0.0095  0.0354  0.0678
  733POPI    C211602  12.235  15.406   5.699 -0.1404  0.0023 -0.2480
  733POPI    C311603  11.981  15.136   5.548 -0.2660 -0.0376  0.0285
  733POPI   PO411604  11.868  15.352   6.239 -0.0745  0.2044  0.2912
  733POPI   GL111605  11.656  15.519   6.606  0.0946 -0.0423 -0.0766
  733POPI   GL211606  11.887  15.663   6.650  0.1113 -0.1348 -0.4997
  733POPI   C1A11607  11.583  15.432   7.022  0.3197  0.5522  0.0933
  733POPI   D2A11608  11.547  15.460   7.441 -0.2296  0.1383  0.0642
  733POPI   C3A11609  11.554  15.343   7.896 -0.1669 -0.2507 -0.1530
  733POPI   C4A11610  11.609  15.416   8.252  0.0057 -0.0304  0.3127
  733POPI   C1B11611  11.806  15.898   6.987 -0.1400  0.0800  0.0948
  733POPI   C2B11612  11.635  15.973   7.371 -0.1318 -0.2551 -0.1670
  733POPI   C3B11613  11.384  16.259   7.644  0.0931  0.0069  0.2471
  733POPI   C4B11614  11.168  16.251   7.966  0.2479 -0.1658  0.1420
  734POPI    C111615  12.577   3.484   5.561 -0.0054  0.3251 -0.3327
  734POPI    C211616  12.570   3.212   5.268  0.0334  0.2130 -0.2302
  734POPI    C311617  12.326   3.174   5.583  0.3326  0.0653 -0.0116
  734POPI   PO411618  12.700   3.732   5.521  0.0701 -0.1550 -0.6162
  734POPI   GL111619  12.663   3.913   5.843  0.1193 -0.2565 -0.1444
  734POPI   GL211620  12.433   3.805   5.974 -0.1081  0.0703  0.3894
  734POPI   C1A11621  12.914   4.075   6.087  0.0822 -0.1132  0.0559
  734POPI   D2A11622  13.086   3.907   6.521  0.2516 -0.0234 -0.0746
  734POPI   C3A11623  13.426   3.634   6.424 -0.0760 -0.0288  0.1766
  734POPI   C4A11624  13.611   3.391   6.183  0.3102 -0.2651 -0.2340
  734POPI   C1B11625  12.571   3.800   6.341  0.0949  0.1359  0.0049
  734POPI   C2B11626  12.654   3.783   6.807 -0.0412  0.4625  0.1558
  734POPI   C3B11627  12.851   3.463   7.185 -0.1640 -0.1463  0.1936
  734POPI   C4B11628  13.250   3.299   7.346 -0.0395  0.0865  0.0787
  735POPI    C111629  10.422   4.059   5.072 -0.2012 -0.0102 -0.2964
  735POPI    C211630  10.362   3.666   5.113  0.0274  0.0026  0.2436
  735POPI    C311631  10.195   3.863   4.808 -0.0114 -0.5262 -0.0886
  735POPI   PO411632  10.626   4.075   5.263 -0.0297 -0.2128  0.0743
  735POPI   GL111633  10.567   4.220   5.658  0.2550 -0.0551 -0.1362
  735POPI   GL211634  10.611   4.538   5.838 -0.0200  0.0151  0.0577
  735POPI   C1A11635  10.308   4.240   6.155 -0.3792 -0.1627 -0.0125
  735POPI   D2A11636   9.977   4.193   6.364 -0.1426 -0.1929 -0.2306
  735POPI   C3A11637   9.932   4.268   6.787 -0.1689 -0.2651  0.1798
  735POPI   C4A11638   9.786   4.296   7.227  0.2408  0.0541  0.4299
  735POPI   C1B11639  10.670   4.621   6.264 -0.0591  0.2010 -0.3257
  735POPI   C2B11640  10.704   4.799   6.622 -0.0631 -0.2250  0.0013
  735POPI   C3B11641  10.649   4.770   7.125  0.1916 -0.2581 -0.3937
  735POPI   C4B11642  10.817   4.444   7.430 -0.0520  0.2307 -0.1171
  736POPI    C111643   9.912   8.781   5.237 -0.0136  0.0115 -0.0491
  736POPI    C211644  10.031   9.069   4.986  0.2106 -0.0631 -0.0310
  736POPI    C311645  10.183   9.051   5.356  0.0104 -0.0567  0.0528
  736POPI   PO411646   9.662   8.783   5.315  0.0320  0.1408 -0.0467
  736POPI   GL111647   9.425   8.587   5.677 -0.1125 -0.1586  0.0377
  736POPI   GL211648   9.162   8.558   5.760  0.0024 -0.1689  0.0281
  736POPI   C1A11649   9.690   8.514   6.026  0.1491 -0.2552 -0.3942
  736POPI   D2A11650   9.959   8.319   6.355  0.0608 -0.1665 -0.0420
  736POPI   C3A11651  10.306   8.610   6.626  0.1507 -0.1645 -0.2585
  736POPI   C4A11652  10.198   8.770   7.020  0.0192 -0.1407  0.1449
  736POPI   C1B11653   9.224   8.741   6.217 -0.1883 -0.1143  0.1622
  736POPI   C2B11654   9.186   8.711   6.693 -0.1719  0.1344  0.2281
  736POPI   C3B11655   9.297   8.647   7.140  0.0659 -0.0830 -0.1704
  736POPI   C4B11656   9.132   8.758   7.600 -0.0208  0.0380  0.0984
  737POPI    C111657  10.259  10.087   5.723  0.1765 -0.2735  0.0369
  737POPI    C211658  10.414  10.226   5.382  0.4942  0.2322  0.3745
  737POPI    C311659  10.442   9.837   5.470 -0.1589 -0.0337 -0.4589
  737POPI   PO411660  10.282  10.286   5.831  0.1874  0.2109 -0.0842
  737POPI   GL111661  10.597  10.369   6.114 -0.0231 -0.1623 -0.3325
  737POPI   GL211662  10.385  10.548   6.305  0.0264  0.0277  0.0121
  737POPI   C1A11663  10.826  10.556   6.476  0.1437 -0.0006  0.1061
  737POPI   D2A11664  10.749  10.614   6.875  0.1859  0.0514  0.3444
  737POPI   C3A11665  10.923  10.721   7.220 -0.1060 -0.0503  0.1555
  737POPI   C4A11666  11.032  10.849   7.546 -0.0388 -0.2255 -0.0951
  737POPI   C1B11667  10.339  10.265   6.719 -0.3010 -0.3684  0.0901
  737POPI   C2B11668  10.278  10.144   7.062 -0.0635  0.0262 -0.0570
  737POPI   C3B11669  10.146  10.208   7.460 -0.0600  0.1522  0.2723
  737POPI   C4B11670  10.350  10.061   7.739  0.0434 -0.4058 -0.2060
  738POPI    C111671   5.307   8.905   6.090  0.2356 -0.1075 -0.2755
  738POPI    C211672   5.220   9.196   5.830 -0.1557 -0.1045 -0.1466
  738POPI    C311673   5.384   8.856   5.701 -0.1640 -0.0254 -0.3696
  738POPI   PO411674   5.124   8.794   6.150  0.0689 -0.2937 -0.2811
  738POPI   GL111675   5.015   8.787   6.638 -0.1503 -0.2238 -0.0670
  738POPI   GL211676   5.215   9.011   6.641  0.1394  0.1577 -0.0304
  738POPI   C1A11677   4.883   8.898   7.153 -0.0264 -0.1051  0.1663
  738POPI   D2A11678   4.844   8.906   7.564  0.0106  0.0314  0.4116
  738POPI   C3A11679   4.751   8.689   8.031 -0.1851  0.0500 -0.0258
  738POPI   C4A11680   4.414   8.659   8.417  0.1381  0.0297  0.0695
  738POPI   C1B11681   5.301   9.227   7.069 -0.2466 -0.1164  0.4837
  738POPI   C2B11682   5.283   9.132   7.528  0.0736  0.0101 -0.0597
  738POPI   C3B11683   5.169   9.348   7.935 -0.1501 -0.1824 -0.1336
  738POPI   C4B11684   5.378   9.597   8.288  0.2189  0.1555 -0.1151
  739POPI    C111685   8.029   0.683   5.349  0.1612 -0.1051 -0.0337
  739POPI    C211686   7.929   0.297   5.314  0.1431 -0.0896 -0.1569
  739POPI    C311687   8.020   0.510   4.988 -0.0272  0.0589 -0.1092
  739POPI   PO411688   8.237   0.628   5.639  0.1336  0.2064  0.0321
  739POPI   GL111689   8.493   0.536   6.062 -0.0401 -0.0094 -0.1378
  739POPI   GL211690   8.762   0.319   6.060  0.0054  0.0076  0.1822
  739POPI   C1A11691   8.559   0.596   6.488 -0.0167  0.4303  0.1485
  739POPI   D2A11692   8.542   0.652   6.922  0.2012  0.0785  0.2025
  739POPI   C3A11693   8.347   0.609   7.332  0.1754  0.4113 -0.1085
  739POPI   C4A11694   8.255   0.298   7.659  0.1138 -0.0208  0.0398
  739POPI   C1B11695   8.615   0.066   6.313 -0.2575  0.1339 -0.0948
  739POPI   C2B11696   8.548   0.089   6.674  0.0895  0.0053  0.0362
  739POPI   C3B11697   8.417   0.135   7.089  0.0160  0.1308  0.2338
  739POPI   C4B11698   8.195  -0.090   7.354  0.0773 -0.0065 -0.1782
  740POPI    C111699  16.528   3.072   5.092 -0.2142  0.0461 -0.0936
  740POPI    C211700  16.920   3.029   5.023 -0.1737  0.1074  0.0909
  740POPI    C311701  16.667   3.084   4.718 -0.0540 -0.0499 -0.0383
  740POPI   PO411702  16.474   2.937   5.312 -0.1721  0.2833 -0.1876
  740POPI   GL111703  16.299   2.966   5.657  0.0532 -0.3353 -0.0739
  740POPI   GL211704  16.005   3.143   5.687  0.1591 -0.1777  0.0518
  740POPI   C1A11705  16.239   2.754   6.158 -0.1944 -0.3121  0.0379
  740POPI   D2A11706  16.304   3.006   6.557 -0.1991  0.0449 -0.0268
  740POPI   C3A11707  16.144   3.318   6.822  0.0227 -0.3300  0.0588
  740POPI   C4A11708  16.277   3.465   7.196  0.0436 -0.0996 -0.1102
  740POPI   C1B11709  15.790   3.056   6.168  0.1201  0.0358  0.0266
  740POPI   C2B11710  15.685   3.244   6.563 -0.2754  0.1584  0.0869
  740POPI   C3B11711  15.696   3.501   6.952 -0.0911  0.1576  0.0339
  740POPI   C4B11712  15.767   3.845   7.228  0.0816  0.1687 -0.4070
  741POPI    C111713   6.905  15.276   5.867 -0.0198 -0.1787 -0.0138
  741POPI    C211714   7.142  14.994   6.023 -0.0516 -0.1771  0.0375
  741POPI    C311715   7.192  15.110   5.643  0.1008 -0.0991  0.0805
  741POPI   PO411716   6.709  15.281   5.837 -0.0968  0.2252  0.2229
  741POPI   GL111717   6.406  15.592   6.143 -0.2526  0.4174  0.1858
  741POPI   GL211718   6.256  15.285   6.266 -0.0324  0.0360  0.1571
  741POPI   C1A11719   6.339  15.861   6.463  0.2689 -0.0901  0.1661
  741POPI   D2A11720   6.374  15.841   6.896 -0.1617 -0.0793  0.1480
  741POPI   C3A11721   6.444  16.194   7.064 -0.1301  0.1970 -0.2750
  741POPI   C4A11722   6.382  16.318   7.502  0.1318 -0.1724 -0.0895
  741POPI   C1B11723   6.508  15.252   6.571 -0.1868  0.3222  0.0807
  741POPI   C2B11724   6.627  15.280   6.841 -0.1110 -0.1223  0.0859
  741POPI   C3B11725   6.625  15.401   7.278 -0.2460 -0.0053  0.2007
  741POPI   C4B11726   6.887  15.443   7.549 -0.2239  0.0235  0.2268
  742POPI    C111727   7.676   9.469   5.611 -0.1250  0.0306  0.1124
  742POPI    C211728   7.700   9.771   5.350 -0.0178  0.0741  0.1719
  742POPI    C311729   8.030   9.570   5.455 -0.0988 -0.1098  0.0793
  742POPI   PO411730   7.487   9.654   5.850  0.3231 -0.0809 -0.0446
  742POPI   GL111731   7.471   9.758   6.306 -0.0754  0.0322 -0.0178
  742POPI   GL211732   7.760   9.667   6.323  0.1406 -0.1959 -0.2889
  742POPI   C1A11733   7.311   9.651   6.628  0.0320 -0.1173 -0.2236
  742POPI   D2A11734   7.228   9.605   7.022  0.0821 -0.1161  0.0548
  742POPI   C3A11735   7.443   9.811   7.310 -0.1402 -0.2757 -0.2210
  742POPI   C4A11736   7.691   9.850   7.694  0.1003  0.0880 -0.1951
  742POPI   C1B11737   7.888   9.497   6.685 -0.2514  0.1043  0.0510
  742POPI   C2B11738   7.752   9.509   7.020  0.2314  0.0131 -0.2197
  742POPI   C3B11739   7.871   9.515   7.400 -0.0121 -0.0098 -0.1191
  742POPI   C4B11740   7.806   9.395   7.678  0.1056  0.0474  0.2058
  743POPI    C111741   9.348  11.966   5.810 -0.2961 -0.0274 -0.0815
  743POPI    C211742   9.650  11.805   5.603 -0.0859 -0.0521  0.2364
  743POPI    C311743   9.281  11.654   5.569  0.0347 -0.3526  0.2342
  743POPI   PO411744   9.437  11.943   6.036 -0.0371  0.3021  0.1505
  743POPI   GL111745   9.591  11.797   6.466 -0.1597  0.3231  0.2101
  743POPI   GL211746   9.519  11.573   6.710 -0.5983 -0.3036 -0.0792
  743POPI   C1A11747   9.913  12.028   6.494  0.1598  0.3344  0.1013
  743POPI   D2A11748  10.187  11.966   6.738  0.3276  0.1037 -0.0869
  743POPI   C3A11749  10.256  11.953   7.148  0.1031  0.1839 -0.2132
  743POPI   C4A11750  10.019  11.996   7.585 -0.1959 -0.2505  0.0224
  743POPI   C1B11751   9.833  11.651   7.071  0.0906  0.0332  0.0264
  743POPI   C2B11752  10.272  11.511   7.410  0.3402  0.0935 -0.2183
  743POPI   C3B11753  10.221  11.262   7.738  0.1565  0.2272  0.0101
  743POPI   C4B11754  10.154  11.019   8.168  0.0628 -0.0996 -0.0453
  744POPS   CNO11755   4.128   4.663   5.601  0.0293 -0.1090 -0.1884
  744POPS   PO411756   4.024   4.478   5.925 -0.2006 -0.1351 -0.2402
  744POPS   GL111757   4.024   4.270   6.250  0.1695  0.1816 -0.0108
  744POPS   GL211758   4.059   4.535   6.463 -0.4982  0.4333  0.2181
  744POPS   C1A11759   4.190   4.121   6.763  0.4335 -0.0128 -0.0732
  744POPS   D2A11760   4.183   4.109   7.185  0.0718  0.0319 -0.1702
  744POPS   C3A11761   4.322   3.733   7.440 -0.0145  0.4014  0.2950
  744POPS   C4A11762   4.426   3.573   7.840  0.1764 -0.1023  0.0965
  744POPS   C1B11763   4.052   4.552   6.918 -0.3026  0.3189  0.0814
  744POPS   C2B11764   3.899   4.451   7.357 -0.2413 -0.0075  0.1872
  744POPS   C3B11765   4.064   4.368   7.751 -0.2397  0.0428 -0.0732
  744POPS   C4B11766   3.781   4.231   8.124  0.2134  0.0301  0.0553
  745POPS   CNO11767   8.291   4.583   5.875  0.1337  0.3390  0.0692
  745POPS   PO411768   7.907   4.761   5.784  0.1480 -0.0827 -0.0491
  745POPS   GL111769   7.942   4.891   6.208  0.0090 -0.1621 -0.0078
  745POPS   GL211770   7.763   5.070   6.464  0.0371 -0.0899  0.1176
  745POPS   C1A11771   8.163   4.685   6.491 -0.0283  0.2075 -0.1901
  745POPS   D2A11772   8.178   4.586   6.911 -0.2831 -0.0293 -0.4266
  745POPS   C3A11773   8.380   4.524   7.279 -0.0087 -0.0072 -0.0161
  745POPS   C4A11774   8.562   4.478   7.715 -0.0407  0.2005 -0.0860
  745POPS   C1B11775   7.801   4.932   6.810 -0.2911  0.1334  0.0793
  745POPS   C2B11776   7.735   4.893   7.227  0.1527 -0.0320  0.3950
  745POPS   C3B11777   7.911   4.824   7.552  0.1738 -0.0653  0.0415
  745POPS   C4B11778   8.121   4.582   7.969  0.0081 -0.1423 -0.3956
  746POPS   CNO11779  16.747  14.349   5.147  0.1709  0.5861 -0.3258
  746POPS   PO411780  16.711  14.661   5.435 -0.1811 -0.2001  0.1723
  746POPS   GL111781  16.687  14.397   5.862  0.3263 -0.1198  0.1097
  746POPS   GL211782  16.853  14.181   6.114  0.1196 -0.0871 -0.0417
  746POPS   C1A11783  16.329  14.394   6.289 -0.2727  0.1095 -0.0956
  746POPS   D2A11784  16.244  14.311   6.689 -0.0015  0.3441  0.1272
  746POPS   C3A11785  16.357  14.529   6.969  0.1091 -0.1169 -0.0720
  746POPS   C4A11786  16.552  14.653   7.371  0.3051 -0.0449 -0.2161
  746POPS   C1B11787  16.758  14.392   6.568  0.1994  0.1543 -0.1764
  746POPS   C2B11788  16.858  14.527   6.979  0.0464  0.0347 -0.1428
  746POPS   C3B11789  17.003  14.326   7.372 -0.1478  0.1643 -0.1602
  746POPS   C4B11790  17.012  13.962   7.650 -0.0947 -0.0867  0.0114
  747POPS   CNO11791  16.938   8.254   5.243 -0.0752  0.1189  0.0210
  747POPS   PO411792  17.400   8.127   5.362  0.0618  0.0747 -0.2294
  747POPS   GL111793  17.271   8.045   5.816 -0.1927  0.1767 -0.0858
  747POPS   GL211794  17.502   8.111   6.129 -0.0399 -0.0627  0.3705
  747POPS   C1A11795  16.996   7.966   6.129 -0.1925 -0.2133  0.1595
  747POPS   D2A11796  16.928   7.895   6.564 -0.1497  0.4769  0.3593
  747POPS   C3A11797  16.593   7.644   6.757  0.1322  0.1213  0.2059
  747POPS   C4A11798  16.690   7.576   7.197 -0.1892  0.2039 -0.0900
  747POPS   C1B11799  17.525   7.931   6.507 -0.0705 -0.3883  0.0853
  747POPS   C2B11800  17.378   8.022   7.026 -0.0849  0.0241  0.0313
  747POPS   C3B11801  17.166   7.982   7.402 -0.1102  0.0663  0.0068
  747POPS   C4B11802  16.863   8.266   7.741  0.0075 -0.1771 -0.3647
  748POPS   CNO11803  11.940   7.620   5.092  0.0736  0.0427 -0.0376
  748POPS   PO411804  11.859   7.428   5.517 -0.2177  0.1819 -0.0536
  748POPS   GL111805  11.938   7.263   5.978  0.0276 -0.0314  0.0239
  748POPS   GL211806  11.759   6.972   6.115  0.4062  0.1314  0.0894
  748POPS   C1A11807  12.150   7.174   6.400 -0.1741  0.1235  0.0019
  748POPS   D2A11808  12.336   7.388   6.796 -0.0960  0.1789 -0.0193
  748POPS   C3A11809  12.223   7.391   7.164 -0.2973 -0.1160  0.1054
  748POPS   C4A11810  12.094   7.024   7.302 -0.0007  0.2587  0.1701
  748POPS   C1B11811  11.629   6.822   6.506 -0.1618 -0.1963  0.0991
  748POPS   C2B11812  11.710   6.832   7.030 -0.0020  0.0808 -0.0346
  748POPS   C3B11813  11.588   6.653   7.423  0.1937  0.0255  0.2782
  748POPS   C4B11814  11.721   6.440   7.800  0.3347 -0.0407  0.2744
  749POPS   CNO11815   2.621  10.547   6.159 -0.1013  0.2044  0.2944
  749POPS   PO411816   2.192  10.728   6.219  0.1737 -0.0529 -0.0278
  749POPS   GL111817   1.853  10.610   6.559 -0.0998 -0.1869  0.2300
  749POPS   GL211818   1.887  10.759   6.884 -0.0575 -0.0662  0.1980
  749POPS   C1A11819   1.754  10.266   6.837 -0.0738 -0.1262 -0.1632
  749POPS   D2A11820   1.682  10.172   7.260  0.2864 -0.0541 -0.0246
  749POPS   C3A11821   1.296  10.121   7.360 -0.1385 -0.1349 -0.2512
  749POPS   C4A11822   1.126  10.136   7.702 -0.2354 -0.2704 -0.1226
  749POPS   C1B11823   1.924  10.841   7.256 -0.0315  0.1115 -0.0061
  749POPS   C2B11824   1.990  10.894   7.645 -0.1402 -0.2158 -0.2599
  749POPS   C3B11825   2.057  11.123   7.971 -0.1876  0.2966  0.3359
  749POPS   C4B11826   1.845  11.332   8.268  0.0330  0.2374  0.0261
  750POPS   CNO11827  17.750   9.976   5.834 -0.0742 -0.2629 -0.1085
  750POPS   PO411828  17.953  10.426   5.915 -0.1429  0.0874  0.4811
  750POPS   GL111829  18.117  10.587   6.278  0.0643 -0.1991  0.1218
  750POPS   GL211830  18.291  10.933   6.175  0.0263 -0.1675  0.0775
  750POPS   C1A11831  18.348  10.755   6.674  0.3450  0.0019  0.2095
  750POPS   D2A11832  18.372  10.830   7.127  0.1755 -0.2806 -0.1503
  750POPS   C3A11833  18.677  10.961   7.288  0.1082  0.1132  0.0730
  750POPS   C4A11834  18.964  11.006   7.638 -0.1021 -0.1730 -0.0675
  750POPS   C1B11835  18.412  11.252   6.555 -0.0318  0.1970  0.3029
  750POPS   C2B11836  18.488  11.324   6.961  0.1022  0.1133  0.0014
  750POPS   C3B11837  18.466  11.365   7.334 -0.2728  0.2148 -0.0272
  750POPS   C4B11838  18.618  11.643   7.633 -0.1497  0.0510  0.1526
  751POPS   CNO11839   2.997   8.824   5.799  0.1443 -0.4495  0.0380
  751POPS   PO411840   3.080   8.382   5.996  0.0243  0.2707 -0.1334
  751POPS   GL111841   3.088   8.335   6.482  0.2820 -0.0745  0.0490
  751POPS   GL211842   3.385   8.436   6.465 -0.2014  0.0944 -0.1853
  751POPS   C1A11843   2.977   8.639   6.798 -0.1535 -0.0376 -0.2866
  751POPS   D2A11844   2.776   8.585   7.214 -0.1789  0.1452  0.1176
  751POPS   C3A11845   2.727   8.903   7.530  0.0647  0.3163  0.0855
  751POPS   C4A11846   2.510   9.125   7.808  0.1806 -0.1607  0.0092
  751POPS   C1B11847   3.409   8.329   6.854 -0.1832  0.1334 -0.0613
  751POPS   C2B11848   3.312   8.474   7.278  0.0265  0.0158  0.0970
  751POPS   C3B11849   3.111   8.569   7.678 -0.0495 -0.2013  0.1147
  751POPS   C4B11850   3.010   8.515   8.175 -0.3131 -0.1176 -0.0724
  752POPS   CNO11851   9.659  13.648   5.903  0.1165  0.2282 -0.0771
  752POPS   PO411852  10.060  13.385   6.011  0.1740 -0.1928 -0.0951
  752POPS   GL111853  10.294  13.227   6.301 -0.2286 -0.1811 -0.0270
  752POPS   GL211854  10.225  13.002   6.243 -0.0810  0.0055 -0.1403
  752POPS   C1A11855  10.413  12.870   6.682 -0.2139 -0.0306 -0.0380
  752POPS   D2A11856  10.515  12.778   7.129  0.1574  0.1260 -0.1355
  752POPS   C3A11857  10.631  12.634   7.643  0.2903  0.1411  0.2382
  752POPS   C4A11858  10.798  12.563   8.008  0.0005 -0.1237 -0.4182
  752POPS   C1B11859   9.936  13.033   6.572  0.2901 -0.1099  0.0801
  752POPS   C2B11860  10.039  13.018   7.007 -0.2466 -0.3846 -0.1111
  752POPS   C3B11861  10.296  13.058   7.398 -0.0010 -0.3007 -0.3848
  752POPS   C4B11862  10.529  13.252   7.626  0.2099 -0.3207 -0.0166
  753POPS   CNO11863   9.930  11.333   5.682 -0.0724 -0.2779 -0.0627
  753POPS   PO411864  10.271  11.304   6.039 -0.1573  0.2685  0.1582
  753POPS   GL111865  10.217  11.431   6.487 -0.0006  0.0484  0.1142
  753POPS   GL211866   9.993  11.395   6.644  0.1512 -0.1675  0.1794
  753POPS   C1A11867  10.434  11.535   6.848  0.2129 -0.2165  0.0882
  753POPS   D2A11868  10.749  11.733   7.218 -0.1278  0.1786  0.0792
  753POPS   C3A11869  11.056  11.562   7.433  0.1524  0.0215 -0.2447
  753POPS   C4A11870  11.406  11.336   7.615 -0.5581 -0.1594  0.1275
  753POPS   C1B11871  10.097  11.229   7.063 -0.0422  0.3293  0.2915
  753POPS   C2B11872   9.878  11.013   7.420 -0.0744  0.0277 -0.3398
  753POPS   C3B11873   9.815  10.998   7.805  0.5127  0.2223 -0.5535
  753POPS   C4B11874   9.696  11.331   8.133  0.0682  0.0588 -0.1529
  754POPS   CNO11875   7.820   5.613   5.453 -0.0644 -0.1583 -0.1075
  754POPS   PO411876   8.320   5.507   5.570 -0.3764 -0.2057 -0.1064
  754POPS   GL111877   8.466   5.345   5.947 -0.1288  0.1791  0.0431
  754POPS   GL211878   8.382   5.034   6.067  0.1981 -0.2428  0.1236
  754POPS   C1A11879   8.712   5.432   6.281 -0.0746 -0.0543  0.1411
  754POPS   D2A11880   8.844   5.486   6.698 -0.0739 -0.3207 -0.0428
  754POPS   C3A11881   9.278   5.551   6.893 -0.0976 -0.1714  0.2684
  754POPS   C4A11882   9.294   5.606   7.370 -0.0294  0.1164 -0.2269
  754POPS   C1B11883   8.566   4.983   6.402  0.1033 -0.2184 -0.1247
  754POPS   C2B11884   8.630   4.754   6.814  0.2533 -0.0016  0.1742
  754POPS   C3B11885   8.787   4.792   7.319 -0.3985 -0.1001  0.0309
  754POPS   C4B11886   8.846   4.945   7.733 -0.0617 -0.2466  0.1536
  755POPS   CNO11887  11.378  12.650   5.588 -0.2892 -0.0505 -0.2683
  755POPS   PO411888  11.586  12.827   5.863  0.2212 -0.3549  0.0563
  755POPS   GL111889  11.465  12.824   6.307  0.1271 -0.1099  0.1528
  755POPS   GL211890  11.394  13.087   6.367  0.0846 -0.0591  0.0389
  755POPS   C1A11891  11.449  12.563   6.777  0.1475  0.2932 -0.2697
  755POPS   D2A11892  11.505  12.311   7.136  0.1031 -0.0095  0.1845
  755POPS   C3A11893  11.457  12.367   7.569  0.0095  0.2902 -0.1727
  755POPS   C4A11894  11.334  12.528   7.897 -0.1677 -0.0452 -0.2538
  755POPS   C1B11895  11.383  13.081   6.778  0.0521 -0.0033 -0.2100
  755POPS   C2B11896  11.406  12.981   7.136  0.1171 -0.0028 -0.2943
  755POPS   C3B11897  11.459  12.987   7.637  0.2326  0.1277 -0.2846
  755POPS   C4B11898  11.682  13.090   8.028  0.0298 -0.0998 -0.1654
  756POPS   CNO11899  14.941   4.377   4.796 -0.1318 -0.0591 -0.2015
  756POPS   PO411900  15.110   4.122   5.133  0.2316 -0.2668 -0.1464
  756POPS   GL111901  15.034   4.360   5.413  0.0027  0.1230  0.1543
  756POPS   GL211902  15.316   4.440   5.660 -0.2380  0.0366  0.0094
  756POPS   C1A11903  14.704   4.411   5.693 -0.0914  0.1412 -0.1463
  756POPS   D2A11904  14.313   4.572   5.898  0.2070  0.1747  0.1699
  756POPS   C3A11905  14.299   4.623   6.354  0.2020 -0.1353 -0.1246
  756POPS   C4A11906  14.192   4.793   6.841 -0.4307 -0.1152  0.1209
  756POPS   C1B11907  15.091   4.717   5.982 -0.1100 -0.2286 -0.1018
  756POPS   C2B11908  15.076   4.768   6.415  0.0688 -0.0668 -0.1548
  756POPS   C3B11909  15.240   4.545   6.854 -0.4588 -0.1240  0.0941
  756POPS   C4B11910  15.506   4.265   7.182  0.0731  0.0875  0.3281
  757POPS   CNO11911   0.654  10.387   5.665 -0.0260  0.0993  0.3738
  757POPS   PO411912   0.476  10.029   5.909 -0.1181 -0.0586 -0.0596
  757POPS   GL111913   0.229  10.009   6.272 -0.1314 -0.0600  0.0760
  757POPS   GL211914   0.378  10.251   6.439  0.5679 -0.2126 -0.0392
  757POPS   C1A11915   0.104   9.791   6.701  0.1531 -0.0536 -0.1372
  757POPS   D2A11916  -0.150   9.621   7.019  0.0977 -0.0828  0.1694
  757POPS   C3A11917  -0.157   9.637   7.448  0.2047 -0.0905 -0.1189
  757POPS   C4A11918  -0.208   9.517   7.860  0.1877  0.1738 -0.0223
  757POPS   C1B11919   0.612   9.965   6.690  0.0128 -0.2177 -0.0208
  757POPS   C2B11920   0.432   9.962   7.054 -0.3814 -0.1796  0.1827
  757POPS   C3B11921   0.225   9.934   7.447  0.1810  0.0517  0.3447
  757POPS   C4B11922   0.097  10.146   7.784 -0.0762  0.1092  0.0194
  758POPS   CNO11923   7.659  14.393   5.578  0.1405  0.2353  0.2369
  758POPS   PO411924   7.214  14.583   5.460  0.0775 -0.2151 -0.2077
  758POPS   GL111925   7.125  14.416   5.902 -0.0582  0.2993  0.2065
  758POPS   GL211926   7.413  14.246   6.038 -0.2192 -0.2408  0.2385
  758POPS   C1A11927   6.913  14.594   6.286  0.1176 -0.0617 -0.3460
  758POPS   D2A11928   7.104  14.530   6.707 -0.3118 -0.1205 -0.0849
  758POPS   C3A11929   7.288  14.101   6.517 -0.3209 -0.0888  0.0055
  758POPS   C4A11930   7.073  13.686   6.414 -0.0506  0.1333  0.0794
  758POPS   C1B11931   7.544  14.494   6.361 -0.1544 -0.1532 -0.0596
  758POPS   C2B11932   7.595  14.708   6.803 -0.0434  0.3799  0.1235
  758POPS   C3B11933   7.703  14.789   7.313  0.0100  0.0272  0.0537
  758POPS   C4B11934   7.974  14.544   7.686 -0.0645  0.0559 -0.1402
  759POPS   CNO11935   2.536   0.210   5.777 -0.1594  0.2840  0.4606
  759POPS   PO411936   2.816  -0.196   5.698  0.0341 -0.1462 -0.0312
  759POPS   GL111937   2.914  -0.273   6.093 -0.1287  0.1233 -0.3019
  759POPS   GL211938   3.067  -0.535   6.154 -0.1708  0.0783 -0.1088
  759POPS   C1A11939   2.635  -0.433   6.484 -0.0140  0.2932  0.0353
  759POPS   D2A11940   2.432  -0.589   6.896  0.1461  0.1518  0.2810
  759POPS   C3A11941   2.468  -0.759   7.332 -0.0201  0.1379  0.1101
  759POPS   C4A11942   2.531  -0.808   7.740  0.0251 -0.0491 -0.1105
  759POPS   C1B11943   3.113  -0.256   6.537  0.1244 -0.2817 -0.1500
  759POPS   C2B11944   2.835  -0.087   6.884 -0.0528  0.0410 -0.1189
  759POPS   C3B11945   2.609  -0.244   7.252 -0.1371  0.0018  0.2078
  759POPS   C4B11946   2.267  -0.385   7.525  0.0635  0.0157 -0.1645
  760POPS   CNO11947  10.966  15.319   6.013  0.0051  0.2376 -0.1509
  760POPS   PO411948  11.159  15.686   5.839  0.0225 -0.0512 -0.1353
  760POPS   GL111949  11.081  15.743   6.231  0.1603  0.3407 -0.0121
  760POPS   GL211950  10.825  15.968   6.151  0.1428  0.0293  0.0980
  760POPS   C1A11951  11.137  15.828   6.579  0.1723 -0.0021  0.1492
  760POPS   D2A11952  11.281  15.831   6.967 -0.1922  0.1759  0.1746
  760POPS   C3A11953  11.103  15.835   7.297 -0.2613  0.5343 -0.0983
  760POPS   C4A11954  11.043  15.827   7.692 -0.1968  0.3305  0.0338
  760POPS   C1B11955  10.576  16.007   6.477 -0.0056 -0.1414  0.1113
  760POPS   C2B11956  10.393  15.979   6.856 -0.0709  0.2288 -0.1759
  760POPS   C3B11957  10.327  16.138   7.263  0.2342 -0.2615 -0.2596
  760POPS   C4B11958  10.129  16.349   7.616  0.1608  0.0426  0.2009
  761POPS   CNO11959  10.721   3.308   5.037  0.0584  0.1472  0.0677
  761POPS   PO411960  10.931   3.341   5.384 -0.0174  0.0616 -0.4086
  761POPS   GL111961  10.993   3.372   5.832 -0.1375 -0.1132 -0.0232
  761POPS   GL211962  10.709   3.369   5.963 -0.0323  0.1649 -0.1442
  761POPS   C1A11963  11.129   3.362   6.327 -0.1232  0.0460 -0.1542
  761POPS   D2A11964  11.336   3.376   6.731 -0.2179  0.0022  0.1292
  761POPS   C3A11965  11.251   3.465   7.107 -0.1145 -0.3101  0.0561
  761POPS   C4A11966  11.000   3.596   7.460  0.1557 -0.1983  0.2641
  761POPS   C1B11967  10.757   3.667   6.277  0.1181 -0.1826  0.1879
  761POPS   C2B11968  10.746   3.727   6.744  0.2418  0.0291 -0.0527
  761POPS   C3B11969  10.549   3.551   7.063  0.1188  0.0005  0.1219
  761POPS   C4B11970  10.468   3.404   7.398  0.1072  0.1319 -0.1102
  762POPS   CNO11971   3.990  16.849   5.710 -0.3931  0.0038 -0.2036
  762POPS   PO411972   4.326  16.644   5.898  0.0281  0.0159  0.0060
  762POPS   GL111973   4.387  16.712   6.293  0.0782 -0.0729  0.1955
  762POPS   GL211974   4.650  16.610   6.274  0.1655  0.2235 -0.2612
  762POPS   C1A11975   4.224  16.846   6.608 -0.0355 -0.2751 -0.0115
  762POPS   D2A11976   4.189  16.696   6.982  0.1159 -0.0531  0.0401
  762POPS   C3A11977   4.225  16.910   7.337  0.3946  0.0179 -0.0694
  762POPS   C4A11978   3.909  17.127   7.538  0.1561 -0.0610 -0.0321
  762POPS   C1B11979   4.687  16.534   6.707 -0.1762  0.0012 -0.1408
  762POPS   C2B11980   4.590  16.531   7.187  0.1157 -0.1033 -0.0775
  762POPS   C3B11981   4.589  16.568   7.566 -0.0748  0.2941 -0.1343
  762POPS   C4B11982   4.897  16.476   7.870  0.1384 -0.0241  0.1687
  763POPS   CNO11983   5.807   4.201   5.599 -0.0487 -0.2837  0.0158
  763POPS   PO411984   5.880   4.462   5.882  0.1647  0.1024 -0.2001
  763POPS   GL111985   5.983   4.401   6.332  0.1364  0.1564 -0.0465
  763POPS   GL211986   5.960   4.727   6.460 -0.1575 -0.1906 -0.1407
  763POPS   C1A11987   6.122   4.250   6.691  0.1953 -0.1760  0.2982
  763POPS   D2A11988   6.204   4.381   7.133  0.3040  0.2081 -0.2299
  763POPS   C3A11989   6.062   4.292   7.495 -0.3496 -0.2527  0.0148
  763POPS   C4A11990   6.059   3.989   7.923  0.1190 -0.0494  0.0720
  763POPS   C1B11991   5.935   4.700   6.916 -0.0808 -0.2455  0.2654
  763POPS   C2B11992   5.920   4.761   7.336 -0.0255  0.3150 -0.2429
  763POPS   C3B11993   5.980   4.954   7.758  0.1387 -0.2062  0.3167
  763POPS   C4B11994   5.868   5.189   8.187 -0.0484 -0.0449 -0.1894
  764POPS   CNO11995   1.153  14.233   5.825  0.2121  0.0320  0.3930
  764POPS   PO411996   0.991  13.819   5.988 -0.4425  0.1049  0.0709
  764POPS   GL111997   0.994  13.834   6.436  0.0873  0.2869  0.0502
  764POPS   GL211998   1.142  13.916   6.661 -0.2127  0.2360  0.0440
  764POPS   C1A11999   0.942  13.481   6.781  0.1845  0.0227 -0.0638
  764POPS   D2A12000   1.163  13.369   7.226 -0.0283  0.0677  0.0254
  764POPS   C3A12001   1.054  13.278   7.734 -0.0000  0.4604  0.0706
  764POPS   C4A12002   0.761  13.155   8.136  0.1136  0.0649 -0.0602
  764POPS   C1B12003   1.112  13.995   7.158 -0.0476  0.1277 -0.3103
  764POPS   C2B12004   1.286  14.333   7.386  0.0040 -0.0817  0.2460
  764POPS   C3B12005   1.529  14.481   7.767  0.0142  0.2327  0.0594
  764POPS   C4B12006   1.930  14.663   7.600 -0.1953  0.0656  0.2179
  765POPS   CNO12007   0.710   4.376   5.004  0.2600 -0.0792 -0.0189
  765POPS   PO412008   0.581   4.334   5.477  0.2775  0.4374 -0.0586
  765POPS   GL112009   0.709   4.209   5.853 -0.2458 -0.0648 -0.4980
  765POPS   GL212010   1.030   3.928   5.921 -0.0556 -0.2730 -0.1188
  765POPS   C1A12011   0.770   4.499   6.152 -0.0775  0.0642  0.1216
  765POPS   D2A12012   0.724   4.549   6.519 -0.2454  0.0637  0.4860
  765POPS   C3A12013   0.264   4.572   6.709  0.0090 -0.0803 -0.1632
  765POPS   C4A12014  -0.086   4.267   6.910 -0.0183 -0.1084  0.0571
  765POPS   C1B12015   0.913   3.961   6.328 -0.1550  0.0312 -0.2597
  765POPS   C2B12016   0.853   4.118   6.791  0.0556 -0.1303 -0.1363
  765POPS   C3B12017   0.959   4.116   7.053 -0.0794 -0.4694 -0.1061
  765POPS   C4B12018   1.383   4.105   7.219  0.0072  0.0596  0.2104
  766POPS   CNO12019   0.302  16.870   5.596 -0.2443  0.1019  0.0676
  766POPS   PO412020   0.591  16.717   5.720 -0.1688  0.2356  0.0586
  766POPS   GL112021   0.852  16.778   6.061 -0.1124 -0.0811  0.0069
  766POPS   GL212022   1.158  16.967   6.055  0.1072  0.0801 -0.0882
  766POPS   C1A12023   0.844  16.833   6.459  0.1810 -0.1354 -0.0582
  766POPS   D2A12024   1.083  16.935   6.825 -0.0802  0.1846 -0.1269
  766POPS   C3A12025   0.987  17.122   7.243  0.0189  0.1274  0.0945
  766POPS   C4A12026   1.180  16.897   7.594 -0.0776  0.1186 -0.1699
  766POPS   C1B12027   1.328  17.264   6.413 -0.1228  0.0790 -0.1376
  766POPS   C2B12028   1.648  17.601   6.450  0.0224  0.0668  0.1059
  766POPS   C3B12029   1.962  17.547   6.827  0.0374 -0.2079  0.2379
  766POPS   C4B12030   2.015  17.320   7.178  0.3116 -0.0439  0.0352
  767POPS   CNO12031  15.275  11.007   5.346 -0.0213  0.3989 -0.2701
  767POPS   PO412032  14.894  11.144   5.477 -0.0590 -0.0386  0.0266
  767POPS   GL112033  14.641  10.794   5.665  0.0913  0.2363 -0.0351
  767POPS   GL212034  14.507  10.844   5.907 -0.2768  0.1114 -0.0732
  767POPS   C1A12035  14.735  10.357   5.810 -0.0826  0.0408 -0.0271
  767POPS   D2A12036  15.130  10.185   5.856 -0.2032 -0.0170  0.3259
  767POPS   C3A12037  15.383  10.269   6.214 -0.0046 -0.1891  0.1915
  767POPS   C4A12038  15.452  10.124   6.636  0.0228 -0.4005  0.0433
  767POPS   C1B12039  14.446  10.845   6.352 -0.1153  0.1033 -0.3339
  767POPS   C2B12040  14.496  10.851   6.776 -0.3911  0.1088 -0.0043
  767POPS   C3B12041  14.701  10.717   7.132  0.0721  0.0574 -0.2303
  767POPS   C4B12042  15.086  10.641   7.375  0.4435 -0.1078  0.0726
  768POPS   CNO12043  16.137  17.747   5.465 -0.0594  0.0330 -0.3758
  768POPS   PO412044  16.040  17.848   5.829 -0.0422 -0.0489 -0.2302
  768POPS   GL112045  15.866  18.013   6.281  0.0076  0.1219  0.2129
  768POPS   GL212046  15.832  17.664   6.372 -0.0371  0.0207  0.3180
  768POPS   C1A12047  15.942  18.247   6.639  0.2551 -0.0172  0.1376
  768POPS   D2A12048  15.975  18.492   7.005 -0.3853  0.0335  0.0373
  768POPS   C3A12049  16.201  18.670   7.121  0.1144  0.0977  0.0520
  768POPS   C4A12050  16.329  18.748   7.434 -0.1994  0.2371 -0.0351
  768POPS   C1B12051  15.724  17.764   6.729  0.5042  0.0627  0.2390
  768POPS   C2B12052  15.863  17.920   7.163 -0.2123  0.1705 -0.0473
  768POPS   C3B12053  15.883  17.878   7.677 -0.2306  0.1122 -0.0373
  768POPS   C4B12054  15.819  17.614   7.954  0.1080 -0.0710  0.1069
  769POPS   CNO12055   1.570   6.366   5.493  0.1773 -0.0878  0.1469
  769POPS   PO412056   1.544   6.530   5.900  0.0559  0.3426 -0.0642
  769POPS   GL112057   1.568   6.657   6.370  0.0480  0.1469  0.2996
  769POPS   GL212058   1.630   6.908   6.326  0.0664  0.0934  0.1310
  769POPS   C1A12059   1.473   6.713   6.853 -0.0672 -0.1176  0.1456
  769POPS   D2A12060   1.637   6.511   7.215  0.0455  0.0976  0.1157
  769POPS   C3A12061   2.144   6.474   7.284 -0.1643 -0.0453 -0.3365
  769POPS   C4A12062   2.430   6.358   7.606 -0.2133 -0.0432  0.2753
  769POPS   C1B12063   1.660   7.173   6.776 -0.2103 -0.1795 -0.1486
  769POPS   C2B12064   1.586   6.985   7.248  0.1829 -0.1374  0.2154
  769POPS   C3B12065   1.590   7.155   7.755 -0.0582 -0.0462  0.0835
  769POPS   C4B12066   1.520   7.193   8.249  0.1393 -0.1523  0.2368
  770POPS   CNO12067   7.287  18.006   6.152  0.2798  0.2014  0.0354
  770POPS   PO412068   7.540  18.248   5.991 -0.1779 -0.0005  0.0504
  770POPS   GL112069   7.564  18.623   6.301 -0.2157  0.2210 -0.2728
  770POPS   GL212070   7.654  18.995   6.275  0.1031  0.0249  0.0940
  770POPS   C1A12071   7.404  18.652   6.807  0.2343  0.4313 -0.2095
  770POPS   D2A12072   7.304  18.877   7.216  0.2142  0.0213 -0.1863
  770POPS   C3A12073   7.394  18.747   7.589 -0.0120 -0.1061  0.0795
  770POPS   C4A12074   7.481  19.099   8.019 -0.1028 -0.0029 -0.1192
  770POPS   C1B12075   7.576  19.121   6.601  0.0552 -0.1730  0.0453
  770POPS   C2B12076   7.538  19.247   7.023  0.0116  0.0394 -0.0198
  770POPS   C3B12077   7.470  19.305   7.457 -0.2175  0.2977  0.0517
  770POPS   C4B12078   7.086  19.137   7.536  0.0760 -0.1377 -0.2425
  771POPS   CNO12079  17.247   1.252   5.351 -0.1609  0.0643 -0.3243
  771POPS   PO412080  17.322   0.832   5.581  0.0001 -0.0292  0.1011
  771POPS   GL112081  17.376   0.928   6.043 -0.1227 -0.0380 -0.0586
  771POPS   GL212082  17.464   1.185   6.196  0.2247  0.2284  0.1003
  771POPS   C1A12083  17.271   0.793   6.438  0.1929 -0.0520 -0.2928
  771POPS   D2A12084  17.185   0.775   6.847  0.0660 -0.2860 -0.0394
  771POPS   C3A12085  17.408   0.596   7.111 -0.0907 -0.2078  0.0887
  771POPS   C4A12086  17.742   0.324   7.136 -0.0618  0.0096  0.2288
  771POPS   C1B12087  17.146   1.256   6.596 -0.0018  0.0542 -0.1366
  771POPS   C2B12088  17.252   1.442   7.028  0.1731  0.0165  0.2104
  771POPS   C3B12089  17.366   1.720   7.397  0.2544 -0.1418 -0.1009
  771POPS   C4B12090  17.532   1.701   7.800 -0.1862  0.1139 -0.2522
  772POPS   CNO12091   4.893   9.733   5.981 -0.0678 -0.1409 -0.6370
  772POPS   PO412092   4.594   9.585   6.286 -0.4128 -0.2291  0.2174
  772POPS   GL112093   4.809   9.339   6.720  0.0171  0.1410  0.0720
  772POPS   GL212094   4.616   9.168   6.820 -0.0970 -0.1408 -0.0765
  772POPS   C1A12095   4.864   9.496   7.183  0.0777  0.0843 -0.0674
  772POPS   D2A12096   4.840   9.388   7.550  0.1125  0.1834 -0.2112
  772POPS   C3A12097   4.725   9.622   7.811 -0.1431  0.0102  0.1729
  772POPS   C4A12098   4.887   9.828   8.212 -0.1180 -0.3990 -0.2501
  772POPS   C1B12099   4.439   9.163   7.261 -0.0825  0.0458 -0.0739
  772POPS   C2B12100   4.291   9.326   7.701  0.0907 -0.0635  0.2241
  772POPS   C3B12101   4.364   9.525   8.110  0.1240 -0.1496 -0.0111
  772POPS   C4B12102   4.415   9.767   8.408 -0.0414  0.1715 -0.1250
  773POPS   CNO12103  15.944   8.521   5.374  0.4929 -0.2733 -0.2121
  773POPS   PO412104  15.539   8.343   5.230  0.1178  0.3562  0.0633
  773POPS   GL112105  15.750   8.069   5.564  0.2111 -0.1631 -0.0672
  773POPS   GL212106  16.085   8.045   5.527 -0.0011 -0.0785  0.0390
  773POPS   C1A12107  15.493   7.908   5.894  0.3004 -0.0415  0.2231
  773POPS   D2A12108  15.471   7.525   6.046  0.2344  0.0634  0.1460
  773POPS   C3A12109  15.252   7.281   6.297  0.0013  0.2543 -0.0902
  773POPS   C4A12110  14.822   7.150   6.306 -0.0011 -0.2178  0.0490
  773POPS   C1B12111  16.051   8.078   6.024  0.1010 -0.3970 -0.0752
  773POPS   C2B12112  15.811   7.928   6.273  0.0972  0.1083 -0.1207
  773POPS   C3B12113  15.515   7.679   6.563  0.2295  0.0686  0.0350
  773POPS   C4B12114  15.416   7.527   7.065 -0.0721 -0.1019  0.0504
  774POPS   CNO12115   2.908  10.896   5.871  0.1809  0.0520  0.2504
  774POPS   PO412116   3.113  10.518   6.058  0.0867  0.1407  0.2270
  774POPS   GL112117   3.084  10.635   6.510 -0.1639  0.0274 -0.2406
  774POPS   GL212118   2.795  10.432   6.637 -0.3882  0.2362 -0.0274
  774POPS   C1A12119   3.271  10.691   6.838  0.1071  0.0068 -0.2795
  774POPS   D2A12120   3.050  10.667   7.242  0.3546 -0.0790  0.1123
  774POPS   C3A12121   2.910  10.395   7.539 -0.0913 -0.2484  0.1186
  774POPS   C4A12122   2.942  10.020   7.606  0.0687 -0.2015 -0.1008
  774POPS   C1B12123   2.660  10.576   7.011  0.0800  0.0874  0.2039
  774POPS   C2B12124   2.487  10.574   7.495  0.0401 -0.0130  0.4436
  774POPS   C3B12125   2.432  10.703   7.783  0.1490  0.0336 -0.0656
  774POPS   C4B12126   2.304  10.729   8.210  0.0887  0.1983 -0.0574
  775POPS   CNO12127   9.362  14.141   6.001  0.1473 -0.4134  0.3268
  775POPS   PO412128   9.236  13.760   6.256  0.1116 -0.0171 -0.0116
  775POPS   GL112129   9.279  13.709   6.724  0.1846 -0.1631  0.2651
  775POPS   GL212130   9.609  13.805   6.670 -0.2317  0.0094  0.0516
  775POPS   C1A12131   9.172  13.684   7.158 -0.0562 -0.1603 -0.0570
  775POPS   D2A12132   8.922  13.604   7.518 -0.4281 -0.1770 -0.0331
  775POPS   C3A12133   8.637  13.572   7.820 -0.0014 -0.0978 -0.4282
  775POPS   C4A12134   8.415  13.481   8.121  0.1396 -0.0222  0.0478
  775POPS   C1B12135   9.660  13.858   7.179 -0.2316 -0.2422  0.4199
  775POPS   C2B12136   9.790  13.893   7.511 -0.2600  0.0324  0.0955
  775POPS   C3B12137   9.885  13.790   7.963  0.2401  0.1065 -0.0585
  775POPS   C4B12138   9.921  14.036   8.292 -0.2647  0.0825 -0.0435
  776POPS   CNO12139   2.037   4.286   5.218 -0.1733  0.1858  0.0371
  776POPS   PO412140   1.923   4.219   5.592 -0.3097 -0.1919 -0.1899
  776POPS   GL112141   2.007   3.973   5.993  0.0323  0.0123  0.0032
  776POPS   GL212142   2.087   3.717   5.970 -0.2410  0.1983  0.1730
  776POPS   C1A12143   1.845   4.127   6.400  0.1638  0.1537  0.0356
  776POPS   D2A12144   1.703   4.355   6.724 -0.0975  0.2229 -0.3299
  776POPS   C3A12145   1.739   4.551   7.161 -0.1238 -0.0029 -0.3107
  776POPS   C4A12146   1.697   4.520   7.598  0.0917  0.2570  0.0614
  776POPS   C1B12147   2.079   3.545   6.362 -0.0424  0.1776 -0.2260
  776POPS   C2B12148   2.154   3.608   6.754  0.1640  0.1762  0.1685
  776POPS   C3B12149   2.235   3.765   7.094  0.0447 -0.1093 -0.2492
  776POPS   C4B12150   2.327   3.808   7.522  0.0463  0.4556 -0.2303
  777POPS   CNO12151  14.897   1.871   5.109  0.0796 -0.0897 -0.2452
  777POPS   PO412152  14.747   1.701   5.504  0.3958  0.2263 -0.1242
  777POPS   GL112153  14.711   2.050   5.710  0.1024  0.1762  0.1396
  777POPS   GL212154  14.958   2.120   5.908  0.2328 -0.0609  0.2348
  777POPS   C1A12155  14.480   2.153   6.055 -0.0005 -0.4108  0.2719
  777POPS   D2A12156  14.371   2.359   6.453  0.0780  0.0528  0.0034
  777POPS   C3A12157  14.473   2.696   6.758  0.0405 -0.1137  0.1032
  777POPS   C4A12158  14.516   2.920   7.085 -0.2981 -0.0341 -0.0006
  777POPS   C1B12159  14.976   2.238   6.310  0.2303  0.0956 -0.0573
  777POPS   C2B12160  14.840   2.201   6.695  0.3652  0.2594 -0.0630
  777POPS   C3B12161  14.681   2.418   7.173 -0.2751 -0.2745 -0.1534
  777POPS   C4B12162  14.777   2.575   7.596  0.1853 -0.0901 -0.0902
  778POPS   CNO12163  15.922   3.547   5.297 -0.1672 -0.1198 -0.0771
  778POPS   PO412164  16.073   3.902   5.268 -0.0086  0.1180 -0.0784
  778POPS   GL112165  16.212   3.740   5.630  0.0015  0.1638 -0.0607
  778POPS   GL212166  15.974   3.636   5.841 -0.1003 -0.3418 -0.1394
  778POPS   C1A12167  16.337   3.947   5.972  0.3718  0.4227 -0.1693
  778POPS   D2A12168  16.396   4.017   6.447  0.0993  0.0209 -0.0793
  778POPS   C3A12169  16.215   4.319   6.663  0.0449  0.1176  0.0683
  778POPS   C4A12170  15.965   4.408   7.009 -0.2371 -0.0403  0.1988
  778POPS   C1B12171  15.674   3.653   6.204  0.2006  0.2791  0.0063
  778POPS   C2B12172  15.334   3.682   6.518 -0.0170  0.0815  0.0415
  778POPS   C3B12173  15.284   3.811   7.055  0.2667 -0.1116 -0.0878
  778POPS   C4B12174  15.289   3.714   7.528  0.0134 -0.0117  0.2724
  779POPS   CNO12175   0.860  14.962   5.802 -0.0715  0.2461 -0.1062
  779POPS   PO412176   0.877  14.636   6.013  0.0288  0.0923 -0.1807
  779POPS   GL112177   0.766  14.570   6.481  0.1476  0.0764 -0.2405
  779POPS   GL212178   0.664  14.276   6.381 -0.1927  0.0698  0.2211
  779POPS   C1A12179   0.844  14.844   6.799 -0.1651 -0.1104 -0.1230
  779POPS   D2A12180   0.992  14.873   7.188  0.0763 -0.0083 -0.1579
  779POPS   C3A12181   0.786  15.149   7.413  0.3675 -0.3034  0.0700
  779POPS   C4A12182   0.441  15.290   7.638 -0.1575  0.0200 -0.0569
  779POPS   C1B12183   0.698  14.163   6.750 -0.0129 -0.1558  0.0607
  779POPS   C2B12184   0.748  14.452   7.123  0.0449  0.1280 -0.0574
  779POPS   C3B12185   0.509  14.746   7.412 -0.0249  0.0197 -0.2710
  779POPS   C4B12186   0.470  14.751   7.817  0.0698  0.0482  0.0275
  780POPS   CNO12187  18.202  17.748   5.633  0.3021 -0.2390  0.0042
  780POPS   PO412188  17.942  17.490   5.788 -0.0456 -0.2006 -0.0176
  780POPS   GL112189  18.074  17.405   6.144 -0.0905 -0.1666 -0.0479
  780POPS   GL212190  18.001  17.115   6.240 -0.0705  0.0581  0.0171
  780POPS   C1A12191  18.182  17.514   6.513 -0.1404 -0.0802  0.1127
  780POPS   D2A12192  18.124  17.473   6.949 -0.0379 -0.1135 -0.2779
  780POPS   C3A12193  18.302  17.754   7.293  0.0047  0.0435 -0.1210
  780POPS   C4A12194  18.313  18.090   7.624  0.0196 -0.1956 -0.0123
  780POPS   C1B12195  18.225  17.056   6.723 -0.1363 -0.2745 -0.0517
  780POPS   C2B12196  18.397  16.975   7.120  0.2712 -0.1568  0.1484
  780POPS   C3B12197  18.333  17.145   7.554  0.0293 -0.1550  0.2751
  780POPS   C4B12198  18.446  17.177   7.973  0.0223 -0.1563  0.0403
  781POPS   CNO12199   4.345   7.202   5.793  0.0009 -0.2380 -0.0999
  781POPS   PO412200   4.444   7.145   6.239  0.1398  0.0389  0.2527
  781POPS   GL112201   4.336   7.254   6.613 -0.1624 -0.3451  0.1756
  781POPS   GL212202   4.261   7.670   6.602  0.0234  0.1085 -0.1400
  781POPS   C1A12203   4.109   7.148   6.989 -0.1501 -0.4552  0.0962
  781POPS   D2A12204   4.061   6.920   7.293 -0.1109 -0.2400 -0.1455
  781POPS   C3A12205   3.728   7.002   7.553 -0.1437 -0.4157 -0.1639
  781POPS   C4A12206   3.477   6.948   7.923  0.3058  0.0631  0.2146
  781POPS   C1B12207   4.423   7.555   7.012 -0.0173 -0.0608 -0.3321
  781POPS   C2B12208   4.264   7.396   7.438 -0.1121  0.0771  0.1584
  781POPS   C3B12209   4.015   7.355   7.876  0.1524  0.0257 -0.0306
  781POPS   C4B12210   3.788   7.400   8.215 -0.0037 -0.1722 -0.2425
  782POPS   CNO12211   1.392   3.752   5.014 -0.0324 -0.0908  0.2548
  782POPS   PO412212   1.250   3.698   5.457  0.0097 -0.0116  0.1995
  782POPS   GL112213   1.125   3.416   5.786  0.0688  0.0052 -0.0459
  782POPS   GL212214   1.260   3.137   5.784  0.2280 -0.2297  0.3664
  782POPS   C1A12215   1.031   3.456   6.159 -0.1661  0.0573 -0.3400
  782POPS   D2A12216   1.178   3.398   6.539 -0.0603 -0.2015 -0.0830
  782POPS   C3A12217   1.548   3.535   6.615 -0.0099 -0.0220 -0.3230
  782POPS   C4A12218   1.782   3.407   6.948  0.1431  0.0137 -0.0381
  782POPS   C1B12219   1.274   3.004   6.192  0.2137 -0.2092 -0.1826
  782POPS   C2B12220   0.982   2.943   6.508  0.2428 -0.2376 -0.2576
  782POPS   C3B12221   0.794   2.661   6.849 -0.1588  0.0676 -0.0527
  782POPS   C4B12222   0.833   2.513   7.242 -0.0435  0.1482  0.3501
  783POPS   CNO12223   9.465   3.356   5.452 -0.0799 -0.0852 -0.3407
  783POPS   PO412224   9.396   2.877   5.505 -0.1786  0.2379 -0.0585
  783POPS   GL112225   9.430   3.079   5.892 -0.0111  0.0880 -0.0003
  783POPS   GL212226   9.804   2.955   6.003 -0.2325 -0.2756 -0.1539
  783POPS   C1A12227   9.359   3.067   6.299  0.0483  0.0059 -0.3001
  783POPS   D2A12228   9.382   2.819   6.750 -0.0798 -0.5104 -0.1142
  783POPS   C3A12229   9.103   2.631   7.070  0.0159  0.1969 -0.4008
  783POPS   C4A12230   8.904   2.435   7.277 -0.3338 -0.2862 -0.0261
  783POPS   C1B12231   9.801   2.880   6.449 -0.0381  0.1733 -0.2891
  783POPS   C2B12232   9.961   2.835   6.890 -0.1757  0.2096  0.0411
  783POPS   C3B12233  10.068   2.664   7.282  0.0981 -0.0121 -0.0775
  783POPS   C4B12234  10.044   2.713   7.737 -0.1055 -0.1350 -0.1384
  784POPS   CNO12235  11.361   6.673   5.895  0.1248  0.4690 -0.0686
  784POPS   PO412236  11.740   6.611   5.739  0.0108  0.0457  0.1025
  784POPS   GL112237  12.073   6.509   6.042  0.0343  0.0602  0.1859
  784POPS   GL212238  12.260   6.836   6.019 -0.0297 -0.0879  0.2284
  784POPS   C1A12239  12.078   6.629   6.460 -0.0077  0.0638  0.0262
  784POPS   D2A12240  12.177   6.893   6.811  0.2263 -0.0353  0.1373
  784POPS   C3A12241  12.571   6.877   7.059  0.4675  0.3676 -0.1048
  784POPS   C4A12242  13.003   6.733   7.160  0.0010 -0.0026  0.0992
  784POPS   C1B12243  12.647   6.913   6.199 -0.1310 -0.2265 -0.1083
  784POPS   C2B12244  12.732   7.084   6.577  0.1894 -0.1795 -0.2996
  784POPS   C3B12245  12.947   7.148   6.938  0.1881  0.0083 -0.3335
  784POPS   C4B12246  13.182   7.488   7.187 -0.2010  0.6352  0.2042
  785POPS   CNO12247  16.785  11.273   5.414 -0.0379 -0.0626 -0.1336
  785POPS   PO412248  16.486  11.101   5.759  0.1078  0.1894 -0.1365
  785POPS   GL112249  16.361  11.290   6.102  0.5048  0.0140 -0.2846
  785POPS   GL212250  16.321  10.894   6.224  0.1149 -0.1340 -0.0932
  785POPS   C1A12251  16.419  11.634   6.440 -0.1327  0.1061  0.0468
  785POPS   D2A12252  16.783  11.713   6.728  0.0811 -0.0709  0.0923
  785POPS   C3A12253  16.721  11.616   7.065 -0.1141  0.2175 -0.1593
  785POPS   C4A12254  16.630  11.600   7.445 -0.0794 -0.4258  0.1414
  785POPS   C1B12255  16.224  10.800   6.639 -0.2906  0.2353 -0.0340
  785POPS   C2B12256  16.150  10.807   7.056  0.3221 -0.0007  0.0617
  785POPS   C3B12257  16.051  10.747   7.536  0.1365  0.3076  0.2373
  785POPS   C4B12258  16.192  10.850   7.949  0.0881 -0.0186 -0.0074
  786POPS   CNO12259   1.883   1.350   5.499  0.1560  0.0816  0.2056
  786POPS   PO412260   1.549   1.397   5.866  0.0626  0.0018  0.1191
  786POPS   GL112261   1.478   1.259   6.257  0.1123 -0.1272  0.0671
  786POPS   GL212262   1.363   0.969   6.262 -0.0192  0.0744 -0.0763
  786POPS   C1A12263   1.488   1.156   6.707 -0.1945  0.0117  0.1178
  786POPS   D2A12264   1.402   1.553   6.934 -0.0540 -0.1501 -0.1562
  786POPS   C3A12265   1.128   1.608   7.173  0.1203  0.2349  0.1158
  786POPS   C4A12266   0.823   1.470   7.408  0.1541 -0.0516  0.2348
  786POPS   C1B12267   0.949   1.064   6.404  0.1712  0.3122  0.3294
  786POPS   C2B12268   0.648   0.984   6.727 -0.1917 -0.0761 -0.1714
  786POPS   C3B12269   0.628   1.025   7.155  0.0479 -0.2291  0.0234
  786POPS   C4B12270   0.552   0.665   7.379 -0.0553  0.1998 -0.0768
  787POPS   CNO12271   1.249   5.940   5.552  0.0575  0.3039 -0.2310
  787POPS   PO412272   1.202   5.881   5.887 -0.0983 -0.2771  0.3065
  787POPS   GL112273   1.330   6.208   6.177 -0.0690  0.3323 -0.0899
  787POPS   GL212274   1.414   6.064   6.358  0.0230  0.1492 -0.3488
  787POPS   C1A12275   1.098   6.499   6.380  0.1547  0.0621  0.0031
  787POPS   D2A12276   0.962   6.707   6.775 -0.2612 -0.0248  0.3887
  787POPS   C3A12277   1.157   6.616   7.221 -0.2017  0.0390  0.2577
  787POPS   C4A12278   1.118   7.056   7.492  0.1164  0.0493  0.1778
  787POPS   C1B12279   1.474   6.228   6.789  0.0809 -0.1916 -0.0211
  787POPS   C2B12280   1.296   5.949   7.179 -0.1974  0.1302 -0.0578
  787POPS   C3B12281   1.213   5.761   7.698 -0.0354 -0.6301  0.0221
  787POPS   C4B12282   0.943   5.650   7.995 -0.1017 -0.2704 -0.1234
  788POPS   CNO12283  17.410   4.436   5.078  0.2025  0.0933 -0.0707
  788POPS   PO412284  17.435   4.646   5.486 -0.1341 -0.2148  0.0567
  788POPS   GL112285  17.522   4.773   5.898 -0.1169 -0.1801 -0.3238
  788POPS   GL212286  17.771   5.005   5.903 -0.0150 -0.0444 -0.0871
  788POPS   C1A12287  17.587   4.921   6.363 -0.1596 -0.3091 -0.1280
  788POPS   D2A12288  17.641   4.852   6.816  0.0596 -0.0742 -0.3614
  788POPS   C3A12289  17.330   4.739   7.074  0.0316 -0.3262 -0.0275
  788POPS   C4A12290  17.330   4.532   7.496  0.0455 -0.0204 -0.0812
  788POPS   C1B12291  17.815   5.351   6.285  0.0981 -0.1830 -0.4095
  788POPS   C2B12292  17.648   5.349   6.738  0.1554  0.0649  0.1863
  788POPS   C3B12293  17.582   5.155   7.190 -0.3764 -0.0118  0.5772
  788POPS   C4B12294  17.685   4.853   7.524  0.2824  0.0146  0.2081
  789POPS   CNO12295  13.824   1.959   5.441 -0.2525 -0.1478 -0.0759
  789POPS   PO412296  13.570   1.645   5.574  0.2652 -0.3061 -0.0301
  789POPS   GL112297  13.652   1.880   5.907 -0.0083  0.2597  0.0242
  789POPS   GL212298  13.837   2.205   5.887 -0.0635 -0.2108  0.3721
  789POPS   C1A12299  13.730   1.872   6.341  0.2373  0.0688  0.1584
  789POPS   D2A12300  14.030   2.035   6.684  0.1389 -0.0592 -0.1260
  789POPS   C3A12301  14.127   2.342   6.968 -0.2319 -0.1998  0.0966
  789POPS   C4A12302  14.251   2.472   7.311  0.0918 -0.1349  0.3199
  789POPS   C1B12303  13.941   2.449   6.192  0.0379 -0.0906  0.2227
  789POPS   C2B12304  14.000   2.696   6.546 -0.1760  0.0128  0.0581
  789POPS   C3B12305  13.938   2.881   6.990 -0.0476 -0.0413  0.1979
  789POPS   C4B12306  13.938   2.835   7.456  0.1775  0.0127  0.1745
  790POPS   CNO12307   4.188   3.078   5.792  0.2710 -0.1332  0.0373
  790POPS   PO412308   4.016   3.449   5.632  0.0140  0.1846  0.0973
  790POPS   GL112309   3.924   3.553   6.006 -0.1380 -0.0384 -0.5266
  790POPS   GL212310   3.962   3.730   6.234 -0.1069 -0.1327 -0.3923
  790POPS   C1A12311   3.902   3.311   6.440  0.0009  0.1056  0.0472
  790POPS   D2A12312   3.890   3.475   6.865  0.2350 -0.0218  0.2676
  790POPS   C3A12313   4.159   3.260   7.114  0.1746  0.0418  0.0862
  790POPS   C4A12314   4.296   3.225   7.504 -0.0237 -0.0252  0.1360
  790POPS   C1B12315   4.227   3.694   6.560  0.1292  0.0328 -0.1783
  790POPS   C2B12316   4.445   3.680   6.953 -0.2595 -0.2053 -0.2175
  790POPS   C3B12317   4.654   3.443   7.243 -0.0485 -0.0451 -0.0080
  790POPS   C4B12318   4.881   3.450   7.627  0.2000 -0.0221 -0.1599
  791POPS   CNO12319   2.378   2.384   6.333 -0.1690  0.3025  0.2398
  791POPS   PO412320   2.320   1.938   6.067  0.0062 -0.2048 -0.0479
  791POPS   GL112321   2.109   1.946   6.404 -0.1769 -0.1393 -0.1859
  791POPS   GL212322   1.827   2.139   6.250 -0.1431  0.0431  0.3689
  791POPS   C1A12323   1.923   2.047   6.707  0.1903  0.0605  0.2105
  791POPS   D2A12324   1.706   2.172   7.042  0.1511 -0.0857 -0.0557
  791POPS   C3A12325   1.711   2.379   7.339  0.0420 -0.3198  0.2142
  791POPS   C4A12326   1.662   2.520   7.704 -0.1792 -0.0122 -0.2146
  791POPS   C1B12327   1.388   2.082   6.416 -0.0392 -0.0789  0.1314
  791POPS   C2B12328   1.276   2.001   6.786 -0.0520 -0.0559 -0.1928
  791POPS   C3B12329   1.188   2.148   7.208 -0.1232 -0.0446  0.1002
  791POPS   C4B12330   1.439   2.096   7.684  0.1930 -0.1638  0.2677
  792POPS   CNO12331  11.723   1.668   5.022 -0.1937 -0.2207  0.0478
  792POPS   PO412332  12.050   1.749   5.367  0.0588  0.1322 -0.2243
  792POPS   GL112333  12.229   1.848   5.782  0.0882 -0.1086  0.2498
  792POPS   GL212334  12.197   1.567   5.967  0.3712 -0.1932 -0.1601
  792POPS   C1A12335  12.168   2.211   6.131  0.1006  0.1955 -0.0709
  792POPS   D2A12336  11.963   2.282   6.567  0.1627 -0.0934 -0.1474
  792POPS   C3A12337  11.602   2.069   6.564  0.1079 -0.3439  0.0366
  792POPS   C4A12338  11.453   1.528   6.567 -0.1698 -0.2649 -0.0932
  792POPS   C1B12339  12.028   1.782   6.416 -0.0289  0.0697 -0.1056
  792POPS   C2B12340  11.887   1.714   6.806  0.0546  0.0218  0.0760
  792POPS   C3B12341  11.578   1.562   7.102 -0.0420 -0.2253  0.0324
  792POPS   C4B12342  11.332   1.216   7.307  0.1170 -0.0967  0.1266
  793POPS   CNO12343   0.474   6.942   5.111  0.2648  0.0681  0.0967
  793POPS   PO412344   0.485   7.194   5.613 -0.0315  0.2685  0.0799
  793POPS   GL112345   0.572   7.003   6.008 -0.0318 -0.1326 -0.0672
  793POPS   GL212346   0.237   6.950   6.049  0.0049 -0.2515 -0.3056
  793POPS   C1A12347   0.703   6.941   6.382 -0.1100 -0.0566 -0.0644
  793POPS   D2A12348   0.718   7.194   6.766  0.1684  0.0767  0.3219
  793POPS   C3A12349   0.685   6.899   7.154  0.0682  0.2391 -0.2417
  793POPS   C4A12350   0.576   6.529   7.375 -0.0213 -0.2539  0.1484
  793POPS   C1B12351   0.023   6.766   6.310  0.0783 -0.2344  0.1489
  793POPS   C2B12352  -0.191   6.662   6.722  0.0482 -0.2182  0.0026
  793POPS   C3B12353  -0.302   6.480   7.079 -0.1188  0.0568 -0.1069
  793POPS   C4B12354  -0.290   6.277   7.426  0.0186  0.2147  0.1142
  794POPS   CNO12355   4.151  12.415   5.662 -0.0433 -0.2830  0.1241
  794POPS   PO412356   4.559  12.554   5.866  0.0168 -0.0340  0.1056
  794POPS   GL112357   4.675  12.290   6.110 -0.2174  0.0970 -0.1519
  794POPS   GL212358   5.017  12.072   6.042  0.2524  0.1784 -0.2724
  794POPS   C1A12359   4.746  12.068   6.495 -0.1713 -0.0101  0.1283
  794POPS   D2A12360   5.058  12.127   6.828 -0.0126 -0.1459 -0.2604
  794POPS   C3A12361   5.118  12.119   7.246  0.2609 -0.0164  0.2683
  794POPS   C4A12362   5.348  12.267   7.599 -0.0767  0.0269 -0.0336
  794POPS   C1B12363   5.305  12.046   6.382 -0.0034 -0.0756 -0.0065
  794POPS   C2B12364   5.435  11.749   6.679  0.1943 -0.2054 -0.0225
  794POPS   C3B12365   5.624  11.475   6.917  0.1673  0.0504 -0.2194
  794POPS   C4B12366   5.545  11.327   7.248  0.1127  0.0078  0.1469
  795POPS   CNO12367   4.541  11.731   6.169 -0.2458 -0.1472 -0.0397
  795POPS   PO412368   4.965  11.576   5.948  0.1141  0.0446 -0.2642
  795POPS   GL112369   5.115  11.527   6.359  0.0985  0.1112  0.4172
  795POPS   GL212370   5.405  11.312   6.352 -0.1346  0.0251  0.1726
  795POPS   C1A12371   4.902  11.569   6.676 -0.1376  0.1372 -0.0956
  795POPS   D2A12372   5.172  11.619   7.046  0.1613 -0.0710  0.0144
  795POPS   C3A12373   5.080  11.606   7.501 -0.0567 -0.1815 -0.2828
  795POPS   C4A12374   5.007  11.951   7.807 -0.1659 -0.0962  0.1465
  795POPS   C1B12375   5.202  11.158   6.742  0.0119 -0.0901  0.0910
  795POPS   C2B12376   5.035  11.136   7.187 -0.1139 -0.0069  0.0426
  795POPS   C3B12377   4.742  11.252   7.605  0.0715  0.2550 -0.0268
  795POPS   C4B12378   4.830  11.458   7.952 -0.3340  0.1076 -0.2004
  796POPS   CNO12379  10.223   3.195   5.089  0.0455 -0.0134 -0.0817
  796POPS   PO412380   9.924   3.537   5.350 -0.0945  0.0311 -0.1614
  796POPS   GL112381   9.968   3.538   5.805  0.2406  0.2888  0.2078
  796POPS   GL212382   9.716   3.543   5.902  0.0113 -0.0793  0.2782
  796POPS   C1A12383  10.243   3.590   6.007  0.0714  0.3170  0.2639
  796POPS   D2A12384  10.296   3.807   6.427 -0.1653  0.2514 -0.1042
  796POPS   C3A12385  10.167   3.842   6.838 -0.3181 -0.2115  0.0693
  796POPS   C4A12386  10.031   3.844   7.246  0.0818  0.2164 -0.3249
  796POPS   C1B12387   9.715   3.426   6.292  0.0168 -0.0526  0.0857
  796POPS   C2B12388   9.633   3.302   6.671  0.2516 -0.1353 -0.4196
  796POPS   C3B12389   9.615   3.121   7.076 -0.0477  0.0752 -0.0416
  796POPS   C4B12390   9.654   3.152   7.579 -0.0981  0.2232  0.1296
  797POPS   CNO12391  13.187   0.402   5.523 -0.3144  0.0338  0.1348
  797POPS   PO412392  13.299   0.467   5.996 -0.2555  0.3132 -0.1702
  797POPS   GL112393  13.721   0.487   6.173  0.3758 -0.0975 -0.1218
  797POPS   GL212394  13.738   0.175   6.133  0.0257 -0.1285  0.1451
  797POPS   C1A12395  13.904   0.643   6.447  0.1257  0.0574 -0.1608
  797POPS   D2A12396  13.908   0.773   6.821  0.1057 -0.2134  0.0990
  797POPS   C3A12397  13.966   0.657   7.279  0.0545  0.1171 -0.0859
  797POPS   C4A12398  13.825   0.693   7.701 -0.1206 -0.1714 -0.0500
  797POPS   C1B12399  13.768  -0.006   6.573 -0.1769  0.2823  0.3767
  797POPS   C2B12400  13.686  -0.111   7.004 -0.0224 -0.2102  0.0513
  797POPS   C3B12401  13.594  -0.165   7.418 -0.2711 -0.1302 -0.1060
  797POPS   C4B12402  13.270  -0.248   7.663  0.0479  0.1350 -0.0190
  798POPS   CNO12403  10.947  14.085   5.394 -0.0423  0.3578  0.1467
  798POPS   PO412404  10.880  14.476   5.617 -0.0338 -0.2929  0.2552
  798POPS   GL112405  10.742  14.429   6.093 -0.1509  0.2132 -0.1842
  798POPS   GL212406  10.720  14.141   6.202 -0.0823  0.1110 -0.4050
  798POPS   C1A12407  10.732  14.542   6.516  0.0130 -0.1136  0.0101
  798POPS   D2A12408  10.397  14.502   6.800  0.0854  0.0688 -0.3000
  798POPS   C3A12409  10.406  14.569   7.219 -0.0677 -0.0914 -0.0272
  798POPS   C4A12410  10.376  14.811   7.525  0.2799 -0.0379 -0.2597
  798POPS   C1B12411  11.021  13.999   6.474 -0.1055  0.1880  0.1652
  798POPS   C2B12412  10.972  13.853   6.934  0.1759 -0.0330 -0.1467
  798POPS   C3B12413  10.622  13.578   7.028 -0.0883 -0.0393 -0.2431
  798POPS   C4B12414  10.471  13.268   6.976  0.0578 -0.1070 -0.3245
  799POPS   CNO12415   4.049  15.877   5.487 -0.0739  0.1016  0.2564
  799POPS   PO412416   4.179  15.810   5.817  0.1387 -0.0459 -0.0075
  799POPS   GL112417   4.016  15.694   6.235 -0.2193 -0.0367 -0.1536
  799POPS   GL212418   4.026  16.024   6.307  0.1323  0.0170 -0.1475
  799POPS   C1A12419   4.068  15.637   6.686  0.0768 -0.0925 -0.0586
  799POPS   D2A12420   4.031  15.786   7.080  0.0822 -0.1182  0.1244
  799POPS   C3A12421   4.013  15.594   7.551 -0.1987  0.2396 -0.2689
  799POPS   C4A12422   3.962  15.856   7.961 -0.2768  0.2729 -0.0919
  799POPS   C1B12423   4.205  16.221   6.549 -0.0168  0.0019  0.0699
  799POPS   C2B12424   4.268  16.227   6.904 -0.0693  0.1910  0.1714
  799POPS   C3B12425   4.398  16.038   7.305 -0.0774  0.1096 -0.2190
  799POPS   C4B12426   4.318  16.177   7.693 -0.1531  0.0328 -0.1377
  800POPS   CNO12427  16.440   0.242   5.607  0.0531  0.1172  0.0364
  800POPS   PO412428  16.816   0.585   5.445  0.0278  0.0007 -0.0011
  800POPS   GL112429  16.936   0.600   5.973  0.1350  0.3016 -0.1523
  800POPS   GL212430  16.796   0.849   6.107 -0.2871  0.0289 -0.1209
  800POPS   C1A12431  16.842   0.444   6.473  0.3138  0.3005  0.1209
  800POPS   D2A12432  16.788   0.068   6.759 -0.1326  0.1454  0.0950
  800POPS   C3A12433  17.035   0.179   7.079  0.0279  0.1386 -0.1533
  800POPS   C4A12434  17.392   0.156   7.457 -0.0783 -0.0062 -0.0338
  800POPS   C1B12435  16.797   0.969   6.464  0.1431  0.0097  0.0305
  800POPS   C2B12436  16.691   0.922   6.865 -0.0911  0.1658  0.0189
  800POPS   C3B12437  16.923   1.063   7.131  0.4600 -0.0980  0.0427
  800POPS   C4B12438  16.955   0.962   7.619  0.0044 -0.1480 -0.0264
  801POPS   CNO12439   2.890  14.159   5.877  0.3358 -0.0931  0.1398
  801POPS   PO412440   2.843  13.994   6.313  0.1213 -0.0586 -0.0126
  801POPS   GL112441   2.931  13.810   6.773 -0.0041 -0.0503  0.2111
  801POPS   GL212442   3.176  13.834   6.942  0.1238  0.2130  0.0143
  801POPS   C1A12443   2.723  13.813   7.107  0.0972 -0.0778 -0.1886
  801POPS   D2A12444   2.536  13.795   7.527  0.2202 -0.1174  0.0212
  801POPS   C3A12445   2.670  13.677   7.947 -0.3013  0.1584 -0.0786
  801POPS   C4A12446   2.648  13.845   8.352 -0.0950  0.2981 -0.0333
  801POPS   C1B12447   3.052  14.066   7.268 -0.1212 -0.3560 -0.2098
  801POPS   C2B12448   3.362  14.260   7.558 -0.1730  0.3505  0.2596
  801POPS   C3B12449   3.614  14.420   7.866  0.1589 -0.1207  0.1899
  801POPS   C4B12450   3.731  14.800   8.101 -0.1039 -0.0373  0.0947
  802POPS   CNO12451   0.395  14.154   5.380 -0.2127  0.0578  0.2373
  802POPS   PO412452   0.148  14.094   5.767  0.0254 -0.3329 -0.1943
  802POPS   GL112453   0.144  14.215   6.137  0.0856  0.2332  0.0612
  802POPS   GL212454   0.239  14.515   6.275  0.1731  0.0270 -0.0982
  802POPS   C1A12455   0.162  14.099   6.560 -0.2457 -0.0194 -0.5736
  802POPS   D2A12456   0.420  13.737   6.748  0.2306  0.0175 -0.1666
  802POPS   C3A12457   0.601  13.862   7.170  0.1327  0.0639 -0.0045
  802POPS   C4A12458   0.771  14.079   7.510 -0.1144  0.0409  0.0384
  802POPS   C1B12459   0.329  14.545   6.643 -0.1068  0.3758 -0.2697
  802POPS   C2B12460   0.302  14.265   7.033  0.1158  0.2719 -0.2778
  802POPS   C3B12461   0.329  14.298   7.484  0.0223  0.0547  0.0184
  802POPS   C4B12462   0.077  14.416   7.851 -0.1276 -0.0958  0.0262
  803POPS   CNO12463   0.505  17.262   5.186  0.1152 -0.1562  0.2820
  803POPS   PO412464   0.385  17.630   5.441 -0.1112  0.1954  0.0284
  803POPS   GL112465   0.398  17.386   5.747  0.0507  0.0985 -0.1412
  803POPS   GL212466   0.107  17.298   5.843  0.0333  0.0136  0.0068
  803POPS   C1A12467   0.604  17.211   6.191 -0.1047 -0.1494  0.1526
  803POPS   D2A12468   0.843  17.407   6.530 -0.0946 -0.1946 -0.1636
  803POPS   C3A12469   0.758  17.494   6.953  0.3545 -0.1713 -0.1971
  803POPS   C4A12470   0.772  17.650   7.373  0.1283  0.0687  0.1337
  803POPS   C1B12471   0.134  17.057   6.261 -0.3106 -0.2315 -0.0498
  803POPS   C2B12472   0.411  17.024   6.591  0.2717  0.0078  0.0517
  803POPS   C3B12473   0.598  16.831   7.003 -0.0008 -0.0427 -0.1074
  803POPS   C4B12474   0.957  16.548   7.203  0.1247 -0.1059 -0.2567
  804POPS   CNO12475  13.905   5.161   5.382 -0.2921 -0.0337 -0.3656
  804POPS   PO412476  14.190   5.370   5.548  0.0309 -0.1939  0.2632
  804POPS   GL112477  14.451   5.346   5.868  0.3078 -0.0914  0.1133
  804POPS   GL212478  14.618   5.080   5.806 -0.1489 -0.1154  0.1507
  804POPS   C1A12479  14.510   5.380   6.343  0.1718 -0.1102  0.1468
  804POPS   D2A12480  14.535   5.444   6.809 -0.0807 -0.1851  0.0833
  804POPS   C3A12481  14.713   5.230   7.068 -0.1978  0.0178  0.0802
  804POPS   C4A12482  14.696   5.027   7.452 -0.1435 -0.1690 -0.1719
  804POPS   C1B12483  14.639   4.909   6.208  0.1860  0.0586 -0.0501
  804POPS   C2B12484  14.578   4.934   6.612 -0.2479  0.1308 -0.0577
  804POPS   C3B12485  14.783   4.683   6.998  0.1035 -0.3493 -0.0218
  804POPS   C4B12486  14.797   4.334   7.304 -0.0228  0.0225 -0.0505
  805POPS   CNO12487   3.134  12.586   5.778  0.1452  0.1247 -0.1428
  805POPS   PO412488   3.306  12.499   6.095 -0.1744  0.0401 -0.1769
  805POPS   GL112489   3.444  12.390   6.499 -0.0662  0.1749 -0.1754
  805POPS   GL212490   3.739  12.519   6.481 -0.1433 -0.1039 -0.0845
  805POPS   C1A12491   3.516  12.191   6.917 -0.0842  0.0629  0.2096
  805POPS   D2A12492   3.502  12.118   7.245 -0.0195 -0.1429  0.2101
  805POPS   C3A12493   3.885  12.036   7.446 -0.0166  0.0890  0.1045
  805POPS   C4A12494   4.030  11.758   7.706  0.3361  0.0729  0.2534
  805POPS   C1B12495   4.051  12.369   6.751  0.1264  0.0419 -0.0576
  805POPS   C2B12496   4.234  12.228   7.134  0.0072 -0.0057 -0.0683
  805POPS   C3B12497   4.372  12.270   7.472  0.0670 -0.0867  0.2043
  805POPS   C4B12498   4.533  12.238   7.894  0.0086  0.2299  0.0468
  806POPS   CNO12499   7.652  11.080   5.982  0.2660 -0.3323 -0.0079
  806POPS   PO412500   7.591  11.455   6.095  0.4057  0.2765  0.0018
  806POPS   GL112501   7.686  11.539   6.554  0.1062 -0.1702  0.0251
  806POPS   GL212502   7.371  11.457   6.746 -0.2272  0.0591 -0.0847
  806POPS   C1A12503   7.698  11.780   7.029 -0.1387 -0.1615  0.0726
  806POPS   D2A12504   7.734  11.974   7.411 -0.3313  0.1124  0.0740
  806POPS   C3A12505   8.023  12.340   7.548  0.7090  0.1689  0.0582
  806POPS   C4A12506   8.055  12.543   8.032 -0.2999 -0.0972 -0.3029
  806POPS   C1B12507   7.167  11.802   6.823  0.2585 -0.1102  0.0004
  806POPS   C2B12508   7.262  11.737   7.262 -0.1376  0.3591 -0.1007
  806POPS   C3B12509   7.383  11.652   7.653 -0.1409  0.2563 -0.1152
  806POPS   C4B12510   7.426  11.797   8.128 -0.0479  0.0685  0.1128
  807POPS   CNO12511  12.685  16.557   6.167  0.0331  0.0605 -0.1783
  807POPS   PO412512  12.303  16.471   6.235 -0.0291 -0.0228  0.1383
  807POPS   GL112513  12.321  16.781   6.462 -0.0048 -0.4042 -0.2048
  807POPS   GL212514  11.999  16.807   6.583 -0.0889  0.1911  0.0726
  807POPS   C1A12515  12.368  16.853   6.874  0.1623 -0.1037  0.0408
  807POPS   D2A12516  12.334  17.128   7.230 -0.2419 -0.1684 -0.0447
  807POPS   C3A12517  12.669  17.149   7.545  0.2042  0.2779 -0.0177
  807POPS   C4A12518  13.052  17.403   7.696 -0.1533 -0.0985  0.2027
  807POPS   C1B12519  11.966  16.699   7.063 -0.1150  0.0256 -0.1636
  807POPS   C2B12520  12.063  16.593   7.382  0.3364 -0.0710 -0.1091
  807POPS   C3B12521  11.869  16.280   7.650  0.0632 -0.2981 -0.1731
  807POPS   C4B12522  11.641  16.362   8.050  0.3861  0.0132 -0.0756
  808POPS   CNO12523   0.910  11.428   5.837  0.0923  0.0811 -0.0092
  808POPS   PO412524   0.505  11.222   5.963 -0.1369  0.3313 -0.1437
  808POPS   GL112525   0.487  11.035   6.301 -0.0102 -0.2097  0.0821
  808POPS   GL212526   0.828  10.957   6.441 -0.1666 -0.5001  0.0702
  808POPS   C1A12527   0.458  10.878   6.756  0.1208 -0.0922 -0.0462
  808POPS   D2A12528   0.325  10.426   6.898  0.0392 -0.2111 -0.2399
  808POPS   C3A12529   0.266  10.411   7.298 -0.0375 -0.1394  0.2475
  808POPS   C4A12530   0.217  10.643   7.652  0.1302 -0.1308 -0.0336
  808POPS   C1B12531   1.052  11.074   6.786 -0.1392  0.0412 -0.1507
  808POPS   C2B12532   0.952  11.043   7.252 -0.2127 -0.3738 -0.1971
  808POPS   C3B12533   1.078  10.792   7.687  0.1929  0.0138 -0.1324
  808POPS   C4B12534   0.874  10.656   7.985 -0.1558 -0.0285  0.2006
  809POPS   CNO12535   4.208   0.688   5.805  0.1003 -0.2710 -0.0955
  809POPS   PO412536   4.122   0.237   5.906  0.1720 -0.3014 -0.0785
  809POPS   GL112537   4.239  -0.097   6.276 -0.1027 -0.0169  0.0049
  809POPS   GL212538   4.568  -0.032   6.445  0.0710 -0.1625  0.1893
  809POPS   C1A12539   4.348  -0.532   6.419  0.2878 -0.1211 -0.2223
  809POPS   D2A12540   4.365  -1.011   6.406 -0.1082 -0.0264 -0.0926
  809POPS   C3A12541   4.288  -1.113   6.891  0.2061 -0.1122 -0.0398
  809POPS   C4A12542   3.813  -1.283   7.017 -0.2585  0.0678  0.1721
  809POPS   C1B12543   4.282   0.007   6.782 -0.1306 -0.5031  0.0451
  809POPS   C2B12544   4.489  -0.023   7.170  0.2731 -0.1664 -0.0254
  809POPS   C3B12545   4.928  -0.003   7.115  0.2937 -0.0928 -0.0201
  809POPS   C4B12546   5.138   0.073   7.433  0.2586  0.0488 -0.0710
  810POPS   CNO12547   5.007  15.212   5.489  0.1376  0.0012  0.0591
  810POPS   PO412548   4.743  15.099   5.844  0.0177 -0.1465  0.1532
  810POPS   GL112549   4.900  15.162   6.162 -0.2420 -0.0847 -0.3441
  810POPS   GL212550   4.741  15.247   6.417  0.2377  0.1053  0.0609
  810POPS   C1A12551   5.207  14.972   6.375 -0.0422  0.0390 -0.1269
  810POPS   D2A12552   5.409  15.268   6.646  0.1464 -0.1980 -0.2525
  810POPS   C3A12553   5.371  15.533   6.991  0.3294 -0.1623 -0.2205
  810POPS   C4A12554   5.270  15.851   7.199 -0.2061 -0.1849 -0.2921
  810POPS   C1B12555   4.866  15.209   6.847  0.0423  0.0567  0.2630
  810POPS   C2B12556   4.913  15.133   7.235 -0.0310  0.0176  0.1499
  810POPS   C3B12557   4.992  14.901   7.653 -0.1961 -0.0245  0.3590
  810POPS   C4B12558   5.032  14.508   7.892  0.1848 -0.1598 -0.0372
  811POPS   CNO12559   9.447  10.497   6.191 -0.0384 -0.1776 -0.0889
  811POPS   PO412560   9.927  10.558   6.161 -0.1953 -0.1439 -0.0236
  811POPS   GL112561   9.807  10.478   6.619 -0.0553 -0.3622  0.0244
  811POPS   GL212562   9.827  10.726   6.680 -0.0039  0.3514  0.1705
  811POPS   C1A12563   9.665  10.166   6.914 -0.1707  0.0191 -0.1833
  811POPS   D2A12564   9.655   9.988   7.392 -0.1453 -0.2926 -0.1979
  811POPS   C3A12565   9.421   9.878   7.735 -0.0127 -0.0194 -0.0359
  811POPS   C4A12566   9.008   9.916   7.889  0.0943 -0.0741 -0.1119
  811POPS   C1B12567   9.798  10.638   7.125  0.1436 -0.1408  0.1383
  811POPS   C2B12568   9.689  10.487   7.503 -0.2404 -0.2837 -0.1448
  811POPS   C3B12569   9.834  10.205   7.861  0.2161 -0.0013 -0.0920
  811POPS   C4B12570  10.021   9.829   8.148  0.1448 -0.0272 -0.0440
  812POPS   CNO12571   8.129  13.621   5.609 -0.0993 -0.3249 -0.2144
  812POPS   PO412572   7.735  13.891   5.821  0.0566  0.0180  0.1213
  812POPS   GL112573   7.731  13.880   6.236 -0.1388 -0.2512  0.3256
  812POPS   GL212574   7.646  13.626   6.300 -0.0731 -0.1159  0.3037
  812POPS   C1A12575   7.885  13.959   6.574  0.0086  0.0782  0.1297
  812POPS   D2A12576   7.759  14.210   6.781 -0.1738  0.0318  0.0498
  812POPS   C3A12577   7.452  14.332   7.113  0.1133  0.1649 -0.0397
  812POPS   C4A12578   7.149  14.615   7.214  0.2163  0.2696 -0.1921
  812POPS   C1B12579   7.486  13.657   6.673  0.0354 -0.2373 -0.0216
  812POPS   C2B12580   7.446  13.832   7.032  0.3533 -0.1708  0.2650
  812POPS   C3B12581   7.620  13.956   7.401 -0.0824 -0.1334 -0.1442
  812POPS   C4B12582   7.932  14.046   7.689  0.0028 -0.0598 -0.0780
  813POPS   CNO12583   1.948   9.747   6.021  0.2426 -0.0234  0.1922
  813POPS   PO412584   1.719   9.379   6.147  0.1713  0.1136 -0.1341
  813POPS   GL112585   1.523   9.217   6.532  0.2314 -0.0034  0.2199
  813POPS   GL212586   1.670   8.926   6.536  0.0209 -0.0377  0.1082
  813POPS   C1A12587   1.406   9.069   6.993  0.0879  0.2410 -0.1057
  813POPS   D2A12588   1.296   9.064   7.461  0.1297  0.2243 -0.1614
  813POPS   C3A12589   1.055   8.789   7.814 -0.1355  0.0448  0.0623
  813POPS   C4A12590   0.906   8.529   8.138 -0.0906  0.0738 -0.1109
  813POPS   C1B12591   1.785   8.787   6.903 -0.1651  0.1056  0.2533
  813POPS   C2B12592   1.729   8.723   7.312  0.0717  0.2115 -0.0142
  813POPS   C3B12593   1.621   8.782   7.740  0.2027  0.2394 -0.0424
  813POPS   C4B12594   1.834   8.964   8.219 -0.0945 -0.0872 -0.2182
  814YOPS   CNO12595   5.859  12.559   5.874  0.1524 -0.2096  0.2807
  814YOPS   PO412596   5.885  12.278   6.196 -0.2681 -0.0561  0.1044
  814YOPS   GL112597   5.724  12.465   6.536 -0.1417  0.1881 -0.0678
  814YOPS   GL212598   5.811  12.713   6.722 -0.1857  0.1188 -0.0326
  814YOPS   C1A12599   5.514  12.218   6.951 -0.1287 -0.0404  0.1254
  814YOPS   D2A12600   5.550  11.861   7.252  0.0351 -0.3120 -0.1145
  814YOPS   C3A12601   5.458  11.778   7.723 -0.1362  0.2486  0.1592
  814YOPS   C4A12602   5.468  11.311   7.789  0.1557  0.1134  0.0132
  814YOPS   C1B12603   5.804  12.576   7.151  0.3546 -0.1104  0.0165
  814YOPS   C2B12604   6.000  12.515   7.561  0.1762 -0.0604  0.0730
  814YOPS   D3B12605   6.185  12.522   7.969 -0.0264 -0.1391  0.0868
  814YOPS   C4B12606   5.888  12.389   8.203  0.2293  0.0981  0.2287
  815YOPS   CNO12607  12.698   0.217   5.485 -0.0960 -0.2949  0.0276
  815YOPS   PO412608  12.922  -0.053   5.802 -0.1382 -0.1429 -0.1671
  815YOPS   GL112609  12.881   0.139   6.180 -0.0713  0.1009 -0.1657
  815YOPS   GL212610  13.025   0.517   6.393  0.2159 -0.1572 -0.1376
  815YOPS   C1A12611  12.692   0.109   6.583 -0.3802 -0.0543  0.1631
  815YOPS   D2A12612  12.597   0.331   6.975 -0.2145 -0.0650  0.1506
  815YOPS   C3A12613  12.623   0.041   7.398 -0.3219 -0.1062  0.1129
  815YOPS   C4A12614  12.428   0.240   7.760  0.0238  0.1663 -0.2155
  815YOPS   C1B12615  13.037   0.537   6.774  0.0813  0.2136 -0.3610
  815YOPS   C2B12616  12.954   0.616   7.080 -0.1180 -0.0328  0.0181
  815YOPS   D3B12617  12.602   0.530   7.400  0.1329  0.2620  0.0920
  815YOPS   C4B12618  12.276   0.480   7.353  0.2112  0.0074  0.1566
  816YOPS   CNO12619   4.698  10.340   5.362  0.1394  0.1535 -0.1364
  816YOPS   PO412620   5.004  10.569   5.600  0.3538 -0.1923 -0.1605
  816YOPS   GL112621   4.981  10.611   6.106  0.0817  0.2816 -0.3152
  816YOPS   GL212622   5.206  10.590   6.352 -0.0662 -0.1790  0.3573
  816YOPS   C1A12623   4.903  11.032   6.329  0.0543 -0.1442  0.0237
  816YOPS   D2A12624   4.590  11.314   6.425  0.2780  0.1017 -0.1050
  816YOPS   C3A12625   4.416  11.407   6.840 -0.0749  0.4453 -0.0454
  816YOPS   C4A12626   4.637  11.462   7.174  0.0455 -0.0455 -0.0345
  816YOPS   C1B12627   5.060  10.675   6.670  0.1400 -0.1118  0.0400
  816YOPS   C2B12628   4.992  10.667   7.092  0.3625 -0.0257  0.1879
  816YOPS   D3B12629   4.948  10.505   7.420 -0.0980 -0.0349  0.1425
  816YOPS   C4B12630   4.794  10.516   7.858  0.1020  0.3387 -0.2630
  817YOPS   CNO12631   3.621   6.234   5.820  0.0170  0.1845 -0.0477
  817YOPS   PO412632   3.336   5.931   6.075  0.0327 -0.3067 -0.2400
  817YOPS   GL112633   2.925   6.064   6.402 -0.0219  0.3476  0.2067
  817YOPS   GL212634   3.131   6.222   6.595 -0.0572  0.0104 -0.3009
  817YOPS   C1A12635   2.621   5.916   6.673 -0.0915  0.0151  0.2704
  817YOPS   D2A12636   2.327   5.971   7.020  0.0848  0.0712 -0.0141
  817YOPS   C3A12637   2.278   5.833   7.411  0.0517  0.1139 -0.1942
  817YOPS   C4A12638   2.014   6.126   7.696 -0.0320  0.0851  0.2719
  817YOPS   C1B12639   3.105   6.217   6.934 -0.3131 -0.1825 -0.0476
  817YOPS   C2B12640   3.116   6.413   7.288  0.4419 -0.4115 -0.1694
  817YOPS   D3B12641   2.827   6.651   7.518  0.1235  0.0802 -0.0151
  817YOPS   C4B12642   2.947   6.985   7.852  0.1224 -0.0202 -0.2084
  818YOPS   CNO12643  12.113  11.898   6.081  0.0003 -0.1253 -0.2322
  818YOPS   PO412644  11.806  11.736   6.204 -0.1700 -0.0221 -0.2810
  818YOPS   GL112645  11.963  11.809   6.589 -0.0256 -0.2546 -0.0440
  818YOPS   GL212646  12.185  11.640   6.545  0.2973  0.0819  0.0155
  818YOPS   C1A12647  11.852  11.840   6.984 -0.0539  0.4304 -0.3810
  818YOPS   D2A12648  11.856  12.098   7.401 -0.1835  0.6330 -0.1417
  818YOPS   C3A12649  11.825  12.182   7.883 -0.2074  0.1843 -0.5123
  818YOPS   C4A12650  11.446  12.085   8.113 -0.2235 -0.4197  0.1254
  818YOPS   C1B12651  12.164  11.459   6.961  0.1586  0.1927 -0.0250
  818YOPS   C2B12652  12.261  11.303   7.385  0.2028 -0.0571 -0.0028
  818YOPS   D3B12653  12.282  10.891   7.697 -0.1904 -0.0158  0.1278
  818YOPS   C4B12654  12.182  10.898   8.068 -0.0366 -0.2959  0.2451
  819YOPS   CNO12655   8.488  16.307   5.462 -0.1741  0.0395  0.0004
  819YOPS   PO412656   8.417  16.691   5.699 -0.1187  0.1317  0.1306
  819YOPS   GL112657   8.598  16.833   6.101  0.0693  0.0912 -0.2385
  819YOPS   GL212658   8.388  17.081   6.107 -0.2423  0.3348 -0.1519
  819YOPS   C1A12659   8.802  16.939   6.466  0.0067 -0.0730  0.4688
  819YOPS   D2A12660   9.185  16.778   6.753  0.3333  0.1026  0.1621
  819YOPS   C3A12661   9.260  16.593   7.160 -0.0126  0.1158 -0.4666
  819YOPS   C4A12662   9.057  16.728   7.483  0.0133 -0.1474  0.1030
  819YOPS   C1B12663   8.301  17.126   6.536 -0.0981  0.2636  0.0562
  819YOPS   C2B12664   8.347  17.483   6.825 -0.2576  0.0336 -0.1584
  819YOPS   D3B12665   8.440  17.296   7.249  0.1465 -0.0180 -0.2665
  819YOPS   C4B12666   8.806  17.271   7.502  0.0281 -0.3364  0.1732
  820YOPS   CNO12667   2.229   2.910   5.486  0.0309  0.0268 -0.0942
  820YOPS   PO412668   1.888   2.851   5.671  0.1093 -0.2294 -0.1822
  820YOPS   GL112669   1.710   3.099   5.965  0.2969  0.0465 -0.2120
  820YOPS   GL212670   1.699   3.308   5.885  0.1478 -0.0718  0.1737
  820YOPS   C1A12671   1.727   3.104   6.396  0.2319  0.0135 -0.3226
  820YOPS   D2A12672   1.427   3.044   6.713 -0.1031  0.0793  0.2271
  820YOPS   C3A12673   1.113   2.992   7.043  0.2533  0.0583 -0.2731
  820YOPS   C4A12674   0.718   3.171   6.925  0.0125  0.0241 -0.0860
  820YOPS   C1B12675   1.525   3.537   6.108  0.0839 -0.1325 -0.1033
  820YOPS   C2B12676   1.401   3.900   6.286  0.3041 -0.2008  0.1374
  820YOPS   D3B12677   1.302   4.006   6.731  0.1809  0.1722  0.0412
  820YOPS   C4B12678   1.273   3.549   7.009  0.0846  0.0182  0.0158
  821YOPS   CNO12679  10.345  16.480   5.772  0.0465  0.0480  0.1280
  821YOPS   PO412680  10.204  16.883   5.616  0.1927 -0.3427 -0.2069
  821YOPS   GL112681  10.353  16.843   6.062 -0.3078 -0.0051 -0.1741
  821YOPS   GL212682  10.257  17.132   6.287  0.0707  0.0482 -0.2143
  821YOPS   C1A12683  10.739  16.908   6.218  0.1888  0.1786 -0.1882
  821YOPS   D2A12684  10.879  16.802   6.531 -0.3246 -0.0533  0.1277
  821YOPS   C3A12685  10.923  16.662   6.935  0.1018 -0.3405 -0.1369
  821YOPS   C4A12686  10.639  16.683   7.214 -0.0110  0.0245  0.0407
  821YOPS   C1B12687  10.415  17.082   6.648 -0.1551 -0.2957 -0.1764
  821YOPS   C2B12688  10.615  17.111   6.933  0.1765  0.1488  0.0848
  821YOPS   D3B12689  10.578  17.122   7.393 -0.1681  0.1407 -0.0152
  821YOPS   C4B12690  10.594  17.446   7.644 -0.0070 -0.0802 -0.1813
  822YOPS   CNO12691  17.873   5.251   4.994  0.1697 -0.0775 -0.1067
  822YOPS   PO412692  17.757   5.592   5.237  0.2657 -0.0970  0.1431
  822YOPS   GL112693  17.664   5.769   5.684 -0.1707 -0.0739 -0.5075
  822YOPS   GL212694  17.662   5.580   5.871  0.1269 -0.0062  0.0155
  822YOPS   C1A12695  17.340   5.969   5.995 -0.4823  0.2180 -0.0870
  822YOPS   D2A12696  17.225   6.014   6.370 -0.1543  0.1587 -0.1120
  822YOPS   C3A12697  17.211   6.231   6.679 -0.2646 -0.0329  0.1740
  822YOPS   C4A12698  17.472   6.188   7.116 -0.0045  0.0863  0.0837
  822YOPS   C1B12699  17.691   5.773   6.414  0.0939  0.0496  0.0682
  822YOPS   C2B12700  17.778   5.855   6.847 -0.0987  0.2021 -0.4811
  822YOPS   D3B12701  17.856   5.782   7.351  0.1762  0.0228  0.0522
  822YOPS   C4B12702  17.857   5.379   7.566  0.2738 -0.0746 -0.1778
  823YOPS   CNO12703  15.796  15.395   5.169 -0.0618 -0.3580 -0.1263
  823YOPS   PO412704  15.489  15.153   5.376 -0.2110 -0.1290 -0.1623
  823YOPS   GL112705  15.421  15.100   5.873  0.1645  0.1945  0.1452
  823YOPS   GL212706  15.108  15.066   5.962  0.1246  0.0842  0.2326
  823YOPS   C1A12707  15.509  15.286   6.280  0.3078 -0.1367  0.0018
  823YOPS   D2A12708  15.484  15.279   6.811  0.0764  0.1844 -0.1548
  823YOPS   C3A12709  15.313  15.210   7.113 -0.0249 -0.0304  0.4116
  823YOPS   C4A12710  15.346  15.568   7.361 -0.2968 -0.2607  0.2129
  823YOPS   C1B12711  15.094  15.076   6.416  0.2557  0.2445  0.0351
  823YOPS   C2B12712  14.890  15.040   6.798 -0.1901 -0.1022  0.2590
  823YOPS   D3B12713  14.805  14.904   7.193  0.3519  0.1874  0.1115
  823YOPS   C4B12714  14.499  15.123   7.521  0.0375 -0.1505  0.0148
  824YOPS   CNO12715  11.407  11.939   5.915  0.0557  0.2473 -0.0112
  824YOPS   PO412716  11.010  11.790   5.926  0.0361 -0.0874 -0.1047
  824YOPS   GL112717  11.218  11.786   6.342 -0.0074  0.2663  0.2521
  824YOPS   GL212718  11.401  11.462   6.485 -0.0103  0.0448 -0.1638
  824YOPS   C1A12719  11.409  11.973   6.700 -0.1722 -0.0769  0.1367
  824YOPS   D2A12720  11.294  11.809   6.958 -0.0550 -0.2054  0.1458
  824YOPS   C3A12721  11.518  11.736   7.307 -0.0498  0.2794  0.0991
  824YOPS   C4A12722  11.465  11.893   7.694  0.2247  0.0642  0.1424
  824YOPS   C1B12723  11.602  11.383   6.807 -0.2702  0.1298 -0.0769
  824YOPS   C2B12724  11.763  11.241   7.150  0.0309  0.0580 -0.2938
  824YOPS   D3B12725  11.467  10.937   7.258  0.0019 -0.0896 -0.0316
  824YOPS   C4B12726  11.386  10.601   7.010 -0.3603  0.0172  0.1782
  825YOPS   CNO12727  12.014  10.814   5.454 -0.1198 -0.1529  0.1044
  825YOPS   PO412728  11.885  10.443   5.695  0.1371 -0.0080 -0.0262
  825YOPS   GL112729  11.645  10.367   6.132 -0.0624 -0.0045  0.1070
  825YOPS   GL212730  11.474  10.582   6.169  0.0762  0.1011 -0.1965
  825YOPS   C1A12731  11.458  10.068   6.373 -0.0356 -0.2573 -0.0918
  825YOPS   D2A12732  11.365   9.889   6.745 -0.2313  0.0371  0.0603
  825YOPS   C3A12733  11.591   9.657   7.007  0.0167  0.2125 -0.0750
  825YOPS   C4A12734  11.574   9.750   7.356  0.0854  0.1440 -0.1620
  825YOPS   C1B12735  11.287  10.530   6.498 -0.3788  0.0086  0.1820
  825YOPS   C2B12736  11.069  10.263   6.769  0.2234  0.1815  0.0781
  825YOPS   D3B12737  10.750  10.116   7.042 -0.1819 -0.2825  0.0128
  825YOPS   C4B12738  10.607   9.755   7.327 -0.0581 -0.0754  0.2381
  826YOPS   CNO12739  13.489  17.214   5.911 -0.0029 -0.1177  0.0283
  826YOPS   PO412740  13.828  17.484   5.941 -0.1123  0.0378  0.2900
  826YOPS   GL112741  13.698  17.889   6.149  0.0094 -0.2180  0.2890
  826YOPS   GL212742  13.960  18.012   6.169  0.1653  0.0083 -0.3962
  826YOPS   C1A12743  13.520  17.870   6.631  0.2383  0.0907  0.0578
  826YOPS   D2A12744  13.712  17.716   6.991  0.0988  0.1209 -0.0227
  826YOPS   C3A12745  13.796  17.743   7.510  0.1054 -0.1644  0.0609
  826YOPS   C4A12746  13.507  17.712   7.873 -0.2361  0.1300  0.2177
  826YOPS   C1B12747  14.028  17.735   6.564 -0.0583 -0.1745  0.4354
  826YOPS   C2B12748  14.186  17.581   6.995 -0.0942  0.2692 -0.1334
  826YOPS   D3B12749  14.485  17.282   7.243  0.0629  0.1959  0.1919
  826YOPS   C4B12750  14.164  17.122   7.514  0.1470 -0.5033 -0.3116
  827YOPS   CNO12751   9.764   2.503   5.657 -0.1746 -0.1054  0.2628
  827YOPS   PO412752   9.685   2.135   5.508  0.1212 -0.0014  0.0728
  827YOPS   GL112753   9.874   1.934   5.847 -0.1557 -0.2003 -0.0373
  827YOPS   GL212754  10.209   2.038   5.968  0.1364  0.1784 -0.2044
  827YOPS   C1A12755   9.884   1.739   6.241  0.2419  0.1473 -0.3456
  827YOPS   D2A12756   9.710   1.932   6.667  0.1925  0.1737  0.2027
  827YOPS   C3A12757   9.697   2.053   7.073 -0.0072 -0.0121 -0.1965
  827YOPS   C4A12758   9.660   2.518   7.067  0.5194  0.0874 -0.0482
  827YOPS   C1B12759  10.190   2.111   6.378 -0.0518 -0.1071 -0.6432
  827YOPS   C2B12760  10.256   1.878   6.757  0.0239 -0.2252 -0.2270
  827YOPS   D3B12761  10.383   1.498   7.047 -0.1278  0.0952 -0.0888
  827YOPS   C4B12762  10.276   1.548   7.574  0.4726  0.0616  0.0337
  828YOPS   CNO12763   0.916   1.702   5.458  0.1001  0.2953  0.0364
  828YOPS   PO412764   0.917   1.909   5.799  0.5017  0.0487 -0.2010
  828YOPS   GL112765   1.025   2.050   6.121  0.0737 -0.1819  0.0278
  828YOPS   GL212766   0.796   2.348   6.179 -0.3285  0.0810 -0.3371
  828YOPS   C1A12767   0.835   1.986   6.552 -0.2112  0.2294 -0.0200
  828YOPS   D2A12768   0.781   1.917   6.965 -0.0980 -0.1761  0.0111
  828YOPS   C3A12769   0.639   1.937   7.306 -0.0859 -0.0453  0.0482
  828YOPS   C4A12770   0.548   2.217   7.570  0.2735  0.0700 -0.2596
  828YOPS   C1B12771   1.035   2.467   6.487 -0.4191  0.2420 -0.0879
  828YOPS   C2B12772   1.327   2.601   6.884  0.1474  0.0907 -0.1411
  828YOPS   D3B12773   1.293   2.677   7.385  0.2185 -0.3484 -0.0204
  828YOPS   C4B12774   1.527   3.141   7.435  0.2202  0.0100 -0.2422
  829YOPS   CNO12775  13.579   5.938   5.282  0.1193  0.1691 -0.0077
  829YOPS   PO412776  13.181   5.685   5.254 -0.0538  0.1990 -0.0648
  829YOPS   GL112777  13.119   5.793   5.582  0.0603  0.2058 -0.1150
  829YOPS   GL212778  13.106   5.538   5.730  0.2960  0.0969 -0.0184
  829YOPS   C1A12779  13.458   5.964   5.817  0.1251 -0.1321  0.2312
  829YOPS   D2A12780  13.648   6.239   5.718  0.1561  0.0449 -0.1055
  829YOPS   C3A12781  13.781   6.618   5.506 -0.0815  0.2141  0.2738
  829YOPS   C4A12782  13.916   6.908   5.751  0.1872 -0.1207 -0.0534
  829YOPS   C1B12783  13.444   5.439   5.991 -0.1607 -0.0393  0.0247
  829YOPS   C2B12784  13.524   5.258   6.423 -0.2912 -0.0840  0.0279
  829YOPS   D3B12785  13.278   5.065   6.535 -0.1676 -0.2366  0.2569
  829YOPS   C4B12786  12.931   5.225   6.821 -0.0238  0.0152 -0.1662
  830YOPS   CNO12787  10.274   1.107   5.638  0.1550  0.3847 -0.0921
  830YOPS   PO412788  10.699   1.337   5.798 -0.2540  0.2766 -0.0215
  830YOPS   GL112789  10.369   1.207   6.121  0.1825 -0.3271  0.1771
  830YOPS   GL212790  10.207   0.894   6.111  0.0346  0.0346 -0.1685
  830YOPS   C1A12791  10.106   1.272   6.446  0.0900 -0.1845  0.2195
  830YOPS   D2A12792   9.932   1.479   6.728  0.0591  0.4383  0.0579
  830YOPS   C3A12793   9.950   1.575   7.198  0.1673  0.3838 -0.4424
  830YOPS   C4A12794  10.162   2.000   7.261 -0.0882  0.0026 -0.0679
  830YOPS   C1B12795  10.121   0.794   6.562 -0.1011  0.1176 -0.0384
  830YOPS   C2B12796  10.099   0.600   6.943  0.1171  0.0271  0.1178
  830YOPS   D3B12797   9.834   0.589   7.333  0.0235 -0.0841  0.3833
  830YOPS   C4B12798   9.588   0.486   7.570  0.0804  0.0370 -0.2282
  831YOPS   CNO12799   1.253  12.879   5.922  0.0211 -0.1797  0.1051
  831YOPS   PO412800   1.658  12.788   5.992  0.4497 -0.0032  0.0563
  831YOPS   GL112801   1.524  13.094   6.365 -0.0820 -0.2140  0.0550
  831YOPS   GL212802   1.380  13.429   6.469  0.1109 -0.1801  0.1702
  831YOPS   C1A12803   1.216  13.055   6.746 -0.0796 -0.2862 -0.0232
  831YOPS   D2A12804   0.772  13.008   6.974 -0.0981  0.2259  0.2707
  831YOPS   C3A12805   0.382  12.806   7.100  0.1428 -0.5776  0.1164
  831YOPS   C4A12806   0.137  13.124   7.365 -0.0594  0.0192  0.0132
  831YOPS   C1B12807   1.560  13.495   6.917 -0.2649  0.3426 -0.1053
  831YOPS   C2B12808   1.571  13.681   7.331 -0.2476  0.1495  0.0242
  831YOPS   D3B12809   1.230  13.753   7.648  0.2121 -0.1882 -0.2309
  831YOPS   C4B12810   1.222  14.157   7.954  0.2506  0.1832  0.1209
  832YOPS   CNO12811   8.321  17.647   5.403 -0.0458 -0.4483 -0.1641
  832YOPS   PO412812   8.133  17.508   5.804  0.1998 -0.2018 -0.0172
  832YOPS   GL112813   8.199  17.559   6.280  0.3161  0.0465  0.1606
  832YOPS   GL212814   8.307  17.909   6.426  0.2782 -0.0176 -0.0596
  832YOPS   C1A12815   7.918  17.670   6.681  0.1698  0.1334 -0.3185
  832YOPS   D2A12816   7.501  17.576   6.978  0.0621  0.4715  0.0672
  832YOPS   C3A12817   7.094  17.522   7.288 -0.1215 -0.1879 -0.0098
  832YOPS   C4A12818   6.961  17.625   7.608 -0.0083  0.1641 -0.1366
  832YOPS   C1B12819   8.199  18.047   6.844  0.2421  0.2230  0.0016
  832YOPS   C2B12820   7.967  17.734   7.214  0.0844  0.2455 -0.1082
  832YOPS   D3B12821   8.032  17.466   7.497  0.1491  0.2600  0.2546
  832YOPS   C4B12822   7.889  17.441   7.882 -0.2551 -0.0471 -0.1426
  833YOPS   CNO12823  10.651   0.132   5.836 -0.0754  0.0299 -0.0977
  833YOPS   PO412824  10.989  -0.103   5.854 -0.0842 -0.1147  0.0677
  833YOPS   GL112825  11.151   0.105   6.198 -0.2206 -0.1207  0.0366
  833YOPS   GL212826  10.799   0.001   6.305 -0.0409 -0.0270  0.1377
  833YOPS   C1A12827  10.979   0.254   6.688 -0.1273 -0.2405 -0.3597
  833YOPS   D2A12828  10.801   0.437   7.175  0.0115  0.1151 -0.0845
  833YOPS   C3A12829  10.798   0.580   7.617 -0.2655  0.0290 -0.2141
  833YOPS   C4A12830  10.538   0.372   7.815  0.3149 -0.0284  0.1799
  833YOPS   C1B12831  10.524   0.068   6.614  0.1298  0.1590  0.3178
  833YOPS   C2B12832  10.396   0.169   6.927 -0.3262  0.2956  0.1750
  833YOPS   D3B12833  10.494   0.044   7.334  0.1313  0.0099 -0.1735
  833YOPS   C4B12834  10.116   0.123   7.660 -0.0517 -0.1211 -0.2408
  834YOPS   CNO12835   8.637   9.048   5.224  0.1239  0.1982  0.0488
  834YOPS   PO412836   8.734   8.858   5.610 -0.1059 -0.0818  0.2449
  834YOPS   GL112837   8.820   8.881   6.056  0.0237  0.0818  0.4300
  834YOPS   GL212838   8.976   9.189   5.960 -0.1533  0.1284  0.0903
  834YOPS   C1A12839   8.736   8.769   6.524  0.0027 -0.2293 -0.1933
  834YOPS   D2A12840   8.749   8.769   6.948 -0.1456  0.0559  0.1620
  834YOPS   C3A12841   8.800   8.632   7.271  0.0782 -0.0368  0.2425
  834YOPS   C4A12842   8.576   8.815   7.564 -0.2900 -0.1216 -0.4095
  834YOPS   C1B12843   9.181   9.231   6.286 -0.1180 -0.0905  0.0665
  834YOPS   C2B12844   9.227   9.231   6.756  0.1992  0.1235 -0.2535
  834YOPS   D3B12845   9.249   9.155   7.157 -0.1187 -0.2595 -0.2164
  834YOPS   C4B12846   8.915   9.161   7.493 -0.2490 -0.0501  0.1135
  835YOPS   CNO12847  12.683  13.140   6.017  0.1579 -0.0458  0.1134
  835YOPS   PO412848  12.191  13.321   6.061 -0.2935 -0.0924  0.2006
  835YOPS   GL112849  12.326  13.530   6.449 -0.2338  0.0525  0.0702
  835YOPS   GL212850  12.577  13.465   6.460  0.2275 -0.4060 -0.1852
  835YOPS   C1A12851  12.205  13.566   6.871 -0.0635  0.0737  0.2150
  835YOPS   D2A12852  12.156  13.476   7.339 -0.0506 -0.1777  0.2008
  835YOPS   C3A12853  12.397  13.325   7.728 -0.0797  0.2676  0.3190
  835YOPS   C4A12854  12.618  13.056   7.817 -0.2048  0.3253  0.3111
  835YOPS   C1B12855  12.728  13.365   6.967 -0.0796  0.0173 -0.3367
  835YOPS   C2B12856  12.812  13.471   7.463  0.1619  0.2788 -0.0565
  835YOPS   D3B12857  12.783  13.640   7.770  0.2632  0.1470 -0.0794
  835YOPS   C4B12858  13.211  13.804   7.970 -0.1879  0.0079 -0.1417
  836YOPS   CNO12859  11.161  17.057   5.879 -0.0987 -0.1321  0.0981
  836YOPS   PO412860  11.070  17.467   5.829  0.0924  0.2911  0.1853
  836YOPS   GL112861  11.298  17.461   6.252  0.1200 -0.0595 -0.1387
  836YOPS   GL212862  11.226  17.170   6.401  0.1171 -0.0568  0.4998
  836YOPS   C1A12863  11.429  17.572   6.699  0.0397 -0.3520 -0.0127
  836YOPS   D2A12864  11.420  17.580   7.063  0.1741  0.1117 -0.2354
  836YOPS   C3A12865  11.288  17.886   7.350 -0.1449 -0.0158 -0.2387
  836YOPS   C4A12866  11.509  18.218   7.557 -0.2998  0.1889  0.1572
  836YOPS   C1B12867  11.111  17.142   6.769  0.0681  0.1218  0.0464
  836YOPS   C2B12868  11.049  17.078   7.140  0.3269 -0.0826  0.0312
  836YOPS   D3B12869  11.099  17.338   7.492 -0.1191  0.1808 -0.0242
  836YOPS   C4B12870  11.365  17.209   7.902  0.2109 -0.0837  0.0451
  837YOPS   CNO12871  17.051   6.788   5.398 -0.3691 -0.0379  0.1677
  837YOPS   PO412872  17.160   7.248   5.513 -0.1966 -0.0622  0.1083
  837YOPS   GL112873  17.215   7.532   5.877  0.2777  0.0777  0.0807
  837YOPS   GL212874  16.875   7.506   5.846  0.2053 -0.1682 -0.1589
  837YOPS   C1A12875  17.414   7.557   6.242 -0.0773 -0.0969  0.0345
  837YOPS   D2A12876  17.264   7.521   6.588 -0.0835  0.0947  0.2309
  837YOPS   C3A12877  17.100   7.627   6.966 -0.0013  0.1213  0.0619
  837YOPS   C4A12878  16.788   8.020   7.020 -0.0834 -0.0805  0.0671
  837YOPS   C1B12879  16.859   7.498   6.286  0.1075  0.1484  0.1138
  837YOPS   C2B12880  16.903   7.180   6.571  0.1271 -0.0261 -0.1875
  837YOPS   D3B12881  16.871   7.157   6.984 -0.0755  0.2747  0.1231
  837YOPS   C4B12882  17.124   6.899   7.325 -0.0399  0.0613  0.3679
  838YOPS   CNO12883   7.036   7.515   5.956  0.2010  0.1073 -0.0508
  838YOPS   PO412884   7.425   7.579   5.854 -0.1811 -0.1521 -0.0574
  838YOPS   GL112885   7.452   7.523   6.349  0.3074  0.0032  0.0272
  838YOPS   GL212886   7.612   7.835   6.509 -0.0497 -0.1343  0.2478
  838YOPS   C1A12887   7.532   7.252   6.671  0.1031 -0.2069  0.1826
  838YOPS   D2A12888   7.437   6.812   6.636 -0.1335 -0.1117 -0.0679
  838YOPS   C3A12889   7.247   6.428   6.756  0.1749 -0.2030  0.0492
  838YOPS   C4A12890   7.260   6.240   7.163  0.3029  0.2739 -0.0909
  838YOPS   C1B12891   7.521   7.714   6.969  0.1491 -0.0043  0.0677
  838YOPS   C2B12892   7.539   7.454   7.283  0.1977 -0.1874 -0.0857
  838YOPS   D3B12893   7.336   7.493   7.664 -0.1663  0.2389 -0.2284
  838YOPS   C4B12894   7.159   7.494   8.141 -0.0161  0.0281  0.0422
  839YOPS   CNO12895   8.154   7.293   5.207 -0.0348 -0.2613 -0.0274
  839YOPS   PO412896   8.334   7.322   5.663  0.2812  0.0435 -0.1460
  839YOPS   GL112897   8.393   7.331   6.117  0.0421  0.2226 -0.1414
  839YOPS   GL212898   8.279   7.615   6.211 -0.0734 -0.2060 -0.1550
  839YOPS   C1A12899   8.468   7.170   6.452 -0.2511 -0.1940  0.1962
  839YOPS   D2A12900   8.399   7.317   6.797 -0.1093  0.0726 -0.0236
  839YOPS   C3A12901   8.617   7.287   7.075  0.0544 -0.2783 -0.3304
  839YOPS   C4A12902   8.936   6.991   7.170 -0.1343 -0.0605 -0.0831
  839YOPS   C1B12903   8.009   7.522   6.506 -0.2474  0.0904 -0.2429
  839YOPS   C2B12904   7.932   7.443   6.971 -0.0643  0.1743  0.2448
  839YOPS   D3B12905   8.212   7.320   7.287 -0.4189  0.0463 -0.3164
  839YOPS   C4B12906   8.658   7.318   7.563 -0.1843 -0.0063 -0.1244
  840YOPS   CNO12907   2.308  13.225   5.715  0.0541 -0.0858  0.1912
  840YOPS   PO412908   2.579  13.140   6.015  0.0180 -0.1556 -0.1526
  840YOPS   GL112909   2.520  13.148   6.493 -0.0098 -0.0710  0.0958
  840YOPS   GL212910   2.432  12.866   6.496 -0.0457  0.2609  0.1687
  840YOPS   C1A12911   2.439  13.380   6.852  0.1405  0.0920  0.2571
  840YOPS   D2A12912   2.562  13.352   7.314  0.2375 -0.3100  0.1291
  840YOPS   C3A12913   2.578  13.240   7.729 -0.1017  0.3176  0.1205
  840YOPS   C4A12914   2.505  12.833   7.879  0.0698  0.0184 -0.2471
  840YOPS   C1B12915   2.230  12.779   6.874 -0.1847  0.2111  0.1045
  840YOPS   C2B12916   2.130  12.732   7.240 -0.0995 -0.0923  0.1117
  840YOPS   D3B12917   2.000  12.781   7.755  0.0897 -0.3307  0.0018
  840YOPS   C4B12918   2.169  12.692   8.196  0.0978 -0.2284  0.0877
  841YOPS   CNO12919  15.113  11.894   5.815  0.1521 -0.2090 -0.0057
  841YOPS   PO412920  15.244  11.431   5.811  0.1212 -0.2634  0.0844
  841YOPS   GL112921  15.357  11.340   6.208  0.2835  0.0171 -0.1564
  841YOPS   GL212922  15.421  11.531   6.296  0.0103  0.0535 -0.2782
  841YOPS   C1A12923  15.422  10.950   6.350 -0.0314 -0.2014 -0.0310
  841YOPS   D2A12924  15.265  10.619   6.509  0.0749 -0.2303  0.1098
  841YOPS   C3A12925  14.946  10.525   6.732 -0.3612 -0.3179  0.1716
  841YOPS   C4A12926  14.928  10.215   6.877 -0.2740 -0.3268 -0.0233
  841YOPS   C1B12927  15.564  11.408   6.631 -0.2379  0.0028 -0.2079
  841YOPS   C2B12928  15.583  11.441   7.010 -0.1983  0.0194  0.0062
  841YOPS   D3B12929  15.752  11.671   7.427 -0.1297  0.0143 -0.0033
  841YOPS   C4B12930  16.171  11.588   7.612  0.0993 -0.0250 -0.3625
  842YOPS   CNO12931   3.519   3.545   5.485  0.0526 -0.0305 -0.1928
  842YOPS   PO412932   3.512   3.758   5.764 -0.1385  0.0518 -0.0263
  842YOPS   GL112933   3.531   3.996   6.133 -0.1275 -0.0441  0.0986
  842YOPS   GL212934   3.397   4.108   6.182 -0.1016  0.2540 -0.2709
  842YOPS   C1A12935   3.720   4.050   6.583  0.3332  0.1074 -0.1782
  842YOPS   D2A12936   3.650   4.109   6.947 -0.1768 -0.1437 -0.0453
  842YOPS   C3A12937   3.764   3.931   7.360  0.1871  0.0512 -0.1044
  842YOPS   C4A12938   3.990   3.846   7.807 -0.1252 -0.0985  0.1521
  842YOPS   C1B12939   3.205   4.208   6.601 -0.1653  0.0620  0.0214
  842YOPS   C2B12940   3.180   4.218   6.984 -0.0264 -0.1746  0.0239
  842YOPS   D3B12941   3.241   4.090   7.393 -0.0622 -0.3779  0.2184
  842YOPS   C4B12942   3.452   4.398   7.506  0.3540  0.0758 -0.0053
  843YOPS   CNO12943   6.129   3.097   6.110 -0.0647  0.0010  0.0710
  843YOPS   PO412944   5.754   3.250   5.940  0.1421  0.1344  0.2320
  843YOPS   GL112945   5.836   3.558   6.236  0.0572 -0.0233 -0.1078
  843YOPS   GL212946   6.028   3.512   6.369 -0.0607  0.0345 -0.2638
  843YOPS   C1A12947   5.761   3.872   6.536  0.2734 -0.1805  0.0212
  843YOPS   D2A12948   5.804   3.753   6.919 -0.0553  0.0266  0.1423
  843YOPS   C3A12949   6.068   3.873   7.230  0.2677 -0.0660 -0.0660
  843YOPS   C4A12950   6.335   3.504   7.288  0.0409 -0.0400 -0.0727
  843YOPS   C1B12951   6.203   3.658   6.688 -0.0721 -0.0537  0.0388
  843YOPS   C2B12952   6.576   3.594   6.792 -0.0805  0.1505 -0.2899
  843YOPS   D3B12953   6.880   3.569   7.086  0.0386  0.2737 -0.0262
  843YOPS   C4B12954   7.304   3.389   6.961  0.1931  0.0926 -0.1013
  844POPE   NH312955  13.039  16.814   5.882 -0.3554 -0.1043 -0.1873
  844POPE   PO412956  13.208  16.401   5.898 -0.3948  0.0256  0.0405
  844POPE   GL112957  13.333  16.324   6.315 -0.0713  0.3170 -0.2661
  844POPE   GL212958  13.119  16.579   6.528 -0.0639 -0.1561 -0.1515
  844POPE   C1A12959  13.649  16.406   6.597 -0.0210  0.0612 -0.1696
  844POPE   D2A12960  13.548  16.601   6.997 -0.0009  0.0614 -0.1798
  844POPE   C3A12961  13.561  16.979   7.111  0.1524 -0.1697 -0.2173
  844POPE   C4A12962  13.385  17.328   6.977  0.1097 -0.1134 -0.1807
  844POPE   C1B12963  13.135  16.836   6.893 -0.0619 -0.0749  0.0260
  844POPE   C2B12964  13.130  16.982   7.390 -0.0369  0.0909 -0.1062
  844POPE   C3B12965  13.112  16.926   7.839  0.1743 -0.0660  0.0445
  844POPE   C4B12966  13.178  16.877   8.283  0.2517  0.2527 -0.0211
  845POPE   NH312967  11.335  14.491   5.798 -0.2804  0.0643  0.0760
  845POPE   PO412968  11.164  14.828   5.988  0.1855 -0.0312  0.1739
  845POPE   GL112969  11.220  14.613   6.349 -0.0376  0.1105 -0.0848
  845POPE   GL212970  11.419  14.288   6.263 -0.1560 -0.1935  0.1337
  845POPE   C1A12971  11.207  14.469   6.764 -0.0029 -0.2121  0.3557
  845POPE   D2A12972  10.871  14.340   7.047  0.0054  0.0804  0.2050
  845POPE   C3A12973  10.859  14.125   7.402 -0.0307 -0.2029 -0.3188
  845POPE   C4A12974  10.893  13.968   7.816  0.0453  0.0613  0.1737
  845POPE   C1B12975  11.664  14.389   6.587 -0.0527 -0.0566  0.0720
  845POPE   C2B12976  11.784  14.511   7.015  0.1879 -0.1272 -0.0646
  845POPE   C3B12977  11.870  14.562   7.385 -0.1941  0.1185 -0.4213
  845POPE   C4B12978  11.657  14.568   7.756 -0.0429  0.0670 -0.1265
  846POPE   NH312979   4.685  14.174   5.999 -0.1607 -0.0639  0.0903
  846POPE   PO412980   5.096  14.191   5.889  0.0166 -0.0472 -0.1409
  846POPE   GL112981   5.029  14.071   6.301  0.1028  0.1537 -0.2547
  846POPE   GL212982   4.865  14.219   6.479  0.1212  0.0532  0.4567
  846POPE   C1A12983   5.238  14.042   6.736  0.1119  0.0611  0.0040
  846POPE   D2A12984   5.318  13.888   7.147 -0.1350  0.0054  0.1001
  846POPE   C3A12985   5.306  13.908   7.560 -0.0660 -0.0695  0.0459
  846POPE   C4A12986   5.133  13.606   7.966 -0.1087  0.0500 -0.0154
  846POPE   C1B12987   5.124  14.480   6.622 -0.3468  0.3159  0.1716
  846POPE   C2B12988   5.256  14.815   6.864  0.1280 -0.0390  0.1466
  846POPE   C3B12989   5.372  15.117   7.164  0.0111 -0.0527 -0.5445
  846POPE   C4B12990   5.405  15.396   7.469  0.0961 -0.0137 -0.1610
  847POPE   NH312991   0.618  18.067   5.567 -0.2126  0.1446  0.4112
  847POPE   PO412992   1.099  18.116   5.480 -0.1116  0.1542 -0.0564
  847POPE   GL112993   0.966  18.086   5.957 -0.0155 -0.0796  0.1737
  847POPE   GL212994   1.192  18.219   6.188  0.3301 -0.0238 -0.1129
  847POPE   C1A12995   0.574  18.172   6.259 -0.0377 -0.2372 -0.2425
  847POPE   D2A12996   0.294  18.417   6.604  0.1627 -0.0817  0.4483
  847POPE   C3A12997   0.518  18.451   7.063  0.2136  0.0746  0.0374
  847POPE   C4A12998   0.443  18.427   7.488  0.1786 -0.0361 -0.2383
  847POPE   C1B12999   0.944  18.226   6.568 -0.0875  0.1471  0.2075
  847POPE   C2B13000   1.020  18.119   7.047 -0.1795  0.0261 -0.1067
  847POPE   C3B13001   0.960  18.150   7.518 -0.2923  0.0312  0.0477
  847POPE   C4B13002   0.776  18.352   7.914  0.1457 -0.2638  0.2337
  848POPE   NH313003  11.159   9.185   5.684 -0.1039 -0.1175 -0.2071
  848POPE   PO413004  11.493   8.949   5.489 -0.3928  0.0869 -0.3648
  848POPE   GL113005  11.575   8.954   5.952 -0.1205 -0.0052  0.2697
  848POPE   GL213006  11.629   8.672   6.106 -0.1429 -0.2534  0.2552
  848POPE   C1A13007  11.586   9.247   6.161  0.0550  0.0022  0.4504
  848POPE   D2A13008  11.738   9.372   6.516  0.1527 -0.3138  0.1619
  848POPE   C3A13009  11.918   9.288   6.853  0.0156 -0.1078  0.0875
  848POPE   C4A13010  11.826   9.260   7.211  0.1490 -0.4105  0.0595
  848POPE   C1B13011  11.719   8.390   6.332 -0.0528 -0.0967  0.4530
  848POPE   C2B13012  11.886   8.294   6.694  0.1714  0.3069 -0.2094
  848POPE   C3B13013  12.014   8.250   7.114  0.1601 -0.1085 -0.0206
  848POPE   C4B13014  11.881   8.165   7.452  0.1910  0.2746  0.2393
  849POPE   NH313015  15.357  16.298   5.941  0.0263  0.0912  0.3028
  849POPE   PO413016  15.144  16.615   5.872 -0.3791  0.0056 -0.0927
  849POPE   GL113017  15.048  16.492   6.354  0.1077 -0.1125 -0.0028
  849POPE   GL213018  15.256  16.318   6.437 -0.1466  0.3223 -0.0724
  849POPE   C1A13019  14.733  16.454   6.693  0.1040  0.1786 -0.0256
  849POPE   D2A13020  14.441  16.640   6.877 -0.1282 -0.1936  0.0877
  849POPE   C3A13021  14.440  16.764   7.205  0.1894  0.1878  0.1590
  849POPE   C4A13022  14.462  16.637   7.704  0.3720 -0.0332 -0.0373
  849POPE   C1B13023  15.233  16.416   6.891 -0.0149  0.0068  0.2288
  849POPE   C2B13024  15.288  16.548   7.350  0.0604  0.3885  0.0042
  849POPE   C3B13025  15.704  16.605   7.545  0.2985  0.1884 -0.1313
  849POPE   C4B13026  15.958  16.687   7.941  0.2393  0.2515  0.3143
  850POPE   NH313027  13.031  15.986   6.033 -0.0403  0.3013 -0.1139
  850POPE   PO413028  12.795  15.619   6.239 -0.1945  0.1604  0.2851
  850POPE   GL113029  12.724  15.525   6.593 -0.0009  0.2538 -0.2165
  850POPE   GL213030  13.013  15.579   6.690  0.4560 -0.0078  0.0383
  850POPE   C1A13031  12.780  15.282   6.939  0.0737 -0.1028 -0.0269
  850POPE   D2A13032  12.774  15.358   7.334  0.0100  0.1049 -0.1678
  850POPE   C3A13033  12.562  15.264   7.692 -0.0366 -0.0388  0.3323
  850POPE   C4A13034  12.505  15.572   8.034  0.2977 -0.3240 -0.0611
  850POPE   C1B13035  13.139  15.691   7.168 -0.0351  0.0040 -0.0607
  850POPE   C2B13036  13.355  15.851   7.522 -0.1112 -0.0719  0.1867
  850POPE   C3B13037  13.452  16.096   7.859  0.1222  0.2330 -0.0765
  850POPE   C4B13038  13.459  16.493   8.018 -0.0615 -0.3312  0.0455
  851POPE   NH313039   6.605   8.566   6.265  0.1079  0.0251  0.0256
  851POPE   PO413040   6.480   8.248   5.912 -0.1955 -0.0529  0.1030
  851POPE   GL113041   6.325   8.226   6.421 -0.0653 -0.2097 -0.0335
  851POPE   GL213042   6.337   7.995   6.540  0.0823 -0.0810 -0.3050
  851POPE   C1A13043   6.264   8.220   6.964  0.0913 -0.0268  0.0216
  851POPE   D2A13044   6.316   8.164   7.348  0.0887  0.0098 -0.2553
  851POPE   C3A13045   6.094   7.979   7.586 -0.0497  0.0353 -0.3324
  851POPE   C4A13046   5.978   7.921   8.118 -0.0950 -0.1063  0.2532
  851POPE   C1B13047   6.594   7.866   7.000 -0.0040 -0.1990  0.0030
  851POPE   C2B13048   6.776   7.982   7.380 -0.2346 -0.0564  0.4149
  851POPE   C3B13049   7.006   8.284   7.570  0.2681 -0.1382  0.0460
  851POPE   C4B13050   7.167   8.541   7.978  0.1870  0.1538 -0.2624
  852POPE   NH313051  17.952   1.733   5.735  0.0059  0.0528  0.2480
  852POPE   PO413052  17.560   1.954   5.721 -0.1944 -0.1283  0.1876
  852POPE   GL113053  17.672   1.973   6.094  0.2895  0.1413  0.2231
  852POPE   GL213054  17.820   1.699   6.217  0.0960  0.3062 -0.0503
  852POPE   C1A13055  17.980   2.138   6.479  0.0736 -0.3078  0.2215
  852POPE   D2A13056  17.965   2.098   6.947  0.0895  0.1309  0.1706
  852POPE   C3A13057  18.152   2.370   7.209 -0.1521  0.1171 -0.2849
  852POPE   C4A13058  18.495   2.539   7.304  0.0284  0.0802  0.2247
  852POPE   C1B13059  17.932   1.638   6.655  0.0591 -0.0929  0.0688
  852POPE   C2B13060  17.717   1.672   7.059  0.3026 -0.2892  0.0286
  852POPE   C3B13061  17.745   1.438   7.426 -0.2002 -0.1289 -0.1939
  852POPE   C4B13062  17.735   1.192   7.838  0.1064  0.1046 -0.0448
  853POPE   NH313063   7.701  10.232   5.554 -0.0782  0.3273 -0.0237
  853POPE   PO413064   7.480  10.213   5.946  0.0080  0.4549  0.1575
  853POPE   GL113065   7.757  10.166   6.248 -0.0832 -0.1795  0.0541
  853POPE   GL213066   8.099  10.276   6.457  0.1274 -0.0747 -0.1580
  853POPE   C1A13067   7.722  10.025   6.749  0.1695 -0.1143  0.1525
  853POPE   D2A13068   7.841  10.076   7.271 -0.1845 -0.1822  0.4170
  853POPE   C3A13069   7.639  10.302   7.626 -0.0880 -0.3080 -0.0790
  853POPE   C4A13070   7.447  10.559   7.932 -0.1679  0.1459 -0.0081
  853POPE   C1B13071   8.211  10.368   6.870 -0.3143 -0.1745 -0.0936
  853POPE   C2B13072   8.314  10.464   7.285 -0.1648  0.1274  0.1738
  853POPE   C3B13073   8.178  10.243   7.694  0.1430 -0.3229 -0.4460
  853POPE   C4B13074   7.945  10.053   8.039  0.0210  0.0494  0.2277
  854POPE   NH313075   2.331  16.884   5.663  0.1659  0.0424 -0.0937
  854POPE   PO413076   2.575  17.235   5.826  0.0075  0.0360 -0.1253
  854POPE   GL113077   2.415  17.150   6.113 -0.0992 -0.1855  0.3417
  854POPE   GL213078   2.174  16.920   6.145 -0.0867  0.0871  0.0564
  854POPE   C1A13079   2.431  17.049   6.540 -0.3743 -0.1920 -0.1534
  854POPE   D2A13080   2.402  17.160   6.908  0.0460  0.0702  0.2076
  854POPE   C3A13081   2.179  16.843   7.254 -0.0270 -0.0220 -0.0936
  854POPE   C4A13082   1.881  16.628   7.406 -0.0459 -0.2062  0.0256
  854POPE   C1B13083   1.915  17.137   6.528  0.0360  0.0991  0.0069
  854POPE   C2B13084   1.567  17.269   6.924  0.2819 -0.2942 -0.0450
  854POPE   C3B13085   1.474  17.236   7.418  0.3107  0.3348 -0.0765
  854POPE   C4B13086   1.708  17.072   7.767 -0.4561 -0.2397  0.0174
  855POPE   NH313087  16.303  10.571   5.595  0.0051 -0.1745  0.0268
  855POPE   PO413088  15.986  10.212   5.576 -0.0162  0.2563 -0.1103
  855POPE   GL113089  15.804  10.028   5.919  0.2827  0.1659 -0.6099
  855POPE   GL213090  15.833  10.018   6.287 -0.1264 -0.1029 -0.3118
  855POPE   C1A13091  15.425   9.796   6.043 -0.2500  0.0706 -0.1541
  855POPE   D2A13092  15.019   9.857   6.190 -0.2221 -0.0684 -0.0206
  855POPE   C3A13093  14.843  10.235   6.285 -0.0361  0.2643  0.1874
  855POPE   C4A13094  14.863  10.596   6.244  0.0262  0.1357  0.1517
  855POPE   C1B13095  15.890   9.843   6.711  0.1567 -0.2487  0.0003
  855POPE   C2B13096  15.861   9.762   7.190  0.4837 -0.0206  0.0399
  855POPE   C3B13097  15.572   9.905   7.548  0.1757 -0.0345 -0.3435
  855POPE   C4B13098  15.314  10.252   7.584  0.1352  0.1503 -0.0243
  856POPE   NH313099  13.580  15.040   6.065  0.1559 -0.0991  0.0698
  856POPE   PO413100  13.655  14.669   6.069 -0.0458  0.0363 -0.0292
  856POPE   GL113101  13.753  14.605   6.542  0.0151  0.0757 -0.2736
  856POPE   GL213102  13.528  14.493   6.668 -0.2276 -0.1133  0.1446
  856POPE   C1A13103  13.881  14.599   7.069 -0.1301 -0.1046 -0.0788
  856POPE   D2A13104  13.837  14.318   7.335  0.1725  0.0821  0.1500
  856POPE   C3A13105  14.114  14.170   7.678 -0.0113 -0.2467  0.1279
  856POPE   C4A13106  14.524  14.337   8.001  0.0929 -0.0216  0.0959
  856POPE   C1B13107  13.415  14.559   7.101 -0.1219 -0.0266  0.0849
  856POPE   C2B13108  13.460  14.597   7.518 -0.1105 -0.2400  0.0402
  856POPE   C3B13109  13.778  14.619   7.869 -0.1532  0.2068 -0.2322
  856POPE   C4B13110  14.007  14.333   8.165  0.2060 -0.2681 -0.2649
  857POPE   NH313111   5.653   8.571   6.035 -0.0732  0.1384 -0.0299
  857POPE   PO413112   6.064   8.686   6.164 -0.0687  0.1610 -0.0227
  857POPE   GL113113   5.940   8.438   6.607  0.0881 -0.0829  0.0231
  857POPE   GL213114   5.839   8.131   6.704  0.0715  0.0112  0.1669
  857POPE   C1A13115   5.887   8.433   7.118 -0.3095 -0.0575 -0.3891
  857POPE   D2A13116   5.862   8.530   7.559  0.1323 -0.0287 -0.2093
  857POPE   C3A13117   6.192   8.872   7.717 -0.0803 -0.0347  0.0651
  857POPE   C4A13118   6.422   9.162   8.057 -0.0070  0.0425  0.1433
  857POPE   C1B13119   5.882   7.919   7.159  0.3616 -0.0383  0.1089
  857POPE   C2B13120   5.737   7.641   7.479  0.3069 -0.0940  0.2725
  857POPE   C3B13121   5.642   7.714   7.871 -0.2792  0.0202 -0.1674
  857POPE   C4B13122   5.754   7.483   8.305 -0.0677  0.1764  0.2033
  858POPE   NH313123   4.259  12.989   6.073  0.0344 -0.0294  0.2313
  858POPE   PO413124   4.605  13.083   6.332  0.0275  0.2071 -0.0658
  858POPE   GL113125   4.363  12.995   6.605 -0.2223  0.0220  0.1056
  858POPE   GL213126   4.148  12.895   6.594 -0.0028 -0.0991 -0.1316
  858POPE   C1A13127   4.529  13.080   6.993  0.0273  0.0383  0.0118
  858POPE   D2A13128   4.857  13.023   7.407 -0.0324 -0.1750  0.2502
  858POPE   C3A13129   5.250  13.333   7.522  0.2200 -0.0825  0.1795
  858POPE   C4A13130   5.573  13.508   7.391  0.3103 -0.0615 -0.1659
  858POPE   C1B13131   4.138  12.758   7.036  0.1595 -0.3415  0.2959
  858POPE   C2B13132   4.360  12.785   7.345  0.0047  0.0886 -0.2048
  858POPE   C3B13133   4.588  12.740   7.722  0.1717  0.1684 -0.1924
  858POPE   C4B13134   4.828  12.894   8.058 -0.0035  0.1952 -0.0108
  859POPE   NH313135   6.850   7.282   5.523 -0.0396  0.0973  0.0557
  859POPE   PO413136   6.970   7.062   5.884  0.0584  0.0771  0.0797
  859POPE   GL113137   7.095   7.050   6.367  0.2347  0.1044 -0.1594
  859POPE   GL213138   6.835   7.292   6.430 -0.0279  0.2887  0.0695
  859POPE   C1A13139   7.087   7.312   6.856  0.0984  0.2052 -0.0382
  859POPE   D2A13140   7.026   7.557   7.228  0.1140 -0.0399 -0.3723
  859POPE   C3A13141   6.875   7.378   7.586  0.0507  0.0726  0.0439
  859POPE   C4A13142   6.680   7.446   7.916 -0.0563 -0.0316 -0.1686
  859POPE   C1B13143   6.624   7.287   6.824 -0.2263  0.1011  0.0416
  859POPE   C2B13144   6.494   7.159   7.185 -0.1631 -0.1085  0.0618
  859POPE   C3B13145   6.432   7.113   7.582 -0.0083 -0.4068  0.1209
  859POPE   C4B13146   6.384   7.031   8.024 -0.2627 -0.0756 -0.0516
  860POPE   NH313147   5.610  16.576   5.647 -0.1534  0.2013 -0.0966
  860POPE   PO413148   6.005  16.928   5.642  0.0806  0.1733 -0.0706
  860POPE   GL113149   5.742  17.107   5.912  0.1118 -0.0523  0.1849
  860POPE   GL213150   5.500  17.048   5.940  0.2829  0.2508 -0.1883
  860POPE   C1A13151   5.822  17.258   6.341  0.0648  0.1419 -0.1971
  860POPE   D2A13152   5.861  17.387   6.805 -0.2669  0.3462  0.1318
  860POPE   C3A13153   5.728  17.239   7.122  0.0631  0.0502  0.1313
  860POPE   C4A13154   5.741  17.119   7.536  0.1665 -0.3521 -0.1044
  860POPE   C1B13155   5.563  16.833   6.318 -0.0108 -0.4673  0.1761
  860POPE   C2B13156   5.594  16.926   6.786  0.1819  0.1461  0.0295
  860POPE   C3B13157   5.491  16.795   7.261  0.0890 -0.2051  0.1850
  860POPE   C4B13158   5.369  16.810   7.691 -0.2666 -0.0473  0.0709
  861POPE   NH313159   1.420   2.775   5.466 -0.0851  0.1847 -0.0311
  861POPE   PO413160   0.956   2.767   5.542 -0.0807  0.1045  0.0625
  861POPE   GL113161   0.787   2.927   5.927 -0.1890 -0.0822  0.0994
  861POPE   GL213162   0.660   3.256   5.944  0.0467 -0.0200  0.1650
  861POPE   C1A13163   0.545   2.823   6.335  0.0417  0.0975 -0.0994
  861POPE   D2A13164   0.282   2.889   6.608  0.2849  0.1632  0.3109
  861POPE   C3A13165   0.292   2.905   6.998 -0.0285 -0.1445  0.0257
  861POPE   C4A13166   0.593   2.909   7.362  0.0635 -0.0882  0.1632
  861POPE   C1B13167   0.607   3.348   6.373  0.2984  0.0914  0.3809
  861POPE   C2B13168   0.765   3.626   6.659  0.3311  0.1974 -0.0693
  861POPE   C3B13169   0.781   3.655   7.076 -0.0705  0.0596  0.1225
  861POPE   C4B13170   0.748   3.437   7.364  0.1643 -0.0379  0.0105
  862POPE   NH313171   9.220   8.993   5.530 -0.0380 -0.0798  0.2574
  862POPE   PO413172   9.289   9.428   5.637  0.1643 -0.1700 -0.1392
  862POPE   GL113173   9.501   9.507   6.001  0.0297 -0.3550 -0.0410
  862POPE   GL213174   9.287   9.786   6.156  0.0893  0.1019  0.1385
  862POPE   C1A13175   9.726   9.466   6.369  0.0316  0.0549  0.1145
  862POPE   D2A13176   9.875   9.347   6.810 -0.0817  0.3117  0.2736
  862POPE   C3A13177   9.774   9.020   7.141  0.2226  0.0844 -0.1744
  862POPE   C4A13178   9.844   8.697   7.438  0.1507 -0.1861 -0.0910
  862POPE   C1B13179   9.353   9.728   6.572 -0.4686  0.0195 -0.1409
  862POPE   C2B13180   9.500   9.716   6.955 -0.1133 -0.2681 -0.1877
  862POPE   C3B13181   9.619   9.520   7.349 -0.2888  0.0478  0.6533
  862POPE   C4B13182   9.843   9.299   7.526  0.1078  0.0017  0.4038
  863POPE   NH313183  17.044   4.863   5.761 -0.0846  0.0655  0.1042
  863POPE   PO413184  16.770   4.638   5.627  0.0023  0.0414  0.0559
  863POPE   GL113185  16.675   4.578   5.998  0.3146  0.1236 -0.2016
  863POPE   GL213186  16.823   4.507   6.149 -0.0150  0.1659  0.1699
  863POPE   C1A13187  16.309   4.438   6.085  0.0294 -0.1836  0.0620
  863POPE   D2A13188  15.956   4.073   6.265 -0.0694 -0.1899 -0.2074
  863POPE   C3A13189  16.163   3.596   6.348  0.0159  0.3392  0.0135
  863POPE   C4A13190  16.260   3.278   6.104  0.1429  0.0463 -0.0612
  863POPE   C1B13191  16.706   4.517   6.597 -0.1004  0.2080  0.2354
  863POPE   C2B13192  16.567   4.479   7.027  0.3496  0.2323  0.0674
  863POPE   C3B13193  16.363   4.424   7.339 -0.0230  0.2478  0.1209
  863POPE   C4B13194  16.288   4.575   7.844 -0.0908  0.3550  0.1210
  864POPE   NH313195  17.675   9.439   5.655  0.2940 -0.3267  0.1699
  864POPE   PO413196  17.283   9.707   5.600  0.0545  0.0442 -0.0699
  864POPE   GL113197  17.301   9.829   5.986 -0.0190 -0.1868  0.1600
  864POPE   GL213198  17.471   9.838   6.255 -0.1873 -0.1563  0.0330
  864POPE   C1A13199  16.990   9.710   6.348 -0.0753 -0.1780 -0.1468
  864POPE   D2A13200  16.777   9.573   6.760 -0.1221  0.0780 -0.1889
  864POPE   C3A13201  16.773   9.520   7.193  0.1493 -0.0761 -0.0461
  864POPE   C4A13202  16.821   9.360   7.541 -0.0759  0.0326 -0.1794
  864POPE   C1B13203  17.536  10.225   6.610  0.0567 -0.1556 -0.0394
  864POPE   C2B13204  17.577  10.239   7.017 -0.1582 -0.0184 -0.1565
  864POPE   C3B13205  17.545  10.381   7.447 -0.1526 -0.0748 -0.0008
  864POPE   C4B13206  17.205  10.605   7.699  0.0192  0.0115  0.2661
  865POPE   NH313207   9.757  10.130   5.918 -0.0039 -0.4015  0.0570
  865POPE   PO413208   9.900   9.729   5.676  0.0967  0.1041 -0.2890
  865POPE   GL113209  10.047   9.807   6.141 -0.0573  0.1133 -0.3889
  865POPE   GL213210  10.166  10.107   6.284 -0.0758 -0.0214 -0.1893
  865POPE   C1A13211  10.317   9.533   6.401  0.2735 -0.2129  0.3558
  865POPE   D2A13212  10.239   9.076   6.493 -0.1463 -0.1169  0.2100
  865POPE   C3A13213  10.127   8.821   6.216 -0.3872  0.1722 -0.0449
  865POPE   C4A13214  10.295   8.508   5.928  0.2877 -0.0809 -0.0671
  865POPE   C1B13215  10.016   9.894   6.703 -0.1756 -0.1928  0.1266
  865POPE   C2B13216  10.028   9.714   7.172 -0.0348 -0.0906  0.2614
  865POPE   C3B13217   9.999   9.737   7.626 -0.0001 -0.1902 -0.1316
  865POPE   C4B13218   9.776   9.480   8.000 -0.2388  0.1811  0.0497
  866POPE   NH313219   2.497   9.813   6.179  0.2689  0.0096 -0.0292
  866POPE   PO413220   2.906   9.683   6.195 -0.1933 -0.0626 -0.1900
  866POPE   GL113221   2.917   9.680   6.621 -0.1665 -0.0828 -0.0819
  866POPE   GL213222   2.696   9.925   6.634 -0.1402  0.0974 -0.1413
  866POPE   C1A13223   2.815   9.629   7.115  0.0120  0.3613 -0.2487
  866POPE   D2A13224   2.957   9.453   7.477 -0.1309  0.0642  0.2541
  866POPE   C3A13225   2.924   9.546   7.950  0.0098  0.2232  0.1847
  866POPE   C4A13226   2.700   9.382   8.295  0.0270  0.0794  0.1227
  866POPE   C1B13227   2.653  10.074   7.026 -0.0159  0.0013  0.1007
  866POPE   C2B13228   2.456  10.059   7.447 -0.1583 -0.1700  0.3174
  866POPE   C3B13229   2.303  10.230   7.921  0.2038 -0.0187 -0.1762
  866POPE   C4B13230   2.319  10.209   8.298 -0.2411 -0.1964  0.1415
  867POPE   NH313231  16.115  11.396   5.682  0.1083  0.0060  0.3705
  867POPE   PO413232  15.716  11.568   5.911 -0.0123  0.2850  0.2884
  867POPE   GL113233  15.709  11.987   6.227  0.0789  0.2881  0.0398
  867POPE   GL213234  15.975  11.953   6.399 -0.0610  0.1820 -0.1141
  867POPE   C1A13235  15.489  11.925   6.544 -0.0365 -0.2423 -0.1618
  867POPE   D2A13236  15.562  12.012   7.047 -0.4567  0.0212 -0.0832
  867POPE   C3A13237  15.283  11.746   7.258  0.2653  0.0252  0.3314
  867POPE   C4A13238  15.204  11.628   7.719 -0.1026 -0.0836 -0.1726
  867POPE   C1B13239  15.957  11.751   6.770  0.0663  0.0430  0.0219
  867POPE   C2B13240  16.145  11.481   7.116  0.1987  0.0819 -0.0148
  867POPE   C3B13241  16.312  11.242   7.288 -0.3773  0.1596  0.0018
  867POPE   C4B13242  16.523  10.959   7.551  0.1194  0.2265 -0.2880
  868POPE   NH313243  14.240  17.389   5.682 -0.1048  0.2975  0.1015
  868POPE   PO413244  14.652  17.531   5.974 -0.0305  0.4444 -0.2229
  868POPE   GL113245  14.333  17.260   6.127  0.0904  0.2231 -0.0625
  868POPE   GL213246  14.403  17.403   6.449 -0.0176  0.2983  0.0119
  868POPE   C1A13247  14.174  16.916   6.339  0.5430 -0.1318 -0.2939
  868POPE   D2A13248  14.003  16.756   6.593 -0.2016  0.0092 -0.0549
  868POPE   C3A13249  13.650  16.919   6.566  0.3947 -0.0249  0.0356
  868POPE   C4A13250  13.772  17.299   6.728  0.1645  0.4165  0.0600
  868POPE   C1B13251  14.308  17.164   6.776  0.0339 -0.2428 -0.2500
  868POPE   C2B13252  14.054  17.026   7.020 -0.0661  0.0120  0.2281
  868POPE   C3B13253  13.824  17.357   7.257  0.0382  0.1392 -0.2982
  868POPE   C4B13254  13.508  17.344   7.535 -0.1592  0.0601 -0.0923
  869POPE   NH313255   6.397  17.247   5.732  0.1257 -0.0718  0.2126
  869POPE   PO413256   6.499  17.577   6.079 -0.1661  0.1772 -0.0384
  869POPE   GL113257   6.324  17.193   6.275 -0.1206 -0.0206  0.1080
  869POPE   GL213258   6.184  17.009   6.137  0.2646 -0.2827  0.2031
  869POPE   C1A13259   6.289  17.166   6.759 -0.1147 -0.1486 -0.1853
  869POPE   D2A13260   6.246  17.110   7.131 -0.1619 -0.3044  0.0063
  869POPE   C3A13261   6.130  17.350   7.374 -0.0177  0.0981  0.0352
  869POPE   C4A13262   6.058  17.743   7.209 -0.2034 -0.0036  0.0140
  869POPE   C1B13263   6.063  16.763   6.522  0.0684 -0.2507 -0.0808
  869POPE   C2B13264   5.991  16.670   6.996 -0.1576  0.1036 -0.0980
  869POPE   C3B13265   5.998  16.723   7.395 -0.0703  0.0529 -0.0472
  869POPE   C4B13266   6.249  16.896   7.646 -0.0735  0.2349  0.0058
  870POPE   NH313267   7.242   7.931   6.153  0.0366 -0.0098  0.0286
  870POPE   PO413268   7.471   8.200   5.957 -0.0281 -0.0311 -0.0278
  870POPE   GL113269   7.577   8.317   6.338 -0.0733  0.0400 -0.0521
  870POPE   GL213270   7.425   8.569   6.479  0.2020  0.0120  0.0109
  870POPE   C1A13271   7.572   8.214   6.815 -0.0910 -0.0781  0.0390
  870POPE   D2A13272   7.780   8.174   7.096  0.2938 -0.0582  0.2205
  870POPE   C3A13273   7.624   8.410   7.335 -0.0678 -0.2545 -0.0376
  870POPE   C4A13274   7.528   8.703   7.656  0.1567 -0.1177  0.2658
  870POPE   C1B13275   7.393   8.655   6.865  0.0741 -0.2940  0.1701
  870POPE   C2B13276   7.180   8.643   7.179 -0.1887  0.2760 -0.0484
  870POPE   C3B13277   7.023   8.827   7.557  0.0393  0.2663  0.3898
  870POPE   C4B13278   6.675   8.651   7.817  0.0189 -0.2032 -0.1392
  871POPE   NH313279  16.812   1.038   5.651 -0.1068  0.2069 -0.1043
  871POPE   PO413280  17.009   1.318   5.873  0.0782 -0.0602  0.1102
  871POPE   GL113281  16.824   1.422   6.252 -0.1254  0.1090  0.3826
  871POPE   GL213282  16.777   1.725   6.225  0.0416 -0.1764  0.1333
  871POPE   C1A13283  16.869   1.652   6.750  0.1461 -0.0575  0.3003
  871POPE   D2A13284  16.900   1.768   7.226 -0.0869  0.0862 -0.1039
  871POPE   C3A13285  16.933   1.437   7.515  0.0235  0.0771  0.0843
  871POPE   C4A13286  17.211   1.341   7.865  0.2128 -0.3580 -0.1542
  871POPE   C1B13287  16.797   2.020   6.404  0.2284 -0.0102  0.0129
  871POPE   C2B13288  16.830   2.173   6.885 -0.1372  0.0536  0.3630
  871POPE   C3B13289  16.602   2.207   7.264  0.2010  0.0602  0.1317
  871POPE   C4B13290  16.429   2.176   7.717  0.0661 -0.2230  0.0011
  872POPE   NH313291  18.041  16.958   5.640  0.3476  0.3174 -0.0675
  872POPE   PO413292  18.287  16.576   5.480  0.0015 -0.0858 -0.1399
  872POPE   GL113293  18.298  16.624   5.920  0.4353 -0.0761  0.2003
  872POPE   GL213294  18.521  16.616   6.015 -0.4286 -0.0125  0.1731
  872POPE   C1A13295  18.170  16.684   6.381 -0.1268 -0.0822  0.0632
  872POPE   D2A13296  17.952  16.615   6.751 -0.0018  0.0943  0.0106
  872POPE   C3A13297  18.007  16.469   7.098 -0.1632  0.3113 -0.1287
  872POPE   C4A13298  17.872  16.226   7.379  0.1940 -0.0132 -0.0211
  872POPE   C1B13299  18.653  16.537   6.391 -0.2347 -0.0262  0.0728
  872POPE   C2B13300  18.534  16.624   6.753  0.1709  0.1033  0.1135
  872POPE   C3B13301  18.575  16.505   7.196 -0.4102  0.1052 -0.2237
  872POPE   C4B13302  18.449  16.693   7.592  0.1115  0.0402  0.1114
  873POPE   NH313303  16.375  14.225   5.513  0.1928  0.0485 -0.4474
  873POPE   PO413304  16.279  13.739   5.677  0.3993 -0.0802  0.0990
  873POPE   GL113305  16.491  13.794   6.077 -0.2129 -0.0781  0.1029
  873POPE   GL213306  16.707  13.554   6.215  0.1431 -0.2418 -0.2221
  873POPE   C1A13307  16.537  13.968   6.475  0.1482  0.0961 -0.0811
  873POPE   D2A13308  16.602  14.047   6.885 -0.0445 -0.0496 -0.0635
  873POPE   C3A13309  16.955  13.901   7.152 -0.0332  0.2952 -0.0207
  873POPE   C4A13310  17.077  13.540   7.425 -0.1456 -0.2364 -0.0815
  873POPE   C1B13311  16.333  13.512   6.460 -0.1617 -0.1907 -0.1167
  873POPE   C2B13312  16.083  13.831   6.631  0.2187  0.1488 -0.0955
  873POPE   C3B13313  16.148  13.939   7.094 -0.1261  0.1417 -0.0430
  873POPE   C4B13314  16.383  13.977   7.436 -0.0145  0.2674  0.2014
  874YOPE   NH313315   6.061  14.728   5.524  0.3186 -0.2415  0.3028
  874YOPE   PO413316   6.338  14.500   5.794 -0.2070  0.0021  0.2477
  874YOPE   GL113317   6.437  14.681   6.174  0.2570 -0.0053  0.0102
  874YOPE   GL213318   6.654  14.995   6.216 -0.0231 -0.0288 -0.2027
  874YOPE   C1A13319   6.448  14.433   6.481  0.0003  0.0531 -0.0713
  874YOPE   D2A13320   6.790  14.181   6.548  0.4161  0.0204 -0.0448
  874YOPE   C3A13321   6.911  14.174   7.056 -0.3904  0.0631 -0.0412
  874YOPE   C4A13322   7.128  14.085   7.436  0.1770 -0.0406 -0.1355
  874YOPE   C1B13323   6.723  14.800   6.688  0.2850 -0.1006 -0.0575
  874YOPE   C2B13324   6.752  14.895   7.171  0.1817  0.1979  0.4539
  874YOPE   D3B13325   6.824  14.952   7.496  0.2701 -0.0992 -0.1549
  874YOPE   C4B13326   6.590  14.935   7.870 -0.3575 -0.0808 -0.0356
  875YOPE   NH313327   7.523   5.170   5.622  0.1829  0.1707  0.1241
  875YOPE   PO413328   7.415   4.980   6.085 -0.1340 -0.0445 -0.1822
  875YOPE   GL113329   7.337   4.774   6.506  0.2029  0.0761  0.0710
  875YOPE   GL213330   7.631   4.571   6.584 -0.1005  0.2026  0.3086
  875YOPE   C1A13331   7.318   4.705   6.954  0.1269 -0.0080  0.0088
  875YOPE   D2A13332   7.231   4.673   7.444 -0.1437 -0.2475  0.3530
  875YOPE   C3A13333   7.273   4.344   7.696 -0.0393  0.1592  0.3722
  875YOPE   C4A13334   7.248   4.139   7.985  0.0849  0.4471 -0.1557
  875YOPE   C1B13335   7.691   4.421   6.989  0.0196  0.1577  0.0249
  875YOPE   C2B13336   7.739   4.405   7.398  0.1861 -0.4424 -0.2058
  875YOPE   D3B13337   8.049   4.238   7.574 -0.1144  0.2409 -0.0197
  875YOPE   C4B13338   8.325   3.825   7.544 -0.1052 -0.1809 -0.0375
  876YOPE   NH313339   0.544  11.728   6.038  0.1373  0.0436 -0.1354
  876YOPE   PO413340   0.448  12.124   5.762 -0.0415  0.1836 -0.0459
  876YOPE   GL113341   0.443  12.181   6.184  0.0640 -0.0083 -0.1002
  876YOPE   GL213342   0.144  12.029   6.205  0.2274 -0.2870  0.0995
  876YOPE   C1A13343   0.467  12.137   6.629 -0.1870  0.2304  0.0035
  876YOPE   D2A13344   0.480  12.288   6.985  0.1790  0.1086  0.0027
  876YOPE   C3A13345   0.799  12.511   7.236  0.2452  0.1435 -0.0405
  876YOPE   C4A13346   0.943  12.940   7.432  0.0305  0.0859  0.3021
  876YOPE   C1B13347   0.266  11.670   6.636  0.4010 -0.0201  0.2776
  876YOPE   C2B13348   0.371  11.813   7.034 -0.0532 -0.0140 -0.2592
  876YOPE   D3B13349   0.220  12.072   7.358  0.2966  0.0386 -0.0858
  876YOPE   C4B13350  -0.028  12.046   7.747 -0.0573 -0.1170  0.1118
  877YOPE   NH313351  16.169   1.594   5.722 -0.0686  0.1945  0.0115
  877YOPE   PO413352  16.373   1.162   5.898 -0.0726 -0.2248  0.0632
  877YOPE   GL113353  16.365   1.193   6.280  0.1708  0.0997 -0.2725
  877YOPE   GL213354  16.317   1.534   6.268  0.1325 -0.1834  0.3197
  877YOPE   C1A13355  16.513   1.327   6.659  0.0595 -0.0168  0.0618
  877YOPE   D2A13356  16.545   1.390   7.047  0.0091  0.0308  0.0348
  877YOPE   C3A13357  16.484   1.080   7.397 -0.1321  0.0303 -0.2773
  877YOPE   C4A13358  16.436   1.074   7.825 -0.1527 -0.0514 -0.0805
  877YOPE   C1B13359  16.384   1.833   6.486 -0.1588 -0.0115 -0.0145
  877YOPE   C2B13360  16.407   1.829   6.925 -0.0411  0.1138 -0.0109
  877YOPE   D3B13361  16.393   1.783   7.375  0.1151  0.1354 -0.2751
  877YOPE   C4B13362  16.117   1.751   7.757 -0.0993  0.3438 -0.0180
  878YOPE   NH313363   3.489  14.927   5.998  0.1834 -0.1843  0.0153
  878YOPE   PO413364   3.632  14.570   6.008  0.1312 -0.2461 -0.1632
  878YOPE   GL113365   3.633  14.497   6.487 -0.3475 -0.2838  0.1644
  878YOPE   GL213366   3.769  14.237   6.592  0.0754  0.2329  0.0793
  878YOPE   C1A13367   3.593  14.657   6.949  0.1082 -0.0646  0.1467
  878YOPE   D2A13368   3.530  14.785   7.420 -0.1427  0.1142 -0.0905
  878YOPE   C3A13369   3.706  15.156   7.656 -0.1839  0.0363 -0.1704
  878YOPE   C4A13370   3.798  15.307   7.993 -0.2423  0.1493 -0.0110
  878YOPE   C1B13371   3.609  14.185   7.047 -0.0307 -0.0170  0.1704
  878YOPE   C2B13372   3.499  13.815   7.351 -0.0803 -0.2488 -0.0683
  878YOPE   D3B13373   3.602  13.432   7.546 -0.1049  0.1265  0.0732
  878YOPE   C4B13374   3.677  13.356   7.858  0.1959 -0.0738  0.0702
  879YOPE   NH313375  11.000   0.135   5.395  0.1216 -0.0183 -0.0109
  879YOPE   PO413376  11.166   0.375   5.699 -0.0061  0.0777 -0.1337
  879YOPE   GL113377  11.407   0.502   6.000  0.3189 -0.0085 -0.5082
  879YOPE   GL213378  11.424   0.885   6.055 -0.1720 -0.0982 -0.0577
  879YOPE   C1A13379  11.502   0.340   6.442 -0.2291 -0.2113  0.1029
  879YOPE   D2A13380  11.500   0.176   6.824  0.3636  0.0621  0.2036
  879YOPE   C3A13381  11.444   0.344   7.221 -0.1325 -0.1880 -0.1374
  879YOPE   C4A13382  11.259   0.349   7.624 -0.2593 -0.3485  0.2525
  879YOPE   C1B13383  11.610   0.871   6.459  0.1779 -0.3079 -0.1165
  879YOPE   C2B13384  11.728   0.663   6.883 -0.1268  0.0130  0.1267
  879YOPE   D3B13385  11.679   0.827   7.278  0.2888  0.0955  0.0102
  879YOPE   C4B13386  11.878   0.900   7.601  0.0563  0.0812  0.0288
  880YOPE   NH313387  14.600   9.141   5.132  0.1289  0.4061  0.2389
  880YOPE   PO413388  14.114   9.238   5.299 -0.0612 -0.1937  0.1443
  880YOPE   GL113389  14.350   9.253   5.607 -0.0120 -0.0229 -0.1638
  880YOPE   GL213390  14.175   9.480   5.860 -0.1979  0.0681  0.2207
  880YOPE   C1A13391  14.341   8.996   6.000  0.0815  0.0415  0.2417
  880YOPE   D2A13392  14.509   8.716   6.344  0.2692 -0.1989 -0.3237
  880YOPE   C3A13393  14.266   8.355   6.333  0.0417  0.0333  0.0732
  880YOPE   C4A13394  13.912   8.244   6.166 -0.3585 -0.1627  0.2375
  880YOPE   C1B13395  14.035   9.462   6.229 -0.1239 -0.2747  0.2575
  880YOPE   C2B13396  14.117   9.161   6.543  0.1995  0.3245  0.1226
  880YOPE   D3B13397  14.371   8.873   6.887 -0.1180  0.0044 -0.0753
  880YOPE   C4B13398  14.299   8.578   7.277 -0.0469  0.2658  0.0846
  881YOPE   NH313399  18.288   9.982   5.858  0.3151 -0.0660  0.0714
  881YOPE   PO413400  18.120   9.736   5.568 -0.3059  0.0061  0.1573
  881YOPE   GL113401  18.105   9.635   6.122 -0.2780 -0.1356 -0.2716
  881YOPE   GL213402  17.910   9.390   6.186  0.0064  0.3087 -0.1233
  881YOPE   C1A13403  17.981   9.617   6.567  0.2132  0.1888 -0.0026
  881YOPE   D2A13404  17.747   9.794   6.808 -0.0106 -0.0895  0.0229
  881YOPE   C3A13405  17.845   9.866   7.262 -0.0274 -0.0245  0.0980
  881YOPE   C4A13406  17.903  10.025   7.712 -0.1415  0.3464  0.0478
  881YOPE   C1B13407  17.815   9.199   6.718 -0.1545  0.0072 -0.0491
  881YOPE   C2B13408  17.754   9.355   7.098  0.0501 -0.1983 -0.1562
  881YOPE   D3B13409  17.744   9.399   7.545  0.3415  0.0010  0.1036
  881YOPE   C4B13410  17.649   9.593   7.980 -0.1538 -0.0392  0.2178
  882YOPE   NH313411  11.331   5.266   5.474 -0.0252  0.0061 -0.1230
  882YOPE   PO413412  11.811   5.159   5.411  0.1350  0.1190 -0.1993
  882YOPE   GL113413  12.078   5.348   5.793  0.0521  0.3004 -0.0267
  882YOPE   GL213414  12.073   5.584   5.855  0.0284 -0.0875 -0.2602
  882YOPE   C1A13415  11.833   5.242   6.293 -0.1905  0.1492  0.1090
  882YOPE   D2A13416  11.651   5.363   6.678 -0.2232  0.0837  0.1087
  882YOPE   C3A13417  11.190   5.424   6.745 -0.2364  0.3617 -0.0280
  882YOPE   C4A13418  10.848   5.139   6.935 -0.2999  0.1704 -0.3347
  882YOPE   C1B13419  12.216   5.577   6.231 -0.0196 -0.1914 -0.3657
  882YOPE   C2B13420  12.157   5.616   6.680 -0.1546  0.0391  0.0535
  882YOPE   D3B13421  12.259   5.964   6.849 -0.1472  0.1095  0.0950
  882YOPE   C4B13422  12.096   6.359   6.884  0.1037  0.0131  0.1650
  883YOPE   NH313423   6.539   0.650   5.579 -0.2209  0.0603 -0.1107
  883YOPE   PO413424   6.692   0.920   5.851 -0.0682 -0.0486  0.1452
  883YOPE   GL113425   6.498   0.939   6.237 -0.0494  0.0197 -0.0829
  883YOPE   GL213426   6.581   0.663   6.387  0.1758 -0.0996 -0.0651
  883YOPE   C1A13427   6.720   1.172   6.566 -0.0487  0.2198  0.0455
  883YOPE   D2A13428   6.774   1.380   7.003  0.1269 -0.0966  0.2603
  883YOPE   C3A13429   6.863   1.714   7.177  0.0585 -0.0081  0.3561
  883YOPE   C4A13430   6.973   2.070   7.237  0.0051 -0.0161  0.1719
  883YOPE   C1B13431   6.573   0.539   6.742  0.1906  0.2010  0.1339
  883YOPE   C2B13432   6.236   0.313   6.944 -0.2353  0.3249  0.0964
  883YOPE   D3B13433   6.139   0.297   7.399 -0.0207  0.0206  0.3550
  883YOPE   C4B13434   6.035   0.434   7.811  0.1534  0.0320  0.0050
  884YOPE   NH313435  14.469   9.681   5.419 -0.1400  0.1541  0.0611
  884YOPE   PO413436  14.361  10.071   5.339  0.1673 -0.0603  0.0120
  884YOPE   GL113437  14.088  10.155   5.634 -0.0228  0.0243  0.0367
  884YOPE   GL213438  14.174  10.449   5.782 -0.2423 -0.0771 -0.0346
  884YOPE   C1A13439  13.933  10.069   6.071 -0.0785  0.2530  0.1538
  884YOPE   D2A13440  13.737   9.829   6.302 -0.0668 -0.0585  0.4016
  884YOPE   C3A13441  13.616   9.850   6.717  0.3875  0.1382 -0.1369
  884YOPE   C4A13442  13.393   9.708   7.040  0.2642 -0.0390 -0.0643
  884YOPE   C1B13443  14.364  10.352   6.178  0.2688 -0.2665  0.1751
  884YOPE   C2B13444  14.467  10.295   6.671 -0.1190 -0.0549 -0.2162
  884YOPE   D3B13445  14.362  10.282   7.087 -0.1036  0.1093  0.0324
  884YOPE   C4B13446  14.106  10.186   7.397  0.1079  0.1944 -0.0260
  885YOPE   NH313447   7.881   0.338   5.886 -0.0240  0.1463 -0.1481
  885YOPE   PO413448   7.346   0.543   5.913 -0.2884 -0.3340 -0.1770
  885YOPE   GL113449   7.176   0.642   6.346  0.1678 -0.0401 -0.1408
  885YOPE   GL213450   7.041   0.888   6.278 -0.3474  0.2543  0.3323
  885YOPE   C1A13451   7.091   0.674   6.756 -0.1021  0.2726  0.2933
  885YOPE   D2A13452   6.936   0.878   7.063 -0.1428  0.0950  0.1504
  885YOPE   C3A13453   6.465   0.901   7.053 -0.2135  0.0392  0.0285
  885YOPE   C4A13454   6.037   0.796   7.236  0.0299 -0.1421  0.0016
  885YOPE   C1B13455   7.196   1.113   6.610 -0.3242 -0.0327  0.1019
  885YOPE   C2B13456   7.286   1.309   6.991 -0.3243 -0.0172 -0.1171
  885YOPE   D3B13457   7.110   1.281   7.362 -0.1631 -0.1555  0.0028
  885YOPE   C4B13458   6.670   1.208   7.443  0.0152 -0.3674 -0.0213
  886YOPE   NH313459  14.218  14.816   5.451 -0.1031  0.4496 -0.0058
  886YOPE   PO413460  14.359  14.531   5.685 -0.1106 -0.2195 -0.0478
  886YOPE   GL113461  14.381  14.508   6.095 -0.0071 -0.0475 -0.0141
  886YOPE   GL213462  14.097  14.522   6.191  0.0206 -0.2503 -0.1739
  886YOPE   C1A13463  14.536  14.299   6.425  0.2729  0.1547  0.0910
  886YOPE   D2A13464  14.483  13.946   6.719  0.2734 -0.0829  0.0089
  886YOPE   C3A13465  14.702  13.840   7.145 -0.2400 -0.0236 -0.2341
  886YOPE   C4A13466  14.592  14.045   7.494  0.1019 -0.3062  0.0284
  886YOPE   C1B13467  14.075  14.212   6.503  0.1167  0.0798 -0.0993
  886YOPE   C2B13468  13.790  14.081   6.809 -0.0397 -0.0056  0.4701
  886YOPE   D3B13469  13.390  14.056   7.034 -0.2354  0.0525 -0.0237
  886YOPE   C4B13470  13.179  14.230   7.340 -0.0102 -0.0429  0.0801
  887YOPE   NH313471   3.737  12.235   6.047 -0.3259  0.1424 -0.0438
  887YOPE   PO413472   3.673  11.749   6.003 -0.1568 -0.0855 -0.3933
  887YOPE   GL113473   3.972  11.843   6.355  0.1717 -0.1045  0.0222
  887YOPE   GL213474   3.776  11.981   6.502 -0.0283  0.1983 -0.3053
  887YOPE   C1A13475   4.312  11.917   6.674 -0.4331  0.0153 -0.1504
  887YOPE   D2A13476   4.629  11.964   6.967 -0.0250 -0.1052  0.0896
  887YOPE   C3A13477   4.700  11.927   7.377 -0.1027 -0.0485  0.0374
  887YOPE   C4A13478   4.534  11.759   7.657  0.1190 -0.3659  0.0149
  887YOPE   C1B13479   3.860  11.870   6.946  0.2189  0.1745 -0.2927
  887YOPE   C2B13480   4.232  11.716   7.193  0.2312 -0.0309  0.0886
  887YOPE   D3B13481   4.263  11.398   7.473  0.0389  0.1170  0.2212
  887YOPE   C4B13482   4.305  11.349   7.924  0.0081 -0.2083  0.3479
  888YOPE   NH313483   2.083   2.397   5.869 -0.1528 -0.0733 -0.0030
  888YOPE   PO413484   2.466   2.723   5.901  0.0745  0.2162  0.0213
  888YOPE   GL113485   2.618   3.104   6.215  0.1529 -0.0969 -0.0635
  888YOPE   GL213486   2.714   2.810   6.429  0.1239 -0.0268  0.1382
  888YOPE   C1A13487   2.621   3.421   6.532 -0.1005  0.1514 -0.0955
  888YOPE   D2A13488   2.754   3.439   6.967  0.0894 -0.0689  0.5106
  888YOPE   C3A13489   2.511   3.390   7.337 -0.0932  0.0039 -0.1609
  888YOPE   C4A13490   2.332   3.061   7.780  0.1678 -0.0409  0.2047
  888YOPE   C1B13491   2.686   2.872   6.876  0.0749 -0.0655 -0.1234
  888YOPE   C2B13492   2.550   2.745   7.340 -0.0211  0.2964  0.1603
  888YOPE   D3B13493   2.788   2.873   7.728 -0.0230 -0.2323 -0.0780
  888YOPE   C4B13494   3.043   3.043   7.929  0.1924 -0.0086  0.1847
  889YOPE   NH313495  15.420   5.719   5.442  0.0222  0.0700 -0.1392
  889YOPE   PO413496  15.210   5.361   5.272  0.2487  0.0069  0.1717
  889YOPE   GL113497  15.076   5.298   5.715 -0.0432  0.0329 -0.0945
  889YOPE   GL213498  15.072   5.578   5.786  0.2807  0.0133  0.0013
  889YOPE   C1A13499  14.992   5.214   6.118  0.0352  0.0118  0.0643
  889YOPE   D2A13500  14.936   5.259   6.503  0.0172  0.1322 -0.2014
  889YOPE   C3A13501  15.176   5.033   6.816  0.0546 -0.0845 -0.1928
  889YOPE   C4A13502  15.531   4.859   7.096 -0.0674 -0.3548  0.4557
  889YOPE   C1B13503  14.851   5.775   6.155 -0.1362 -0.2299  0.2559
  889YOPE   C2B13504  14.869   5.748   6.608 -0.0732 -0.0370 -0.1277
  889YOPE   D3B13505  15.018   5.601   6.987  0.2156  0.0928 -0.2146
  889YOPE   C4B13506  15.340   5.767   7.325 -0.0303  0.2400  0.0690
  890YOPE   NH313507   2.772  16.761   6.094  0.2534 -0.1134  0.3729
  890YOPE   PO413508   2.795  16.369   6.177 -0.2605 -0.0676  0.1738
  890YOPE   GL113509   2.620  16.593   6.555 -0.0122 -0.0918  0.0271
  890YOPE   GL213510   2.822  16.822   6.658  0.1644  0.1514 -0.0157
  890YOPE   C1A13511   2.584  16.596   7.030 -0.1734  0.0173 -0.0091
  890YOPE   D2A13512   2.813  16.520   7.509  0.1628 -0.0915 -0.0258
  890YOPE   C3A13513   3.057  16.900   7.626 -0.0823 -0.1225 -0.1709
  890YOPE   C4A13514   3.500  16.885   7.715 -0.0591 -0.1925 -0.1100
  890YOPE   C1B13515   2.927  17.057   7.032  0.1028  0.0340 -0.0582
  890YOPE   C2B13516   2.989  17.373   7.447 -0.0268  0.0394 -0.3364
  890YOPE   D3B13517   2.835  17.891   7.639 -0.1227 -0.0115 -0.0489
  890YOPE   C4B13518   2.792  18.325   7.689 -0.0620  0.1784 -0.0531
  891YOPE   NH313519  15.325   6.482   5.164  0.0029  0.1006 -0.0531
  891YOPE   PO413520  15.562   6.216   5.381  0.2877 -0.1289  0.3740
  891YOPE   GL113521  15.352   6.049   5.778  0.0423  0.0663  0.1123
  891YOPE   GL213522  15.124   6.176   5.997  0.3133  0.2668  0.0032
  891YOPE   C1A13523  15.457   5.697   6.125 -0.1228  0.1231 -0.0505
  891YOPE   D2A13524  15.321   5.534   6.469 -0.0561  0.1221 -0.0723
  891YOPE   C3A13525  15.511   5.376   6.847 -0.0425 -0.2416  0.0388
  891YOPE   C4A13526  15.808   5.308   7.160 -0.1015 -0.1986  0.0303
  891YOPE   C1B13527  15.205   6.109   6.415  0.1023  0.1887 -0.1404
  891YOPE   C2B13528  15.146   6.363   6.710  0.0124 -0.0683 -0.0161
  891YOPE   D3B13529  15.127   6.658   7.070  0.0661  0.1389 -0.3201
  891YOPE   C4B13530  15.138   6.413   7.477 -0.0693  0.3293 -0.0784
  892YOPE   NH313531  17.065   9.299   5.732 -0.2329  0.0256 -0.1935
  892YOPE   PO413532  16.693   9.295   5.396 -0.3501  0.3985  0.0282
  892YOPE   GL113533  16.525   9.330   5.814 -0.2009  0.1647 -0.1169
  892YOPE   GL213534  16.174   9.278   5.843  0.0715  0.0379 -0.0631
  892YOPE   C1A13535  16.557   9.443   6.256 -0.0805 -0.0535  0.3089
  892YOPE   D2A13536  16.505   9.155   6.525 -0.2638 -0.0108 -0.1045
  892YOPE   C3A13537  16.434   9.203   6.895 -0.1606 -0.2190 -0.0508
  892YOPE   C4A13538  16.273   9.609   7.030 -0.2537  0.3381  0.1745
  892YOPE   C1B13539  16.261   9.037   6.149 -0.0962 -0.2751  0.0474
  892YOPE   C2B13540  16.107   8.555   6.266  0.1387 -0.0453  0.1858
  892YOPE   D3B13541  16.035   8.332   6.648 -0.0930 -0.4497  0.1382
  892YOPE   C4B13542  16.110   8.247   7.050  0.2060  0.0428  0.0090
  893YOPE   NH313543  12.577  15.190   6.197 -0.0099 -0.1666  0.4769
  893YOPE   PO413544  12.572  14.793   6.299  0.0832  0.0030  0.0604
  893YOPE   GL113545  12.360  14.868   6.662 -0.3735 -0.1504  0.1484
  893YOPE   GL213546  12.006  14.851   6.632 -0.2204 -0.2709  0.0542
  893YOPE   C1A13547  12.515  14.898   7.037 -0.1494  0.1810 -0.4312
  893YOPE   D2A13548  12.298  14.980   7.410 -0.1017 -0.4120 -0.0464
  893YOPE   C3A13549  12.657  14.766   7.721  0.2571  0.1371  0.1066
  893YOPE   C4A13550  12.861  15.059   8.035  0.0615 -0.1152  0.4264
  893YOPE   C1B13551  11.936  14.973   7.059 -0.1005  0.0623 -0.0682
  893YOPE   C2B13552  11.837  15.054   7.568  0.0369 -0.2086 -0.0316
  893YOPE   D3B13553  12.077  15.211   7.858 -0.1427  0.0282  0.2678
  893YOPE   C4B13554  12.359  15.083   8.089  0.0569 -0.2054 -0.3008
  894YOPE   NH313555   7.014  17.566   6.121  0.0133  0.1461 -0.1034
  894YOPE   PO413556   7.245  17.605   5.840  0.3062 -0.2192 -0.0247
  894YOPE   GL113557   7.502  17.548   6.339 -0.0741  0.1210  0.0232
  894YOPE   GL213558   7.352  17.712   6.552 -0.2324  0.2234  0.1448
  894YOPE   C1A13559   7.595  17.206   6.651 -0.1029 -0.0892  0.2071
  894YOPE   D2A13560   7.874  17.235   7.048  0.1232 -0.0694 -0.0066
  894YOPE   C3A13561   7.977  16.911   7.440  0.0099 -0.3500  0.0695
  894YOPE   C4A13562   7.947  16.899   7.924  0.2063 -0.1521 -0.0914
  894YOPE   C1B13563   7.061  17.453   6.797 -0.1058  0.1011 -0.1302
  894YOPE   C2B13564   6.771  17.283   6.995  0.0244 -0.1110 -0.1043
  894YOPE   D3B13565   6.618  17.326   7.353 -0.1468  0.1021 -0.1646
  894YOPE   C4B13566   6.518  17.329   7.784  0.0668 -0.3375 -0.1273
  895YOPE   NH313567   5.118   9.368   6.275 -0.2118  0.1042 -0.1051
  895YOPE   PO413568   5.409   9.723   6.241  0.2595 -0.2153  0.0254
  895YOPE   GL113569   5.362   9.580   6.682 -0.1389 -0.0126 -0.0398
  895YOPE   GL213570   5.642   9.401   6.643  0.1071  0.2178 -0.0770
  895YOPE   C1A13571   5.369   9.798   7.036 -0.2721  0.0565  0.0062
  895YOPE   D2A13572   5.283   9.636   7.526  0.3700  0.1113 -0.2073
  895YOPE   C3A13573   5.671   9.462   7.759 -0.0041 -0.2318 -0.1818
  895YOPE   C4A13574   6.080   9.336   7.661  0.2423 -0.0505 -0.0781
  895YOPE   C1B13575   5.746   9.432   7.068  0.0823 -0.1132 -0.1861
  895YOPE   C2B13576   5.839   9.702   7.325  0.0345  0.0807  0.2323
  895YOPE   D3B13577   6.064   9.882   7.815  0.1457  0.0171 -0.2826
  895YOPE   C4B13578   5.877   9.807   8.176  0.1651  0.0577 -0.1535
  896YOPE   NH313579  13.141   3.517   5.349  0.3967 -0.1761 -0.0935
  896YOPE   PO413580  13.610   3.690   5.402 -0.1314  0.2833 -0.0732
  896YOPE   GL113581  13.832   3.891   5.708 -0.1873  0.2375  0.2763
  896YOPE   GL213582  13.960   4.178   5.829 -0.0632 -0.0090 -0.2629
  896YOPE   C1A13583  13.940   3.716   6.006  0.0260 -0.2997  0.0517
  896YOPE   D2A13584  14.027   3.694   6.316  0.1212  0.0214  0.0757
  896YOPE   C3A13585  13.899   3.866   6.696 -0.0377 -0.1230  0.0453
  896YOPE   C4A13586  13.880   3.884   7.134  0.0551  0.1627 -0.2434
  896YOPE   C1B13587  13.921   4.277   6.268  0.0795 -0.2902 -0.0101
  896YOPE   C2B13588  13.962   4.357   6.723 -0.1217 -0.2245  0.3321
  896YOPE   D3B13589  13.965   4.409   7.143 -0.0453 -0.0365  0.0243
  896YOPE   C4B13590  14.304   4.497   7.331  0.1779 -0.0229 -0.0676
  897YOPE   NH313591   4.649   5.192   6.090  0.4356 -0.0924  0.1966
  897YOPE   PO413592   4.864   5.552   6.074 -0.0541 -0.1670 -0.0611
  897YOPE   GL113593   5.062   5.684   6.529  0.1659 -0.0423 -0.2886
  897YOPE   GL213594   5.117   5.940   6.590  0.2685 -0.0680 -0.1853
  897YOPE   C1A13595   4.868   5.543   6.870 -0.0635  0.4688 -0.1369
  897YOPE   D2A13596   4.760   5.713   7.310  0.0142  0.1180 -0.2239
  897YOPE   C3A13597   4.885   5.834   7.677 -0.0961 -0.1197  0.0798
  897YOPE   C4A13598   4.707   6.198   8.007 -0.2932  0.0065 -0.2091
  897YOPE   C1B13599   5.104   6.069   7.028 -0.0989  0.0032  0.1493
  897YOPE   C2B13600   5.250   6.093   7.430  0.1341  0.1478 -0.1012
  897YOPE   D3B13601   5.301   6.196   7.918  0.1626 -0.0821  0.3332
  897YOPE   C4B13602   5.451   6.248   8.260  0.2109  0.1029  0.0780
  898YOPE   NH313603  15.668  15.534   5.684  0.0479  0.2742 -0.0741
  898YOPE   PO413604  16.026  15.682   5.868  0.0557 -0.1965 -0.0549
  898YOPE   GL113605  15.814  15.803   6.289 -0.0488 -0.1433 -0.0606
  898YOPE   GL213606  15.714  16.026   6.210  0.0451  0.0146 -0.1728
  898YOPE   C1A13607  15.884  15.639   6.732 -0.1476  0.2087  0.2289
  898YOPE   D2A13608  15.787  15.586   7.117  0.0356  0.1468  0.1852
  898YOPE   C3A13609  16.030  15.357   7.345 -0.1343  0.2641 -0.0176
  898YOPE   C4A13610  16.040  15.270   7.812 -0.2564  0.1356 -0.1521
  898YOPE   C1B13611  15.721  16.223   6.595 -0.0713  0.0675 -0.0669
  898YOPE   C2B13612  15.730  16.382   7.099 -0.0145  0.1115  0.3307
  898YOPE   D3B13613  15.619  16.067   7.323  0.3079  0.2493 -0.1267
  898YOPE   C4B13614  15.708  15.796   7.775 -0.4009 -0.3733  0.3258
  899YOPE   NH313615   5.655  13.304   6.054  0.2744  0.0138 -0.3469
  899YOPE   PO413616   5.565  12.838   6.195 -0.0259 -0.5099 -0.1033
  899YOPE   GL113617   5.483  13.106   6.575  0.1755 -0.4660 -0.1427
  899YOPE   GL213618   5.819  13.177   6.539  0.0297  0.1309 -0.0506
  899YOPE   C1A13619   5.282  13.369   6.883  0.1716  0.0448 -0.1597
  899YOPE   D2A13620   4.971  13.364   7.097 -0.0577  0.0198  0.1021
  899YOPE   C3A13621   4.907  13.679   7.361 -0.0112 -0.1036 -0.0353
  899YOPE   C4A13622   4.805  13.964   7.681  0.2120  0.1860 -0.0392
  899YOPE   C1B13623   5.686  13.134   7.008  0.3512  0.1212 -0.1843
  899YOPE   C2B13624   5.761  13.044   7.506  0.0530  0.0592  0.3065
  899YOPE   D3B13625   5.779  13.250   7.772  0.2922 -0.0824  0.0825
  899YOPE   C4B13626   5.591  13.553   7.978  0.2868  0.1448  0.3055
  900YOPE   NH313627  13.330   6.767   5.225 -0.1837 -0.3736 -0.1039
  900YOPE   PO413628  13.196   7.218   5.296 -0.1179 -0.1533  0.1267
  900YOPE   GL113629  13.024   7.334   5.817 -0.0670 -0.0207  0.1408
  900YOPE   GL213630  13.046   7.636   5.922  0.4722 -0.1527 -0.0293
  900YOPE   C1A13631  13.145   7.093   6.095  0.2273  0.1671 -0.1956
  900YOPE   D2A13632  13.465   6.883   6.420  0.1719 -0.0107 -0.0323
  900YOPE   C3A13633  13.783   6.832   6.251 -0.0020  0.1685 -0.4480
  900YOPE   C4A13634  14.088   7.006   6.244  0.1500  0.1514  0.0773
  900YOPE   C1B13635  13.142   7.625   6.335 -0.3150 -0.1310 -0.0289
  900YOPE   C2B13636  13.192   7.351   6.595 -0.2153 -0.2355  0.3088
  900YOPE   D3B13637  13.435   7.109   6.923  0.0629  0.1349  0.1474
  900YOPE   C4B13638  13.416   7.007   7.435 -0.1003  0.1901  0.0226
  901YOPE   NH313639  14.307  12.297   5.596 -0.0735 -0.3325 -0.2403
  901YOPE   PO413640  14.554  12.697   5.580 -0.0317 -0.2410  0.0233
  901YOPE   GL113641  14.437  12.642   6.033  0.1209  0.1862  0.1495
  901YOPE   GL213642  14.498  12.997   6.074 -0.0279  0.1036  0.0365
  901YOPE   C1A13643  14.252  12.673   6.392  0.0526 -0.1423 -0.0816
  901YOPE   D2A13644  14.305  13.045   6.706 -0.1467 -0.1247  0.0211
  901YOPE   C3A13645  14.480  13.005   7.151  0.0259  0.3243  0.1461
  901YOPE   C4A13646  14.458  13.182   7.595 -0.0379  0.1569 -0.1731
  901YOPE   C1B13647  14.507  13.318   6.326  0.0011 -0.1639  0.2306
  901YOPE   C2B13648  14.566  13.469   6.828 -0.1449  0.1788 -0.0738
  901YOPE   D3B13649  14.327  13.491   7.195  0.2210  0.0071  0.1814
  901YOPE   C4B13650  13.974  13.361   7.458  0.3812 -0.0790 -0.1829
  902YOPE   NH313651   7.335  16.384   6.028  0.0477 -0.0214  0.0980
  902YOPE   PO413652   7.415  15.915   5.912  0.1281  0.0303  0.1256
  902YOPE   GL113653   7.316  15.929   6.321  0.0569 -0.0856  0.0315
  902YOPE   GL213654   7.623  16.004   6.425 -0.0518 -0.0719  0.1568
  902YOPE   C1A13655   7.149  16.121   6.664 -0.1004  0.2364 -0.1399
  902YOPE   D2A13656   6.913  16.268   6.929  0.1691  0.2005  0.0998
  902YOPE   C3A13657   7.151  16.467   7.186  0.0092 -0.3299  0.0969
  902YOPE   C4A13658   7.246  16.519   7.549  0.2395 -0.2173 -0.4798
  902YOPE   C1B13659   7.678  15.969   6.848 -0.1276 -0.0730  0.0797
  902YOPE   C2B13660   7.682  15.701   7.246  0.0767  0.0014 -0.0203
  902YOPE   D3B13661   7.440  15.570   7.718  0.0131 -0.0412 -0.0174
  902YOPE   C4B13662   7.455  15.244   7.973 -0.4382 -0.0008  0.1060
  903YOPE   NH313663   3.760  15.453   5.891  0.2228  0.1213  0.2476
  903YOPE   PO413664   3.249  15.559   5.749  0.0910 -0.1012 -0.0728
  903YOPE   GL113665   3.231  15.339   6.237  0.1101 -0.0533  0.1034
  903YOPE   GL213666   3.592  15.247   6.398  0.4990 -0.0017 -0.2374
  903YOPE   C1A13667   3.136  15.601   6.634  0.1178 -0.0010 -0.3282
  903YOPE   D2A13668   3.232  15.782   7.022  0.2903  0.3109 -0.0519
  903YOPE   C3A13669   3.030  15.590   7.343 -0.2494  0.0563  0.1539
  903YOPE   C4A13670   2.864  15.565   7.768 -0.0482 -0.0145  0.1816
  903YOPE   C1B13671   3.733  15.066   6.749  0.1577 -0.0534  0.2400
  903YOPE   C2B13672   3.916  15.170   7.196  0.2930  0.3479 -0.4158
  903YOPE   D3B13673   4.114  14.905   7.548 -0.0050 -0.3454  0.0231
  903YOPE   C4B13674   4.113  14.564   7.806 -0.0114  0.2137 -0.5406
  904YOPE   NH313675   1.629  14.926   6.096 -0.2356 -0.1832  0.1896
  904YOPE   PO413676   1.246  15.234   6.023  0.0212 -0.0074  0.0310
  904YOPE   GL113677   1.134  15.062   6.354  0.1153 -0.2799 -0.0899
  904YOPE   GL213678   1.246  14.757   6.441  0.2161  0.3990  0.0520
  904YOPE   C1A13679   0.810  15.299   6.595  0.2938  0.1699  0.0155
  904YOPE   D2A13680   0.672  15.346   6.982 -0.0465  0.2050  0.4607
  904YOPE   C3A13681   0.861  15.630   7.386 -0.0543 -0.1619 -0.2199
  904YOPE   C4A13682   1.199  15.617   7.727  0.0490  0.1736  0.2083
  904YOPE   C1B13683   1.380  14.929   6.899 -0.1914  0.1518 -0.0930
  904YOPE   C2B13684   1.482  14.867   7.295 -0.1546  0.0138 -0.0398
  904YOPE   D3B13685   1.712  15.068   7.476  0.1113  0.0004 -0.0549
  904YOPE   C4B13686   2.010  15.261   7.637  0.0952  0.1580  0.2494
  905YOPE   NH313687   2.058  13.129   6.137 -0.1061 -0.0451  0.0749
  905YOPE   PO413688   1.714  13.359   6.025  0.0832 -0.2134 -0.2571
  905YOPE   GL113689   1.874  13.551   6.385 -0.1407 -0.0514 -0.1153
  905YOPE   GL213690   1.990  13.209   6.617  0.0017  0.1290 -0.0344
  905YOPE   C1A13691   1.978  13.713   6.821  0.0730 -0.0838  0.0514
  905YOPE   D2A13692   2.171  13.857   7.091 -0.1043 -0.1115 -0.1135
  905YOPE   C3A13693   2.073  13.708   7.589  0.0181  0.0039 -0.1136
  905YOPE   C4A13694   1.687  13.559   7.845 -0.2493  0.0080 -0.0276
  905YOPE   C1B13695   2.017  13.251   7.107 -0.1902  0.0795 -0.1950
  905YOPE   C2B13696   2.136  13.142   7.464  0.0996 -0.2515 -0.5344
  905YOPE   D3B13697   2.085  13.275   7.914  0.1342  0.2714  0.0695
  905YOPE   C4B13698   1.918  13.146   8.293 -0.0035  0.0605 -0.0813
  906YOPE   NH313699  11.459  10.701   5.671  0.0218 -0.2095  0.1918
  906YOPE   PO413700  11.145  11.012   5.736  0.0595  0.1310 -0.2333
  906YOPE   GL113701  11.074  10.943   6.200 -0.2096 -0.1093  0.0762
  906YOPE   GL213702  11.021  11.255   6.221 -0.0688 -0.0869  0.2777
  906YOPE   C1A13703  11.290  10.995   6.663  0.3552 -0.1678  0.0210
  906YOPE   D2A13704  11.166  11.285   6.978  0.0520  0.1377 -0.1073
  906YOPE   C3A13705  10.967  11.508   6.780  0.2499 -0.0042  0.3091
  906YOPE   C4A13706  10.664  11.888   6.669 -0.1274 -0.1895 -0.0853
  906YOPE   C1B13707  10.749  11.134   6.527  0.3363  0.1825  0.1403
  906YOPE   C2B13708  10.655  11.092   6.950 -0.0008  0.1693  0.1827
  906YOPE   D3B13709  10.715  11.245   7.322 -0.2502  0.0563  0.1595
  906YOPE   C4B13710  10.680  11.389   7.782  0.2925  0.2081  0.4118
  907YOPE   NH313711  17.470   5.051   5.214 -0.0674 -0.0357  0.2781
  907YOPE   PO413712  17.420   5.222   5.600 -0.3065 -0.1912  0.2269
  907YOPE   GL113713  17.331   5.258   6.002 -0.0356  0.1231  0.0281
  907YOPE   GL213714  16.962   5.158   6.114 -0.1856 -0.0487  0.1944
  907YOPE   C1A13715  17.245   5.441   6.391 -0.1674 -0.0318  0.0981
  907YOPE   D2A13716  17.321   5.719   6.762 -0.0244  0.0153  0.3122
  907YOPE   C3A13717  17.374   5.655   7.222 -0.0638  0.1497 -0.3530
  907YOPE   C4A13718  17.468   5.660   7.724  0.1759 -0.1299 -0.2892
  907YOPE   C1B13719  17.088   4.940   6.434 -0.2957  0.0566 -0.0975
  907YOPE   C2B13720  16.904   4.826   6.871  0.0591 -0.0934  0.0592
  907YOPE   D3B13721  16.883   4.834   7.280  0.2812  0.0942  0.0604
  907YOPE   C4B13722  16.719   4.595   7.622 -0.0530 -0.0181  0.2242
  908YOPE   NH313723  17.841  10.930   5.938  0.0201  0.0169 -0.0053
  908YOPE   PO413724  17.456  11.195   5.984 -0.1859  0.0956  0.5960
  908YOPE   GL113725  17.487  11.025   6.448  0.1035 -0.1983 -0.2063
  908YOPE   GL213726  17.661  10.721   6.394 -0.1398 -0.0878 -0.1297
  908YOPE   C1A13727  17.514  11.045   6.832  0.3021  0.0067 -0.0536
  908YOPE   D2A13728  17.354  10.892   7.211 -0.0156 -0.0593  0.1072
  908YOPE   C3A13729  17.209  11.092   7.603 -0.0859 -0.1148  0.2946
  908YOPE   C4A13730  17.311  11.199   8.040  0.0300 -0.4692  0.0655
  908YOPE   C1B13731  17.800  10.654   6.764  0.3085 -0.0079 -0.4047
  908YOPE   C2B13732  17.813  10.675   7.191 -0.2013 -0.2728  0.1121
  908YOPE   D3B13733  17.955  10.994   7.480 -0.0941  0.0716 -0.1424
  908YOPE   C4B13734  17.879  11.264   7.817 -0.1869 -0.1625 -0.1057
  909YOPE   NH313735  12.084  14.906   6.178  0.2682  0.0788 -0.1865
  909YOPE   PO413736  11.676  14.881   5.942 -0.1689 -0.2983 -0.4242
  909YOPE   GL113737  11.590  14.987   6.359  0.2222 -0.0780 -0.0207
  909YOPE   GL213738  11.305  15.206   6.327 -0.1762  0.1679  0.1032
  909YOPE   C1A13739  11.466  14.933   6.728  0.0736  0.1869 -0.0281
  909YOPE   D2A13740  11.446  14.898   7.157 -0.2208 -0.0484  0.0407
  909YOPE   C3A13741  11.230  14.861   7.612  0.1571  0.1007  0.1882
  909YOPE   C4A13742  11.274  14.838   8.053  0.2841  0.0996 -0.0352
  909YOPE   C1B13743  11.183  15.397   6.748 -0.2374  0.2783  0.0373
  909YOPE   C2B13744  11.104  15.360   7.189 -0.0936 -0.0413  0.2381
  909YOPE   D3B13745  10.859  15.372   7.539  0.0679  0.1067  0.2897
  909YOPE   C4B13746  11.075  15.288   7.968  0.0310 -0.1482 -0.0422
  910YOPE   NH313747   2.044   4.860   5.886 -0.3146 -0.1474 -0.1177
  910YOPE   PO413748   1.663   5.070   5.888 -0.1284  0.3274  0.1932
  910YOPE   GL113749   1.481   5.155   6.215 -0.1928 -0.0479  0.1108
  910YOPE   GL213750   1.405   5.519   6.230 -0.0760 -0.1017 -0.3447
  910YOPE   C1A13751   1.258   5.165   6.579  0.0657 -0.2568  0.1457
  910YOPE   D2A13752   1.033   5.215   7.067  0.1650  0.1083 -0.1853
  910YOPE   C3A13753   1.078   5.337   7.529  0.1231  0.2652 -0.1856
  910YOPE   C4A13754   1.468   5.326   7.722 -0.0274 -0.2110 -0.2465
  910YOPE   C1B13755   1.342   5.659   6.558  0.3290  0.1997  0.3144
  910YOPE   C2B13756   1.360   5.576   6.888  0.2333  0.0197 -0.0947
  910YOPE   D3B13757   1.477   5.519   7.227 -0.0883  0.4788  0.0042
  910YOPE   C4B13758   1.823   5.621   7.443 -0.1366  0.0541 -0.2395
  911YOPE   NH313759   5.435   4.519   5.833  0.1993  0.2243 -0.1078
  911YOPE   PO413760   5.019   4.454   5.614  0.1907  0.0870  0.0409
  911YOPE   GL113761   4.899   4.535   5.981  0.1034 -0.1011 -0.3821
  911YOPE   GL213762   4.507   4.578   6.172  0.0582  0.1894 -0.1588
  911YOPE   C1A13763   5.021   4.270   6.328 -0.1500  0.1794 -0.0712
  911YOPE   D2A13764   5.259   3.993   6.539 -0.0219 -0.0163 -0.0948
  911YOPE   C3A13765   5.343   3.842   6.963  0.0956  0.2167 -0.1477
  911YOPE   C4A13766   5.172   3.720   7.330  0.0608  0.2013 -0.0573
  911YOPE   C1B13767   4.555   4.337   6.536  0.0365  0.2114 -0.1345
  911YOPE   C2B13768   4.636   4.203   6.933 -0.4578  0.0687 -0.0281
  911YOPE   D3B13769   4.733   3.947   7.296  0.1210  0.0053 -0.0295
  911YOPE   C4B13770   4.803   3.922   7.699  0.3285 -0.0643 -0.3471
  912YOPE   NH313771   8.478   1.043   5.821  0.0108  0.0941  0.0877
  912YOPE   PO413772   8.565   1.362   5.534  0.2462 -0.2171 -0.0843
  912YOPE   GL113773   8.295   1.506   5.969 -0.1110 -0.0701 -0.4477
  912YOPE   GL213774   8.036   1.399   6.012 -0.2806 -0.1685  0.1997
  912YOPE   C1A13775   8.560   1.778   6.236  0.2697  0.1428  0.1662
  912YOPE   D2A13776   8.819   1.946   6.448 -0.1625  0.2113  0.0555
  912YOPE   C3A13777   8.716   1.923   6.833 -0.1770 -0.3522 -0.3802
  912YOPE   C4A13778   8.557   2.035   7.236 -0.0951  0.0069 -0.1214
  912YOPE   C1B13779   8.269   1.339   6.441  0.1860  0.1040 -0.1250
  912YOPE   C2B13780   8.625   1.427   6.567 -0.3408  0.3027  0.2418
  912YOPE   D3B13781   9.018   1.378   6.477  0.0431 -0.0097 -0.1258
  912YOPE   C4B13782   9.484   1.429   6.449  0.1888  0.2421 -0.2620
  913YOPE   NH313783  14.780  12.290   5.752 -0.1433  0.0819 -0.0399
  913YOPE   PO413784  15.172  12.468   5.714  0.0516  0.0719  0.0646
  913YOPE   GL113785  14.979  12.585   6.071  0.0099  0.0017  0.1554
  913YOPE   GL213786  14.931  12.828   6.154 -0.2439 -0.1187  0.0870
  913YOPE   C1A13787  14.703  12.487   6.442 -0.0975 -0.3472 -0.0192
  913YOPE   D2A13788  14.728  12.616   6.923 -0.0853 -0.0347 -0.0943
  913YOPE   C3A13789  14.923  12.758   7.309  0.1650 -0.0938  0.0398
  913YOPE   C4A13790  14.862  12.730   7.675  0.2064 -0.1444  0.0107
  913YOPE   C1B13791  14.906  12.907   6.540  0.0175 -0.1264 -0.0062
  913YOPE   C2B13792  15.076  13.066   6.958 -0.2794 -0.1549  0.0052
  913YOPE   D3B13793  14.843  13.334   7.259 -0.1782 -0.3036 -0.0312
  913YOPE   C4B13794  14.717  13.595   7.641 -0.1051 -0.2130 -0.1507
  914YOPE   NH313795  16.318   9.633   5.498  0.0241 -0.2608  0.1610
  914YOPE   PO413796  16.024   9.292   5.257 -0.2257 -0.0509  0.0669
  914YOPE   GL113797  15.824   8.993   5.506 -0.2685  0.2948  0.1045
  914YOPE   GL213798  15.437   8.762   5.434  0.0364  0.1899  0.2065
  914YOPE   C1A13799  15.758   8.955   6.018  0.0937  0.0169  0.0641
  914YOPE   D2A13800  15.880   8.925   6.473  0.1468  0.1525 -0.0481
  914YOPE   C3A13801  15.620   8.740   6.839 -0.1643  0.4855  0.0336
  914YOPE   C4A13802  15.202   8.528   6.889  0.3254 -0.1740 -0.1607
  914YOPE   C1B13803  15.270   8.734   5.823  0.1984 -0.0295 -0.1610
  914YOPE   C2B13804  15.351   8.813   6.312 -0.1622 -0.1313  0.2718
  914YOPE   D3B13805  15.455   9.117   6.567 -0.2645 -0.0690  0.0829
  914YOPE   C4B13806  15.307   9.134   6.957 -0.0329 -0.0022 -0.1564
  915YOPE   NH313807  12.004   0.126   5.868 -0.2876  0.1998  0.0297
  915YOPE   PO413808  11.863  -0.317   5.751  0.4419  0.0735  0.2066
  915YOPE   GL113809  11.964  -0.440   6.101  0.1066 -0.1499  0.0295
  915YOPE   GL213810  12.210  -0.600   6.055  0.2803  0.0711  0.2904
  915YOPE   C1A13811  11.747  -0.650   6.394 -0.3553 -0.2106  0.2835
  915YOPE   D2A13812  11.742  -0.245   6.622  0.0154 -0.0750  0.0680
  915YOPE   C3A13813  11.666  -0.259   7.081 -0.0374  0.1083 -0.0806
  915YOPE   C4A13814  11.893  -0.569   7.418 -0.1246 -0.1764  0.1284
  915YOPE   C1B13815  12.260  -0.492   6.504 -0.0172  0.2982  0.3066
  915YOPE   C2B13816  12.172  -0.487   6.972  0.3141 -0.0830  0.0221
  915YOPE   D3B13817  12.346  -0.368   7.402  0.2116 -0.0941  0.0846
  915YOPE   C4B13818  12.783  -0.421   7.491 -0.0958  0.0603  0.0424
  916YOPE   NH313819   5.203   0.439   6.067  0.1973 -0.0382 -0.2110
  916YOPE   PO413820   5.265   0.919   6.052  0.1105 -0.1335  0.0310
  916YOPE   GL113821   5.130   0.811   6.438  0.1850 -0.1383 -0.2534
  916YOPE   GL213822   4.863   0.717   6.407 -0.0748  0.1625 -0.2717
  916YOPE   C1A13823   4.784   0.909   6.849  0.2396 -0.3085 -0.1846
  916YOPE   D2A13824   4.607   1.028   7.227 -0.1631  0.1922 -0.0205
  916YOPE   C3A13825   4.594   0.710   7.564 -0.0532 -0.1008  0.1296
  916YOPE   C4A13826   4.714   0.268   7.515  0.0492  0.1579 -0.0096
  916YOPE   C1B13827   4.506   0.487   6.549 -0.3660 -0.0431  0.1475
  916YOPE   C2B13828   4.439   0.469   7.028 -0.3242  0.0302  0.3124
  916YOPE   D3B13829   4.278   0.387   7.468 -0.5136  0.1564  0.1080
  916YOPE   C4B13830   4.261  -0.048   7.681 -0.1636  0.1075 -0.0080
  917YOPE   NH313831   4.381   9.975   6.063  0.0796 -0.1167 -0.0180
  917YOPE   PO413832   4.702  10.244   5.891 -0.0131 -0.2071  0.4659
  917YOPE   GL113833   4.792  10.150   6.359  0.2448 -0.0506 -0.1559
  917YOPE   GL213834   4.986   9.907   6.439 -0.1389 -0.0344 -0.2105
  917YOPE   C1A13835   4.533  10.243   6.677 -0.0870 -0.0561  0.1340
  917YOPE   D2A13836   4.550  10.332   7.214 -0.1472  0.1314 -0.0120
  917YOPE   C3A13837   4.376  10.304   7.611  0.3099  0.0095  0.1646
  917YOPE   C4A13838   4.182  10.463   7.920 -0.0901 -0.2326  0.0953
  917YOPE   C1B13839   4.933   9.851   6.833 -0.0265 -0.0126  0.1116
  917YOPE   C2B13840   4.942  10.001   7.270  0.1468 -0.1086 -0.0102
  917YOPE   D3B13841   4.806  10.092   7.715 -0.0719 -0.0814  0.1296
  917YOPE   C4B13842   4.584  10.232   8.164 -0.1364 -0.0685 -0.0215
  918YOPE   NH313843   4.798  16.545   5.824  0.0419  0.4746  0.2491
  918YOPE   PO413844   5.120  16.672   5.789 -0.2007  0.0607  0.0179
  918YOPE   GL113845   5.123  16.780   6.196  0.0782  0.1070  0.0287
  918YOPE   GL213846   4.914  17.018   6.298  0.4224 -0.1513  0.0366
  918YOPE   C1A13847   5.168  16.713   6.610 -0.0124 -0.1801  0.0049
  918YOPE   D2A13848   5.110  16.586   7.009  0.0816 -0.0236 -0.2029
  918YOPE   C3A13849   4.977  16.826   7.377  0.0162 -0.1702 -0.0145
  918YOPE   C4A13850   4.875  16.966   7.816 -0.1993 -0.1487  0.1415
  918YOPE   C1B13851   4.755  17.017   6.638 -0.0726  0.2517 -0.2718
  918YOPE   C2B13852   4.687  16.998   7.048 -0.1344 -0.2355  0.1028
  918YOPE   D3B13853   4.783  17.317   7.437 -0.2553 -0.2226 -0.1030
  918YOPE   C4B13854   4.910  17.588   7.854 -0.0455  0.3972  0.1674
  919YOPE   NH313855  11.807  16.452   6.092  0.0497 -0.0823 -0.0468
  919YOPE   PO413856  11.450  16.637   5.843 -0.3055 -0.0111 -0.1127
  919YOPE   GL113857  11.143  16.589   6.121 -0.3860  0.2980  0.0882
  919YOPE   GL213858  11.409  16.610   6.403  0.2323  0.1679 -0.2537
  919YOPE   C1A13859  11.005  16.289   6.540 -0.0849  0.3626  0.2384
  919YOPE   D2A13860  10.855  16.109   6.950 -0.2849  0.0108  0.3856
  919YOPE   C3A13861  10.772  16.250   7.352 -0.0092 -0.1555 -0.0909
  919YOPE   C4A13862  10.657  16.297   7.725 -0.2289 -0.0806  0.0121
  919YOPE   C1B13863  11.513  16.897   6.792  0.2247  0.0293  0.1774
  919YOPE   C2B13864  11.506  16.893   7.189  0.0458 -0.2105  0.1627
  919YOPE   D3B13865  11.550  16.759   7.644  0.2031  0.0913 -0.0294
  919YOPE   C4B13866  11.749  16.871   8.024  0.0250 -0.0888  0.1212
  920YOPE   NH313867   7.452   8.743   6.010  0.1321  0.0374 -0.1132
  920YOPE   PO413868   7.613   9.173   5.972 -0.0870  0.0515  0.0598
  920YOPE   GL113869   7.747   9.147   6.402  0.1263 -0.0297  0.0230
  920YOPE   GL213870   7.441   9.104   6.465  0.5350 -0.1513 -0.2534
  920YOPE   C1A13871   7.738   8.987   6.873  0.1996  0.0652  0.3339
  920YOPE   D2A13872   7.792   8.863   7.307 -0.0735  0.0147 -0.0537
  920YOPE   C3A13873   8.071   8.913   7.522 -0.0010  0.1452  0.0730
  920YOPE   C4A13874   8.004   8.690   7.939 -0.0883 -0.3013 -0.3217
  920YOPE   C1B13875   7.252   9.168   6.836 -0.0616 -0.0195 -0.0082
  920YOPE   C2B13876   7.379   9.170   7.339  0.1749 -0.0571 -0.1096
  920YOPE   D3B13877   7.341   9.173   7.704 -0.0505  0.0139 -0.0087
  920YOPE   C4B13878   7.478   9.193   8.079  0.0732 -0.2491  0.2860
  921YOPE   NH313879  11.673  17.001   6.179 -0.1103 -0.0732  0.1394
  921YOPE   PO413880  12.100  16.845   5.973  0.2793 -0.3291 -0.0886
  921YOPE   GL113881  12.612  17.064   6.108  0.3815  0.0852 -0.2144
  921YOPE   GL213882  12.643  17.445   6.264 -0.3803 -0.2935 -0.1551
  921YOPE   C1A13883  12.718  17.083   6.618 -0.2307  0.5763  0.1529
  921YOPE   D2A13884  12.800  17.163   7.041  0.2022 -0.0278  0.2431
  921YOPE   C3A13885  12.965  17.458   7.226 -0.0709  0.1314 -0.1064
  921YOPE   C4A13886  13.259  17.783   7.243  0.1523  0.1672 -0.2000
  921YOPE   C1B13887  12.548  17.532   6.705 -0.1469 -0.0796  0.1511
  921YOPE   C2B13888  12.540  17.615   7.119  0.1419  0.1215 -0.1937
  921YOPE   D3B13889  12.413  17.572   7.591  0.1025  0.5662  0.1559
  921YOPE   C4B13890  12.464  17.795   7.986  0.0319 -0.0377 -0.4418
  922YOPE   NH313891  13.378   8.792   5.415  0.1436  0.0159 -0.0139
  922YOPE   PO413892  13.081   8.578   5.649  0.1237 -0.0633 -0.0443
  922YOPE   GL113893  13.067   8.556   5.990  0.2507  0.2091 -0.0029
  922YOPE   GL213894  12.712   8.573   6.090  0.1068  0.1609 -0.0817
  922YOPE   C1A13895  13.008   8.605   6.448 -0.1030  0.3193  0.0181
  922YOPE   D2A13896  12.803   8.696   6.749  0.2435 -0.0865 -0.3254
  922YOPE   C3A13897  12.913   8.678   7.182  0.2084 -0.2069  0.0695
  922YOPE   C4A13898  12.877   8.449   7.587  0.3305  0.3056  0.2712
  922YOPE   C1B13899  12.515   8.907   6.324 -0.2395 -0.0469 -0.0964
  922YOPE   C2B13900  12.319   8.894   6.655 -0.0713 -0.0709 -0.2140
  922YOPE   D3B13901  12.321   8.660   7.037 -0.0593 -0.1322  0.0146
  922YOPE   C4B13902  12.069   8.631   7.468  0.0829 -0.0815 -0.0469
  923YOPE   NH313903   1.150   5.314   5.883 -0.0878  0.1181 -0.0696
  923YOPE   PO413904   0.818   5.537   5.779 -0.0534 -0.2567 -0.1411
  923YOPE   GL113905   0.916   5.571   6.266 -0.1829 -0.0083 -0.0289
  923YOPE   GL213906   0.961   5.825   6.280  0.0794 -0.0235 -0.2163
  923YOPE   C1A13907   0.849   5.597   6.741  0.1556  0.2937  0.0714
  923YOPE   D2A13908   0.851   5.631   7.127 -0.3495  0.1074  0.0484
  923YOPE   C3A13909   0.625   5.320   7.316 -0.1054  0.2025  0.1108
  923YOPE   C4A13910   0.268   5.049   7.349 -0.0164  0.4169 -0.0236
  923YOPE   C1B13911   0.997   6.080   6.664  0.0212 -0.3300  0.0499
  923YOPE   C2B13912   0.934   6.213   7.009  0.0097  0.2289 -0.1682
  923YOPE   D3B13913   1.019   6.208   7.507 -0.1307 -0.1776  0.0375
  923YOPE   C4B13914   0.958   6.608   7.688  0.0480 -0.0467  0.0707
  924YOPE   NH313915   2.836  15.458   6.011 -0.0846 -0.2169 -0.0583
  924YOPE   PO413916   2.431  15.556   6.031 -0.1199  0.0832 -0.0665
  924YOPE   GL113917   2.144  15.539   6.394  0.1196 -0.0514  0.0783
  924YOPE   GL213918   1.942  15.791   6.417 -0.3481 -0.0009  0.1165
  924YOPE   C1A13919   2.162  15.563   6.805 -0.0290  0.2648 -0.1099
  924YOPE   D2A13920   2.116  15.854   7.081  0.1135 -0.1719 -0.4528
  924YOPE   C3A13921   2.128  15.811   7.454  0.3181  0.0582 -0.1184
  924YOPE   C4A13922   2.209  15.924   7.887  0.1176 -0.0884 -0.1435
  924YOPE   C1B13923   2.204  16.106   6.640  0.0137 -0.0227 -0.0218
  924YOPE   C2B13924   2.255  16.312   6.967  0.2882  0.3388 -0.1290
  924YOPE   D3B13925   2.307  16.344   7.417  0.3635  0.0672  0.0342
  924YOPE   C4B13926   2.275  16.620   7.739  0.0944 -0.1036 -0.2568
  925YOPE   NH313927   0.166   8.116   5.982 -0.0746 -0.3586 -0.1077
  925YOPE   PO413928  -0.156   8.403   5.639 -0.1568  0.2945 -0.1231
  925YOPE   GL113929  -0.171   8.439   6.033  0.1579  0.0446 -0.0381
  925YOPE   GL213930  -0.436   8.461   6.089 -0.0944 -0.2863 -0.0253
  925YOPE   C1A13931  -0.283   8.198   6.476 -0.0721 -0.2256 -0.2220
  925YOPE   D2A13932  -0.290   8.206   6.851  0.1672 -0.0964  0.2277
  925YOPE   C3A13933  -0.393   7.998   7.178 -0.0855 -0.1389  0.0055
  925YOPE   C4A13934  -0.358   8.025   7.646  0.1370  0.1975  0.2104
  925YOPE   C1B13935  -0.688   8.419   6.497 -0.0835 -0.0253  0.1161
  925YOPE   C2B13936  -0.744   8.468   6.907  0.1451 -0.0708  0.0429
  925YOPE   D3B13937  -0.692   8.492   7.240 -0.0518  0.1962  0.0303
  925YOPE   C4B13938  -0.809   8.250   7.635 -0.0765 -0.0161  0.1331
  926YOPE   NH313939   5.555   7.207   6.225  0.0093  0.2151 -0.1205
  926YOPE   PO413940   5.912   7.338   6.158  0.2144 -0.1531  0.1523
  926YOPE   GL113941   5.802   7.440   6.631 -0.1877  0.1338  0.1577
  926YOPE   GL213942   5.977   7.642   6.747 -0.0865  0.2295 -0.0987
  926YOPE   C1A13943   5.594   7.525   7.009 -0.1521  0.0678  0.0093
  926YOPE   D2A13944   5.283   7.464   7.339  0.0474 -0.0033  0.0633
  926YOPE   C3A13945   5.203   7.806   7.628  0.2001  0.1291 -0.0045
  926YOPE   C4A13946   5.167   7.848   8.127 -0.1571  0.0851  0.3241
  926YOPE   C1B13947   6.188   7.546   7.064 -0.1037 -0.1194  0.0518
  926YOPE   C2B13948   6.448   7.625   7.445 -0.1667 -0.2758  0.2651
  926YOPE   D3B13949   6.488   7.943   7.862  0.0410 -0.1292  0.1259
  926YOPE   C4B13950   6.246   8.320   7.880 -0.0202  0.1275 -0.4136
  927YOPE   NH313951  10.226   0.584   5.670  0.2002  0.0395  0.1175
  927YOPE   PO413952  10.665   0.573   5.569 -0.0206  0.0666 -0.5478
  927YOPE   GL113953  10.627   0.778   5.856 -0.1030  0.1533  0.2999
  927YOPE   GL213954  10.860   0.521   6.084  0.1279  0.0289 -0.2177
  927YOPE   C1A13955  10.703   0.900   6.321 -0.0861  0.1275 -0.1735
  927YOPE   D2A13956  10.514   1.109   6.655 -0.5926 -0.0283 -0.2059
  927YOPE   C3A13957  10.255   1.064   6.914 -0.3972  0.1154  0.0812
  927YOPE   C4A13958  10.125   1.118   7.291  0.1342 -0.0683 -0.1016
  927YOPE   C1B13959  11.097   0.666   6.452 -0.0121 -0.1602  0.0660
  927YOPE   C2B13960  11.219   0.643   6.881  0.1160  0.0848  0.1346
  927YOPE   D3B13961  11.185   0.738   7.349 -0.1314 -0.0764  0.0358
  927YOPE   C4B13962  11.070   0.948   7.740  0.0690  0.0826  0.0203
  928YOPE   NH313963  16.505  15.240   6.041  0.1761  0.1935 -0.0210
  928YOPE   PO413964  16.536  15.662   5.824  0.2446 -0.0618 -0.0266
  928YOPE   GL113965  16.346  15.640   6.322 -0.0308  0.0995 -0.1482
  928YOPE   GL213966  16.189  15.372   6.396 -0.2281 -0.4129 -0.1502
  928YOPE   C1A13967  16.424  15.610   6.725  0.0915  0.0465 -0.1734
  928YOPE   D2A13968  16.400  15.432   7.022  0.0387  0.0883  0.0492
  928YOPE   C3A13969  16.560  15.672   7.357 -0.1133  0.0185 -0.4473
  928YOPE   C4A13970  16.778  15.588   7.791  0.1125  0.1923  0.1867
  928YOPE   C1B13971  16.014  15.174   6.741 -0.0377  0.4963  0.0229
  928YOPE   C2B13972  16.199  14.951   7.097 -0.0313  0.1990 -0.1033
  928YOPE   D3B13973  16.026  14.724   7.486  0.0315 -0.1495 -0.0701
  928YOPE   C4B13974  16.071  14.260   7.649 -0.1586  0.1062  0.2218
  929YOPE   NH313975  16.086  17.385   6.028  0.3579 -0.0127  0.2157
  929YOPE   PO413976  16.504  17.150   6.001 -0.1072  0.1775  0.0146
  929YOPE   GL113977  16.478  16.986   6.410 -0.2586 -0.0591 -0.0319
  929YOPE   GL213978  16.704  17.075   6.673 -0.1727  0.1322  0.1336
  929YOPE   C1A13979  16.254  17.335   6.685 -0.2364  0.1676  0.0096
  929YOPE   D2A13980  16.038  17.478   7.041  0.3037 -0.2238  0.0209
  929YOPE   C3A13981  16.235  17.677   7.384 -0.1186 -0.2303 -0.1246
  929YOPE   C4A13982  16.414  17.958   7.793  0.0862 -0.1530  0.2701
  929YOPE   C1B13983  16.490  17.081   7.074 -0.4840 -0.0647  0.0167
  929YOPE   C2B13984  16.506  17.243   7.507 -0.1364  0.2047 -0.2186
  929YOPE   D3B13985  16.289  17.424   7.886 -0.1677 -0.1343  0.0010
  929YOPE   C4B13986  16.222  17.599   8.247 -0.0492 -0.1374  0.0970
  930YOPE   NH313987  14.982  12.944   5.697 -0.0178 -0.1794 -0.0961
  930YOPE   PO413988  15.424  13.060   5.801  0.1982 -0.1866 -0.1726
  930YOPE   GL113989  15.443  12.829   6.136 -0.1608  0.1543  0.3119
  930YOPE   GL213990  15.621  12.574   6.066  0.1622  0.1864  0.2496
  930YOPE   C1A13991  15.373  12.776   6.553  0.0876 -0.0616 -0.0174
  930YOPE   D2A13992  15.502  12.767   6.992  0.5725 -0.0830 -0.2219
  930YOPE   C3A13993  15.388  12.804   7.467 -0.2255 -0.0142 -0.3387
  930YOPE   C4A13994  15.194  13.117   7.625  0.1180  0.2945 -0.1296
  930YOPE   C1B13995  15.811  12.389   6.436  0.1078  0.0869  0.1528
  930YOPE   C2B13996  15.844  12.385   6.890  0.0554  0.0312 -0.2543
  930YOPE   D3B13997  15.783  12.426   7.267  0.2049 -0.0170 -0.1925
  930YOPE   C4B13998  15.832  12.595   7.625 -0.0274 -0.0772  0.0004
  931YOPE   NH313999  12.655  13.648   5.841 -0.0449  0.2026  0.4587
  931YOPE   PO414000  12.789  14.072   5.857  0.0134 -0.1727  0.3073
  931YOPE   GL114001  12.931  14.250   6.263  0.1012  0.2780 -0.0077
  931YOPE   GL214002  12.755  14.422   6.506 -0.1242 -0.0333  0.1965
  931YOPE   C1A14003  13.149  14.169   6.605 -0.2559 -0.2157 -0.0790
  931YOPE   D2A14004  12.947  13.909   6.912  0.0890 -0.1163 -0.1972
  931YOPE   C3A14005  13.186  13.717   7.260  0.3182 -0.2611 -0.0123
  931YOPE   C4A14006  13.355  13.566   7.550 -0.0733 -0.2394 -0.1412
  931YOPE   C1B14007  12.855  14.377   6.992 -0.0832 -0.1206 -0.2574
  931YOPE   C2B14008  12.947  14.691   7.307  0.2167  0.0475 -0.2239
  931YOPE   D3B14009  13.069  15.042   7.600  0.3249 -0.0404  0.0559
  931YOPE   C4B14010  13.040  15.483   7.777 -0.0135  0.0514 -0.1347
  932YOPE   NH314011   7.148   9.373   6.138  0.0154 -0.0289  0.0053
  932YOPE   PO414012   6.952   8.951   6.142 -0.1416  0.1584  0.3077
  932YOPE   GL114013   6.803   9.235   6.427  0.1149  0.0953 -0.1226
  932YOPE   GL214014   6.809   9.571   6.413  0.0889  0.1370  0.0076
  932YOPE   C1A14015   6.777   9.293   6.810 -0.3139  0.2422  0.1135
  932YOPE   D2A14016   6.741   9.467   7.166 -0.1153  0.1395  0.0670
  932YOPE   C3A14017   7.015   9.533   7.514 -0.2241 -0.1166  0.0364
  932YOPE   C4A14018   7.269   9.606   7.801  0.0733  0.0421  0.0327
  932YOPE   C1B14019   6.810   9.813   6.812 -0.0709 -0.0937  0.0620
  932YOPE   C2B14020   6.957   9.964   7.315  0.1283  0.0464  0.0980
  932YOPE   D3B14021   7.193  10.138   7.674 -0.0525 -0.2892 -0.1475
  932YOPE   C4B14022   7.422  10.032   8.070  0.1442  0.0967  0.1572
  933YOPE   NH314023  16.054  18.332   5.779 -0.1719 -0.1199 -0.2638
  933YOPE   PO414024  16.005  18.853   5.777  0.1020  0.2265 -0.0485
  933YOPE   GL114025  15.812  18.747   6.087  0.0767 -0.0319  0.1158
  933YOPE   GL214026  15.734  18.493   6.133 -0.1361  0.2266 -0.1397
  933YOPE   C1A14027  15.874  18.768   6.550  0.1231 -0.2161 -0.3105
  933YOPE   D2A14028  15.727  18.907   7.042 -0.3026 -0.0299  0.0740
  933YOPE   C3A14029  15.347  18.814   7.191 -0.0835  0.0883 -0.2457
  933YOPE   C4A14030  15.070  18.640   7.351 -0.2955 -0.2909  0.1154
  933YOPE   C1B14031  15.474  18.412   6.491  0.1270 -0.0174 -0.0593
  933YOPE   C2B14032  15.521  18.229   6.862 -0.0276  0.0256 -0.3601
  933YOPE   D3B14033  15.575  18.252   7.383  0.1131 -0.0849 -0.5825
  933YOPE   C4B14034  15.356  18.435   7.733 -0.1719 -0.1075 -0.0088
  934YOPE   NH314035  10.708   7.327   5.259  0.1060 -0.0908  0.2173
  934YOPE   PO414036  11.137   7.196   5.424 -0.0137  0.0361  0.0016
  934YOPE   GL114037  11.102   7.298   5.888  0.2171 -0.0128 -0.2405
  934YOPE   GL214038  11.112   7.067   6.088 -0.2005  0.0072  0.0151
  934YOPE   C1A14039  11.056   7.533   6.332  0.0247  0.2561 -0.3255
  934YOPE   D2A14040  11.032   7.638   6.735  0.3061  0.0437  0.2022
  934YOPE   C3A14041  11.095   7.319   7.063  0.3470 -0.0155 -0.0400
  934YOPE   C4A14042  11.284   7.080   7.283  0.0574  0.3286  0.1805
  934YOPE   C1B14043  11.180   7.079   6.514 -0.0020  0.0290  0.0091
  934YOPE   C2B14044  11.268   6.814   6.849 -0.1494  0.0323 -0.2481
  934YOPE   D3B14045  11.182   6.493   7.151 -0.2080  0.0959 -0.0596
  934YOPE   C4B14046  11.034   6.112   7.416 -0.0618 -0.2296 -0.0140
  935YOPE   NH314047  13.675   0.780   5.765 -0.1271  0.1057 -0.1755
  935YOPE   PO414048  13.230   0.918   5.647  0.0080  0.1473  0.3241
  935YOPE   GL114049  13.158   0.965   6.077  0.2916  0.0700 -0.2114
  935YOPE   GL214050  13.434   0.934   6.271  0.0647  0.1445  0.2326
  935YOPE   C1A14051  12.954   0.991   6.488 -0.0614 -0.2137 -0.2438
  935YOPE   D2A14052  12.626   1.004   6.781 -0.1470 -0.0317 -0.3614
  935YOPE   C3A14053  12.684   0.991   7.224 -0.0626 -0.0420 -0.1794
  935YOPE   C4A14054  12.823   0.858   7.694  0.2117  0.0197 -0.2390
  935YOPE   C1B14055  13.447   0.964   6.689  0.1277  0.2062 -0.0087
  935YOPE   C2B14056  13.210   1.005   7.058 -0.0286  0.0859 -0.0860
  935YOPE   D3B14057  13.212   0.953   7.462 -0.1753  0.0343  0.1028
  935YOPE   C4B14058  13.369   0.787   7.746  0.1589 -0.1127 -0.1586
  936YOPE   NH314059  10.162   5.674   5.523 -0.1299  0.1595  0.3226
  936YOPE   PO414060  10.543   5.741   5.869 -0.2989 -0.0836  0.0269
  936YOPE   GL114061  10.621   5.526   6.200 -0.1658 -0.0044  0.3063
  936YOPE   GL214062  10.876   5.634   6.464  0.0230  0.1857  0.0546
  936YOPE   C1A14063  10.508   5.281   6.553 -0.4058  0.1536 -0.1039
  936YOPE   D2A14064  10.326   5.066   6.761 -0.0559  0.0574 -0.1216
  936YOPE   C3A14065  10.041   5.238   6.983  0.0751  0.0273  0.1828
  936YOPE   C4A14066  10.033   5.456   7.369  0.0312  0.0203 -0.2282
  936YOPE   C1B14067  10.747   5.730   6.829 -0.2291 -0.1384  0.0393
  936YOPE   C2B14068  10.494   5.478   7.070  0.1684 -0.0949  0.3039
  936YOPE   D3B14069  10.417   5.166   7.349  0.0437 -0.2317 -0.0325
  936YOPE   C4B14070  10.310   5.013   7.770  0.3197 -0.1475 -0.3122
  937YOPE   NH314071   7.539  13.366   5.882 -0.0280  0.0108 -0.0612
  937YOPE   PO414072   7.960  13.104   5.858  0.0104  0.3882  0.1215
  937YOPE   GL114073   8.068  13.459   6.070 -0.2491 -0.0916  0.1692
  937YOPE   GL214074   8.399  13.455   5.998  0.0482  0.0195 -0.5148
  937YOPE   C1A14075   8.086  13.544   6.475 -0.1969 -0.1268  0.1228
  937YOPE   D2A14076   8.211  13.667   6.768 -0.1185 -0.1232 -0.2659
  937YOPE   C3A14077   8.011  13.894   7.041  0.0970 -0.2664  0.2665
  937YOPE   C4A14078   7.925  14.349   7.233 -0.1394 -0.0137 -0.0050
  937YOPE   C1B14079   8.551  13.474   6.441 -0.1536  0.0233  0.0478
  937YOPE   C2B14080   8.738  13.659   6.767  0.0635 -0.0507 -0.2218
  937YOPE   D3B14081   8.502  13.702   7.170 -0.2342 -0.0453  0.1305
  937YOPE   C4B14082   8.389  13.907   7.538 -0.0125 -0.1011 -0.1429
  938YOPE   NH314083   3.204   7.395   5.729  0.3600  0.0696  0.3438
  938YOPE   PO414084   3.557   7.624   5.938 -0.1820 -0.1344 -0.1718
  938YOPE   GL114085   3.811   7.658   6.305 -0.2567  0.0149 -0.0759
  938YOPE   GL214086   3.908   8.024   6.503 -0.0703  0.0411 -0.1537
  938YOPE   C1A14087   3.759   7.536   6.729 -0.2979  0.2234  0.2770
  938YOPE   D2A14088   3.916   7.843   7.040  0.0972 -0.4068  0.0416
  938YOPE   C3A14089   3.592   8.015   7.198  0.0112  0.2622  0.0191
  938YOPE   C4A14090   3.356   8.062   7.596 -0.2301  0.1213 -0.0721
  938YOPE   C1B14091   4.271   8.189   6.730 -0.2702  0.1386  0.2322
  938YOPE   C2B14092   4.430   8.142   7.168 -0.0017 -0.1504 -0.0835
  938YOPE   D3B14093   4.282   7.926   7.441  0.3638 -0.2806  0.1511
  938YOPE   C4B14094   4.264   7.750   7.908 -0.2991 -0.0994 -0.1539
  939YOPE   NH314095   7.073   5.214   5.823 -0.3770 -0.0285 -0.0673
  939YOPE   PO414096   6.853   5.537   5.989  0.1307 -0.1047 -0.1034
  939YOPE   GL114097   7.150   5.644   6.265  0.0786 -0.0097 -0.2871
  939YOPE   GL214098   7.462   5.511   6.291 -0.0828 -0.2198 -0.3087
  939YOPE   C1A14099   7.201   5.722   6.668 -0.0973  0.3500  0.1005
  939YOPE   D2A14100   7.006   5.839   7.017 -0.2194  0.0634 -0.2068
  939YOPE   C3A14101   6.986   5.755   7.562  0.0246 -0.5121  0.0852
  939YOPE   C4A14102   7.021   5.888   7.921  0.0900 -0.0937 -0.3523
  939YOPE   C1B14103   7.737   5.525   6.586  0.1128 -0.3339 -0.0180
  939YOPE   C2B14104   7.774   5.475   7.005 -0.4904  0.0655 -0.1829
  939YOPE   D3B14105   7.814   5.383   7.455  0.1476  0.1998 -0.1619
  939YOPE   C4B14106   7.961   5.198   7.849  0.1044  0.0776 -0.1886
  940YOPE   NH314107   9.493   3.859   5.474 -0.2959  0.0575 -0.4120
  940YOPE   PO414108   8.958   3.815   5.529 -0.1852 -0.0869 -0.0123
  940YOPE   GL114109   9.208   3.630   5.824 -0.0893  0.3086  0.0917
  940YOPE   GL214110   9.049   3.363   6.029  0.0745 -0.0199 -0.0968
  940YOPE   C1A14111   9.377   3.749   6.212 -0.4265 -0.1892 -0.1666
  940YOPE   D2A14112   9.665   3.840   6.605 -0.1811  0.0332  0.2199
  940YOPE   C3A14113   9.553   3.720   6.977 -0.0490  0.0447  0.2688
  940YOPE   C4A14114   9.349   3.501   7.329 -0.1274  0.0262 -0.0847
  940YOPE   C1B14115   9.111   3.404   6.536  0.0324 -0.1617  0.1162
  940YOPE   C2B14116   8.976   3.302   6.852  0.1220  0.2251 -0.0391
  940YOPE   D3B14117   9.112   3.077   7.242  0.0628  0.1240 -0.0031
  940YOPE   C4B14118   8.807   2.851   7.545  0.0685  0.1432  0.0778
  941YOPE   NH314119   1.268   1.028   5.798 -0.0368 -0.0470  0.0527
  941YOPE   PO414120   1.037   0.670   5.689  0.2173 -0.2974 -0.1009
  941YOPE   GL114121   0.952   0.649   6.143  0.2709  0.1357 -0.0715
  941YOPE   GL214122   0.920   0.330   6.311  0.1876 -0.3061 -0.2228
  941YOPE   C1A14123   1.199   0.687   6.645 -0.1705  0.0593  0.0607
  941YOPE   D2A14124   1.033   0.339   6.974 -0.0220  0.0112  0.2183
  941YOPE   C3A14125   0.945   0.388   7.404 -0.1724 -0.2801 -0.3028
  941YOPE   C4A14126   0.725   0.512   7.833  0.1529 -0.0791  0.0736
  941YOPE   C1B14127   0.746   0.490   6.567  0.3955  0.3798  0.2020
  941YOPE   C2B14128   0.424   0.505   6.758 -0.2253 -0.2385 -0.2848
  941YOPE   D3B14129   0.144   0.523   7.118  0.2753  0.0617  0.1242
  941YOPE   C4B14130  -0.201   0.356   7.449  0.0524 -0.1541 -0.3119
  942YOPE   NH314131   1.900  10.270   6.147  0.0234  0.2376  0.2205
  942YOPE   PO414132   2.292  10.226   5.971  0.2553  0.2363 -0.1113
  942YOPE   GL114133   2.248  10.163   6.503 -0.0550 -0.0413 -0.2183
  942YOPE   GL214134   2.324  10.399   6.688  0.2332  0.0906 -0.1632
  942YOPE   C1A14135   2.143   9.959   6.846  0.4339  0.2083 -0.1181
  942YOPE   D2A14136   2.115   9.793   7.248 -0.0190  0.1254 -0.2590
  942YOPE   C3A14137   1.967   9.894   7.610 -0.2584  0.2953  0.0225
  942YOPE   C4A14138   1.662  10.064   7.761 -0.1829  0.2273 -0.0370
  942YOPE   C1B14139   2.178  10.414   7.108  0.0897 -0.1120 -0.0035
  942YOPE   C2B14140   2.022  10.410   7.575  0.2571 -0.0189 -0.1072
  942YOPE   D3B14141   1.910  10.529   7.931 -0.1528 -0.1797 -0.0438
  942YOPE   C4B14142   1.813  10.802   8.320 -0.2528 -0.0390 -0.1854
  943YOPE   NH314143  10.658   7.025   5.709 -0.2500 -0.1196  0.3132
  943YOPE   PO414144  10.284   7.031   5.571 -0.0170 -0.0195 -0.0629
  943YOPE   GL114145  10.063   6.968   5.782 -0.0018  0.1343  0.0084
  943YOPE   GL214146   9.879   6.737   5.810  0.0365 -0.1335  0.1302
  943YOPE   C1A14147  10.143   6.926   6.218  0.1961 -0.4146  0.1755
  943YOPE   D2A14148   9.954   7.055   6.663 -0.2507 -0.0706 -0.0598
  943YOPE   C3A14149   9.986   6.845   7.093  0.1802  0.0821  0.1493
  943YOPE   C4A14150   9.894   7.027   7.501 -0.0487  0.1843  0.2142
  943YOPE   C1B14151   9.733   6.623   6.192  0.3004  0.2376  0.1527
  943YOPE   C2B14152   9.713   6.588   6.683 -0.1230 -0.0053  0.0157
  943YOPE   D3B14153   9.710   6.429   7.145 -0.2498  0.1554  0.0854
  943YOPE   C4B14154   9.698   6.424   7.604  0.1696  0.1549 -0.0225
  944POPC   NC314155   3.712   9.522   5.808 -0.3658 -0.1768  0.1084
  944POPC   PO414156   3.915   9.952   5.786 -0.0142 -0.0567  0.0992
  944POPC   GL114157   3.688  10.067   6.171  0.2994 -0.2111  0.3469
  944POPC   GL214158   3.521  10.410   6.325 -0.2970 -0.0950 -0.0097
  944POPC   C1A14159   3.698   9.955   6.570  0.4493  0.1509  0.1479
  944POPC   D2A14160   3.796   9.777   7.020 -0.2849 -0.0519 -0.1635
  944POPC   C3A14161   3.846  10.086   7.314  0.0133 -0.1213 -0.0588
  944POPC   C4A14162   3.897  10.182   7.655  0.1091  0.3165  0.2553
  944POPC   C1B14163   3.617  10.352   6.827  0.3765  0.0468 -0.1526
  944POPC   C2B14164   3.569  10.454   7.223 -0.0217  0.1084 -0.1095
  944POPC   C3B14165   3.397  10.272   7.573 -0.0800  0.1920 -0.0181
  944POPC   C4B14166   3.191  10.258   8.044  0.2998  0.0228 -0.0564
  945POPC   NC314167   2.350  18.028   5.660  0.3012 -0.0167 -0.0417
  945POPC   PO414168   1.905  17.981   5.730 -0.1084  0.0960  0.1518
  945POPC   GL114169   1.665  18.070   6.134 -0.0902  0.0055 -0.4710
  945POPC   GL214170   1.710  18.404   6.253 -0.0574 -0.2835  0.1207
  945POPC   C1A14171   1.799  18.115   6.675 -0.0104 -0.1329 -0.0452
  945POPC   D2A14172   1.588  17.956   7.010  0.2136 -0.0433  0.0931
  945POPC   C3A14173   1.731  17.725   7.336 -0.0755 -0.1150 -0.0799
  945POPC   C4A14174   1.900  17.563   7.692 -0.2123 -0.1936 -0.1510
  945POPC   C1B14175   1.438  18.473   6.620  0.0793 -0.1649 -0.4704
  945POPC   C2B14176   1.613  18.533   6.992 -0.0364  0.0172  0.0491
  945POPC   C3B14177   1.773  18.723   7.345  0.3118  0.1435  0.1522
  945POPC   C4B14178   1.817  18.596   7.774 -0.1004  0.0693 -0.1253
  946POPC   NC314179   9.748  14.468   5.827  0.2749  0.1447 -0.1074
  946POPC   PO414180   9.421  14.666   6.122  0.2620 -0.0127 -0.0829
  946POPC   GL114181   9.328  14.542   6.540 -0.1950 -0.1449 -0.0341
  946POPC   GL214182   9.435  14.279   6.564 -0.0002  0.2767  0.0571
  946POPC   C1A14183   9.202  14.668   6.897  0.0563  0.1443  0.1752
  946POPC   D2A14184   9.212  14.710   7.306  0.1228 -0.1847 -0.1016
  946POPC   C3A14185   9.528  14.774   7.661 -0.2699  0.2855  0.1678
  946POPC   C4A14186   9.486  14.784   8.117  0.0464 -0.0856  0.2573
  946POPC   C1B14187   9.547  14.270   6.984 -0.0604 -0.1386  0.0187
  946POPC   C2B14188   9.478  14.276   7.436 -0.0229 -0.0409 -0.0209
  946POPC   C3B14189   9.205  14.460   7.828 -0.0236 -0.2202  0.0110
  946POPC   C4B14190   8.764  14.574   7.914  0.1469  0.0548 -0.0448
  947POPC   NC314191   0.231   9.205   5.414  0.0889  0.2030 -0.0238
  947POPC   PO414192   0.110   8.835   5.614 -0.2428  0.1344 -0.0075
  947POPC   GL114193   0.038   8.880   6.079  0.0674 -0.0519 -0.0838
  947POPC   GL214194   0.128   8.694   6.338  0.0523  0.1885 -0.3785
  947POPC   C1A14195  -0.320   8.950   6.331 -0.0871  0.3996  0.0397
  947POPC   D2A14196  -0.300   8.722   6.675 -0.2104  0.0494 -0.2373
  947POPC   C3A14197  -0.410   8.851   7.049 -0.0837 -0.1511 -0.0695
  947POPC   C4A14198  -0.386   8.986   7.415 -0.0517 -0.1546 -0.0877
  947POPC   C1B14199   0.180   8.385   6.695  0.0215  0.1525 -0.2374
  947POPC   C2B14200   0.111   8.092   7.122  0.0109  0.1003 -0.1160
  947POPC   C3B14201   0.109   8.188   7.662  0.1378 -0.0734 -0.1137
  947POPC   C4B14202  -0.076   8.099   8.067 -0.1401  0.0287 -0.2678
  948POPC   NC314203   7.392   2.398   5.423 -0.0229 -0.0849 -0.2325
  948POPC   PO414204   7.247   2.632   5.771 -0.0983  0.1145 -0.0020
  948POPC   GL114205   7.592   2.895   5.960 -0.0020 -0.1511 -0.0465
  948POPC   GL214206   7.638   3.261   5.837  0.0626  0.0139 -0.1778
  948POPC   C1A14207   8.133   2.819   6.161 -0.1655 -0.1158  0.2210
  948POPC   D2A14208   8.384   2.909   6.480  0.0087  0.2088 -0.0171
  948POPC   C3A14209   8.243   2.894   6.838 -0.4718 -0.3090 -0.0093
  948POPC   C4A14210   8.145   2.867   7.254 -0.3963 -0.0527  0.2026
  948POPC   C1B14211   7.804   3.337   6.169 -0.2502  0.2294 -0.2180
  948POPC   C2B14212   7.939   3.270   6.555  0.0875 -0.0423  0.1948
  948POPC   C3B14213   8.062   3.315   7.016  0.0640  0.0977  0.0609
  948POPC   C4B14214   8.076   3.285   7.519 -0.1827  0.1940 -0.1200
  949POPC   NC314215  13.138  10.396   5.520  0.0414 -0.1017  0.2681
  949POPC   PO414216  12.901   9.967   5.443 -0.3864 -0.0233  0.1844
  949POPC   GL114217  12.853  10.104   5.909  0.2569  0.1110  0.0437
  949POPC   GL214218  12.835  10.388   5.954 -0.1903 -0.0934  0.2106
  949POPC   C1A14219  12.583   9.925   6.157  0.4522 -0.0676 -0.0526
  949POPC   D2A14220  12.601   9.769   6.569 -0.0407 -0.0256  0.2065
  949POPC   C3A14221  12.549   9.966   7.000  0.1334  0.2438 -0.1262
  949POPC   C4A14222  12.656  10.080   7.373 -0.0461 -0.1069  0.0254
  949POPC   C1B14223  12.554  10.383   6.317 -0.1863 -0.0029  0.2365
  949POPC   C2B14224  12.442  10.487   6.738  0.1190 -0.3223 -0.3877
  949POPC   C3B14225  12.158  10.383   6.981  0.1666  0.2112 -0.1529
  949POPC   C4B14226  12.245  10.381   7.435  0.3070 -0.0129 -0.0749
  950POPC   NC314227   5.987  15.463   5.894  0.0169 -0.0764  0.1356
  950POPC   PO414228   5.786  15.038   5.795  0.0564  0.0945 -0.0437
  950POPC   GL114229   5.872  14.885   6.145  0.1927 -0.1772  0.4119
  950POPC   GL214230   5.673  14.910   6.439  0.3328 -0.0669 -0.1994
  950POPC   C1A14231   6.152  14.875   6.558  0.0827  0.1001 -0.3495
  950POPC   D2A14232   6.296  14.859   6.983  0.2428 -0.0258 -0.3180
  950POPC   C3A14233   6.301  15.013   7.426  0.2688 -0.2160  0.2367
  950POPC   C4A14234   6.330  15.377   7.672  0.1536 -0.0621 -0.1072
  950POPC   C1B14235   5.770  14.819   6.874  0.1381  0.0032 -0.1229
  950POPC   C2B14236   5.887  14.739   7.312  0.0391 -0.0221 -0.0484
  950POPC   C3B14237   6.041  14.799   7.783 -0.2333  0.1230 -0.0470
  950POPC   C4B14238   5.790  14.891   8.147 -0.0691  0.1834  0.3642
  951POPC   NC314239  16.796   5.892   5.481  0.1813  0.0089 -0.1146
  951POPC   PO414240  16.501   5.497   5.528 -0.0490 -0.0793 -0.0652
  951POPC   GL114241  16.295   5.544   5.892  0.0816 -0.0294 -0.1888
  951POPC   GL214242  16.017   5.633   5.990  0.2868  0.3624 -0.0711
  951POPC   C1A14243  16.317   5.693   6.345  0.0126  0.1133  0.0808
  951POPC   D2A14244  16.382   5.889   6.760 -0.1689 -0.3352 -0.1784
  951POPC   C3A14245  16.376   5.735   7.206 -0.1901  0.0655 -0.2368
  951POPC   C4A14246  16.185   5.501   7.479  0.0880  0.3895 -0.0157
  951POPC   C1B14247  15.864   5.573   6.356  0.2635 -0.1460 -0.1075
  951POPC   C2B14248  16.044   5.465   6.659  0.0867  0.2001  0.0265
  951POPC   C3B14249  16.249   5.352   6.920  0.4285  0.1004 -0.4317
  951POPC   C4B14250  16.617   5.207   7.090 -0.0531 -0.3745 -0.1738
  952POPC   NC314251   5.724   0.658   6.048  0.1040 -0.0112 -0.1760
  952POPC   PO414252   5.820   0.239   5.918  0.2469 -0.0005  0.1236
  952POPC   GL114253   5.557   0.089   6.226  0.0811  0.0282  0.2723
  952POPC   GL214254   5.572   0.382   6.385 -0.0585  0.1152 -0.1630
  952POPC   C1A14255   5.538  -0.061   6.562  0.2430  0.2610  0.1130
  952POPC   D2A14256   5.747   0.233   6.821 -0.0283 -0.1846  0.1924
  952POPC   C3A14257   5.667   0.409   7.188 -0.0342 -0.1693  0.0360
  952POPC   C4A14258   5.595   0.554   7.556 -0.0185 -0.1378 -0.2045
  952POPC   C1B14259   5.501   0.717   6.809 -0.1912  0.3619  0.1059
  952POPC   C2B14260   5.564   0.885   7.153  0.2586 -0.0615  0.2939
  952POPC   C3B14261   5.688   1.251   7.431 -0.1257  0.0097 -0.0449
  952POPC   C4B14262   5.655   1.511   7.734 -0.0325 -0.1765  0.1470
  953POPC   NC314263  15.590   1.866   5.727 -0.0551  0.0091 -0.2382
  953POPC   PO414264  15.168   1.658   5.811 -0.1569  0.1588 -0.1111
  953POPC   GL114265  15.401   1.952   6.160  0.0892  0.1986 -0.1138
  953POPC   GL214266  15.574   2.256   6.060  0.1217 -0.3102 -0.1593
  953POPC   C1A14267  15.378   2.141   6.551  0.0020  0.0782 -0.3276
  953POPC   D2A14268  15.515   2.362   6.830  0.1647  0.2432 -0.0589
  953POPC   C3A14269  15.585   2.064   7.223 -0.2544  0.0273  0.0532
  953POPC   C4A14270  15.883   1.865   7.330  0.1253 -0.0153 -0.1147
  953POPC   C1B14271  15.866   2.451   6.265  0.0424 -0.0799 -0.0257
  953POPC   C2B14272  15.947   2.606   6.659  0.3128 -0.0877  0.2001
  953POPC   C3B14273  16.005   2.812   7.006  0.1305  0.0488 -0.1988
  953POPC   C4B14274  16.030   3.028   7.374 -0.3016 -0.3821 -0.1053
  954POPC   NC314275   0.810   9.552   5.819  0.1430 -0.0925  0.3537
  954POPC   PO414276   1.017   9.127   5.871 -0.0440 -0.1436  0.1827
  954POPC   GL114277   0.760   9.105   6.286  0.3889 -0.0563 -0.0852
  954POPC   GL214278   0.966   9.006   6.461  0.0614 -0.1837  0.0999
  954POPC   C1A14279   0.626   8.725   6.598  0.1103 -0.3759  0.0105
  954POPC   D2A14280   0.519   8.669   6.943 -0.2067  0.2537  0.1321
  954POPC   C3A14281   0.094   8.653   7.086  0.1251 -0.0210 -0.0319
  954POPC   C4A14282  -0.154   8.444   7.346 -0.1834  0.0504  0.1202
  954POPC   C1B14283   0.922   8.999   6.914 -0.0141  0.2317 -0.1155
  954POPC   C2B14284   0.820   8.890   7.294 -0.0462  0.3540  0.1066
  954POPC   C3B14285   0.562   8.582   7.455 -0.1732 -0.1464  0.0275
  954POPC   C4B14286   0.701   8.274   7.705 -0.0671  0.3417 -0.4232
  955POPC   NC314287   2.461   7.448   5.439 -0.0152  0.0180  0.0512
  955POPC   PO414288   2.687   7.591   5.878 -0.2851  0.2683  0.3066
  955POPC   GL114289   2.727   7.397   6.349  0.0850 -0.0853  0.0378
  955POPC   GL214290   2.587   7.081   6.287 -0.0203 -0.2801 -0.1579
  955POPC   C1A14291   2.820   7.364   6.737  0.1748 -0.1274  0.1237
  955POPC   D2A14292   2.640   7.327   7.161 -0.5096  0.3738  0.0892
  955POPC   C3A14293   2.622   7.257   7.616 -0.0040  0.1195 -0.0328
  955POPC   C4A14294   2.526   7.213   7.966  0.0390  0.4160 -0.0367
  955POPC   C1B14295   2.522   6.910   6.753  0.0834  0.2030 -0.2288
  955POPC   C2B14296   2.557   6.857   7.156 -0.3835  0.1371 -0.2140
  955POPC   C3B14297   2.352   6.866   7.564  0.0510 -0.1577  0.0072
  955POPC   C4B14298   1.890   6.736   7.597 -0.1111  0.0794 -0.1090
  956POPC   NC314299  11.552   2.216   5.222 -0.0890  0.0315  0.2043
  956POPC   PO414300  11.630   2.666   5.361  0.0966 -0.0047 -0.3307
  956POPC   GL114301  11.812   2.947   5.762 -0.0658 -0.0949  0.3160
  956POPC   GL214302  12.111   2.656   5.890  0.1952  0.0257 -0.0886
  956POPC   C1A14303  11.976   3.156   6.086 -0.0789 -0.0395 -0.1163
  956POPC   D2A14304  11.810   3.226   6.520 -0.0722 -0.1854  0.3553
  956POPC   C3A14305  11.708   2.969   6.736 -0.1191  0.0019 -0.0588
  956POPC   C4A14306  11.833   2.595   6.932  0.2106 -0.0408 -0.0483
  956POPC   C1B14307  12.385   2.652   6.193  0.0961 -0.2140  0.0357
  956POPC   C2B14308  12.497   2.305   6.559  0.0346  0.0665  0.1346
  956POPC   C3B14309  12.359   2.031   6.856  0.0621  0.1724 -0.0551
  956POPC   C4B14310  12.260   2.176   7.349 -0.1441  0.2172  0.1210
  957POPC   NC314311  16.425  12.149   5.664  0.0645 -0.3497  0.0929
  957POPC   PO414312  16.568  12.135   6.075  0.2226  0.0224  0.0780
  957POPC   GL114313  16.519  12.531   6.207  0.0387 -0.2013  0.2081
  957POPC   GL214314  16.746  12.586   6.339 -0.1981 -0.0358 -0.3621
  957POPC   C1A14315  16.287  12.548   6.510 -0.1360  0.1127  0.1575
  957POPC   D2A14316  16.308  12.611   6.885 -0.1975  0.1006  0.2944
  957POPC   C3A14317  16.275  12.587   7.308 -0.1977  0.0772  0.1476
  957POPC   C4A14318  16.378  12.734   7.711 -0.1646  0.1545  0.2138
  957POPC   C1B14319  16.817  12.554   6.778  0.1102  0.0577  0.0851
  957POPC   C2B14320  16.841  12.731   7.202  0.1950 -0.0965 -0.0608
  957POPC   C3B14321  16.849  13.010   7.535  0.2764  0.3348 -0.0011
  957POPC   C4B14322  16.702  13.084   7.896  0.1887 -0.1014  0.1042
  958POPC   NC314323  14.744   8.566   5.007  0.0710  0.0748  0.4975
  958POPC   PO414324  14.567   8.259   5.271  0.0730 -0.1936  0.1715
  958POPC   GL114325  14.381   7.964   5.493 -0.1161 -0.1301  0.0831
  958POPC   GL214326  14.137   8.017   5.766 -0.2445 -0.2109  0.1470
  958POPC   C1A14327  14.494   7.621   5.783  0.0470 -0.1886 -0.0407
  958POPC   D2A14328  14.383   7.385   6.121 -0.2148 -0.4359  0.1783
  958POPC   C3A14329  14.287   7.382   6.558  0.0707  0.1272 -0.3121
  958POPC   C4A14330  14.165   7.451   7.025  0.2430 -0.0478  0.5310
  958POPC   C1B14331  14.049   7.804   6.066  0.0474 -0.1495 -0.1902
  958POPC   C2B14332  14.195   7.867   6.523 -0.1560  0.1085  0.0989
  958POPC   C3B14333  14.451   7.780   6.824  0.2527  0.0559  0.3054
  958POPC   C4B14334  14.763   7.761   7.109  0.2200  0.2045  0.0472
  959POPC   NC314335  15.513   8.011   4.856 -0.3457  0.0260 -0.0378
  959POPC   PO414336  15.638   7.701   5.129 -0.0217 -0.3085  0.0828
  959POPC   GL114337  15.872   7.536   5.454 -0.0386 -0.2292 -0.3646
  959POPC   GL214338  16.236   7.534   5.436  0.0148  0.0735  0.2921
  959POPC   C1A14339  15.938   7.621   5.839 -0.1050  0.3180  0.1247
  959POPC   D2A14340  15.870   7.417   6.307 -0.1799  0.0054 -0.0843
  959POPC   C3A14341  15.853   7.299   6.727 -0.1643  0.3220  0.2670
  959POPC   C4A14342  15.866   7.238   7.196 -0.1615  0.1426  0.0038
  959POPC   C1B14343  16.409   7.328   5.686 -0.0588  0.0658 -0.0526
  959POPC   C2B14344  16.379   7.223   6.088  0.1919  0.1461  0.0755
  959POPC   C3B14345  16.396   7.237   6.536 -0.1070  0.1702 -0.1732
  959POPC   C4B14346  16.340   7.237   7.006  0.3961 -0.1395 -0.1291
  960POPC   NC314347   8.083   2.199   5.504  0.2049 -0.2641 -0.1656
  960POPC   PO414348   8.107   1.685   5.591  0.2579 -0.0647  0.1337
  960POPC   GL114349   7.997   1.916   5.969 -0.1688 -0.1265  0.3095
  960POPC   GL214350   7.767   2.184   5.891  0.0863  0.0359 -0.1006
  960POPC   C1A14351   8.064   1.961   6.303 -0.3374  0.1556 -0.2932
  960POPC   D2A14352   8.242   1.893   6.655  0.0411 -0.3045 -0.0171
  960POPC   C3A14353   8.063   1.934   7.062 -0.2954  0.1824 -0.1524
  960POPC   C4A14354   8.091   1.995   7.478 -0.1678 -0.1513  0.0336
  960POPC   C1B14355   7.852   2.406   6.179  0.0507  0.0011 -0.1654
  960POPC   C2B14356   7.734   2.706   6.465  0.1154  0.0525 -0.0863
  960POPC   C3B14357   7.491   3.075   6.517  0.0416  0.1878 -0.0782
  960POPC   C4B14358   7.023   3.112   6.664 -0.0350  0.1713 -0.1575
  961POPC   NC314359  13.123   2.692   5.601 -0.0185 -0.1362 -0.0937
  961POPC   PO414360  13.375   3.068   5.527  0.2057 -0.0108  0.1311
  961POPC   GL114361  13.388   3.435   5.771 -0.0156  0.1503  0.1189
  961POPC   GL214362  13.105   3.554   5.834  0.0274  0.0363 -0.3741
  961POPC   C1A14363  13.446   3.862   5.984  0.2105 -0.0381  0.2037
  961POPC   D2A14364  13.432   4.185   6.329  0.0846 -0.2719  0.0994
  961POPC   C3A14365  13.450   4.174   6.812 -0.1226 -0.0780 -0.1942
  961POPC   C4A14366  13.465   4.128   7.264 -0.1709 -0.2647 -0.1240
  961POPC   C1B14367  12.978   3.579   6.174  0.0292 -0.0201  0.1487
  961POPC   C2B14368  13.045   3.397   6.598  0.3487 -0.1462 -0.0941
  961POPC   C3B14369  13.025   3.100   6.929  0.1009 -0.1307  0.0459
  961POPC   C4B14370  12.938   2.888   7.317 -0.1498  0.1404  0.4709
  962POPC   NC314371  18.087  18.068   4.973  0.3451  0.2020 -0.2020
  962POPC   PO414372  18.387  18.089   5.311 -0.0951  0.0863 -0.1964
  962POPC   GL114373  18.491  18.201   5.791 -0.1102 -0.0061  0.1191
  962POPC   GL214374  18.616  17.853   5.915  0.0661  0.4413  0.2720
  962POPC   C1A14375  18.367  18.182   6.175  0.1399 -0.0706 -0.2748
  962POPC   D2A14376  18.124  18.510   6.448  0.0882  0.0828 -0.3019
  962POPC   C3A14377  18.203  18.477   6.877 -0.1171 -0.0679  0.2217
  962POPC   C4A14378  18.424  18.197   7.133 -0.1060  0.2045  0.1107
  962POPC   C1B14379  18.578  17.565   6.229  0.0240 -0.1394  0.1856
  962POPC   C2B14380  18.628  17.463   6.773  0.0590 -0.1926 -0.1467
  962POPC   C3B14381  18.717  17.425   7.226 -0.0443  0.1258  0.2136
  962POPC   C4B14382  18.868  17.038   7.454  0.2726 -0.0683 -0.1009
  963POPC   NC314383  13.360   2.108   5.464  0.0714  0.3118 -0.2520
  963POPC   PO414384  13.068   1.794   5.461 -0.0412  0.3241  0.1431
  963POPC   GL114385  13.157   1.753   5.833  0.0487  0.0367  0.0348
  963POPC   GL214386  13.193   1.442   5.771 -0.1215 -0.0180  0.1238
  963POPC   C1A14387  13.123   1.885   6.273 -0.0647  0.4084 -0.0205
  963POPC   D2A14388  13.252   1.864   6.732 -0.0452 -0.1199 -0.1776
  963POPC   C3A14389  13.709   1.914   7.057 -0.1866 -0.2493 -0.3548
  963POPC   C4A14390  14.093   1.980   7.424 -0.2310  0.2456 -0.2900
  963POPC   C1B14391  13.019   1.398   6.207 -0.0074  0.1314  0.0193
  963POPC   C2B14392  12.917   1.427   6.731  0.1982  0.1813  0.2095
  963POPC   C3B14393  12.943   1.422   7.154  0.4754 -0.0739 -0.2268
  963POPC   C4B14394  12.872   1.414   7.547 -0.1369 -0.1890 -0.0779
  964POPC   NC314395   6.903   4.466   5.912 -0.0972  0.0074 -0.1404
  964POPC   PO414396   7.168   4.059   5.841  0.0353  0.1250  0.1207
  964POPC   GL114397   7.189   4.063   6.269  0.0983  0.0527 -0.1530
  964POPC   GL214398   6.952   4.339   6.389  0.3137  0.0963 -0.1425
  964POPC   C1A14399   7.456   4.136   6.525 -0.1449  0.4519 -0.1660
  964POPC   D2A14400   7.935   4.170   6.652 -0.0493 -0.0610 -0.1405
  964POPC   C3A14401   8.111   4.050   7.078 -0.0422  0.1488  0.0987
  964POPC   C4A14402   7.880   3.752   7.319 -0.0226 -0.0546 -0.4385
  964POPC   C1B14403   6.583   4.069   6.571  0.0144  0.0688 -0.2699
  964POPC   C2B14404   6.524   4.010   6.976  0.2365  0.0447  0.0037
  964POPC   C3B14405   6.554   3.990   7.358 -0.0275 -0.2694 -0.1402
  964POPC   C4B14406   6.919   3.976   7.632  0.2545  0.1890 -0.5181
  965POPC   NC314407  17.569  12.632   5.998 -0.0177 -0.0145  0.1333
  965POPC   PO414408  17.561  13.048   6.044  0.0163  0.1981  0.0069
  965POPC   GL114409  17.406  13.017   6.414  0.3651 -0.0695  0.0811
  965POPC   GL214410  17.184  12.908   6.393  0.1032  0.0480  0.2182
  965POPC   C1A14411  17.556  13.173   6.656 -0.2861 -0.1662  0.1258
  965POPC   D2A14412  17.879  13.325   6.859 -0.1087 -0.0946 -0.2615
  965POPC   C3A14413  17.962  13.283   7.319  0.4628 -0.2914 -0.1039
  965POPC   C4A14414  18.125  13.211   7.704  0.0617  0.0487  0.2611
  965POPC   C1B14415  17.022  13.300   6.515  0.0283  0.0560  0.2302
  965POPC   C2B14416  16.767  13.567   6.779 -0.0149  0.0999 -0.2018
  965POPC   C3B14417  16.566  13.556   7.147  0.1887  0.2276 -0.0712
  965POPC   C4B14418  16.587  13.454   7.585 -0.0834 -0.0968 -0.0220
  966POPC   NC314419  11.469   6.732   5.344 -0.0956 -0.4148 -0.4245
  966POPC   PO414420  10.986   6.675   5.596 -0.1913 -0.0170 -0.1167
  966POPC   GL114421  10.873   6.597   6.016  0.0408  0.0523 -0.1247
  966POPC   GL214422  11.024   6.366   6.108 -0.0190 -0.2021  0.2577
  966POPC   C1A14423  10.834   6.714   6.442  0.2732  0.0786  0.2485
  966POPC   D2A14424  10.699   6.768   6.828  0.1146 -0.0627  0.1592
  966POPC   C3A14425  10.876   6.869   7.254  0.0456  0.0179  0.0825
  966POPC   C4A14426  10.767   6.965   7.808 -0.1724 -0.0795 -0.1680
  966POPC   C1B14427  11.269   6.510   6.420  0.1865 -0.3383  0.1108
  966POPC   C2B14428  11.535   6.348   6.817  0.0689  0.1342 -0.0320
  966POPC   C3B14429  11.653   6.201   7.245  0.2305  0.0310 -0.0269
  966POPC   C4B14430  11.880   5.957   7.681  0.3862 -0.0338  0.0691
  967POPC   NC314431   2.373  14.051   5.994 -0.1470  0.3026  0.1873
  967POPC   PO414432   1.933  14.061   6.141  0.1509  0.2879 -0.2317
  967POPC   GL114433   1.767  14.191   6.498  0.0254  0.1214 -0.2887
  967POPC   GL214434   1.650  14.514   6.484 -0.4671  0.1311 -0.0767
  967POPC   C1A14435   1.624  14.046   6.962  0.1060  0.2336 -0.0673
  967POPC   D2A14436   1.775  14.116   7.406 -0.0858  0.1316  0.1490
  967POPC   C3A14437   2.188  14.191   7.573  0.0982 -0.2855 -0.2701
  967POPC   C4A14438   2.348  14.092   7.955 -0.1792 -0.1005  0.1473
  967POPC   C1B14439   1.841  14.831   6.746  0.0583 -0.3208 -0.1099
  967POPC   C2B14440   2.028  15.046   7.092 -0.0331 -0.1005  0.2848
  967POPC   C3B14441   2.249  15.243   7.181 -0.0219 -0.2405 -0.1822
  967POPC   C4B14442   2.529  15.538   7.399 -0.2416  0.4158 -0.1338
  968POPC   NC314443  12.132   4.809   5.193 -0.1857 -0.0665 -0.0723
  968POPC   PO414444  12.526   4.980   5.078  0.2168  0.3157  0.2844
  968POPC   GL114445  12.593   4.837   5.492  0.3098  0.0894 -0.0529
  968POPC   GL214446  12.330   4.898   5.637  0.1337 -0.0974 -0.0723
  968POPC   C1A14447  12.687   4.737   5.949  0.0773 -0.0194  0.1576
  968POPC   D2A14448  12.785   4.855   6.471  0.1200 -0.0524  0.1031
  968POPC   C3A14449  12.528   4.835   6.860 -0.3372 -0.0519  0.1506
  968POPC   C4A14450  12.567   4.664   7.357 -0.0631  0.2969  0.3890
  968POPC   C1B14451  12.224   4.837   5.971 -0.0339  0.4034 -0.2754
  968POPC   C2B14452  12.265   4.845   6.433  0.0676  0.0327  0.1057
  968POPC   C3B14453  12.033   5.053   6.764 -0.3064  0.1975 -0.2606
  968POPC   C4B14454  11.920   5.279   7.131  0.0146  0.2121 -0.1721
  969POPC   NC314455  18.149   5.829   5.501 -0.1707  0.0763 -0.3553
  969POPC   PO414456  18.343   5.574   5.745 -0.1027 -0.4094  0.1396
  969POPC   GL114457  18.551   5.470   6.105 -0.0032 -0.0316  0.2322
  969POPC   GL214458  18.764   5.680   6.056  0.1729  0.2514  0.0755
  969POPC   C1A14459  18.637   5.352   6.459 -0.0531 -0.4589  0.0393
  969POPC   D2A14460  18.549   5.211   6.871 -0.3785  0.1218  0.0660
  969POPC   C3A14461  18.615   5.629   7.209 -0.0389 -0.0701 -0.1934
  969POPC   C4A14462  18.389   5.749   7.488 -0.1226 -0.1119 -0.0332
  969POPC   C1B14463  18.779   5.826   6.410  0.1176 -0.0495  0.2082
  969POPC   C2B14464  18.810   6.043   6.825  0.0984  0.1333  0.2619
  969POPC   C3B14465  18.866   6.079   7.219  0.0333  0.0356 -0.2107
  969POPC   C4B14466  19.000   5.839   7.537 -0.0241 -0.1152 -0.0131
  970POPC   NC314467   1.452   8.946   6.112  0.3087  0.2018 -0.1053
  970POPC   PO414468   1.718   8.606   6.174  0.0384 -0.0346  0.3498
  970POPC   GL114469   1.720   8.334   6.536 -0.0659  0.2630 -0.0655
  970POPC   GL214470   2.071   8.221   6.406  0.0546 -0.1818 -0.1742
  970POPC   C1A14471   1.789   8.315   6.988 -0.1138 -0.1780  0.0632
  970POPC   D2A14472   1.913   8.289   7.368  0.1617 -0.0972 -0.0798
  970POPC   C3A14473   2.115   8.080   7.593  0.2815  0.0849 -0.0877
  970POPC   C4A14474   2.396   8.133   7.961  0.0095  0.0746 -0.0917
  970POPC   C1B14475   2.224   8.158   6.813  0.0168 -0.1321 -0.1531
  970POPC   C2B14476   2.385   8.256   7.206  0.3893 -0.3306  0.0582
  970POPC   C3B14477   2.439   8.453   7.546 -0.0767 -0.0745  0.0692
  970POPC   C4B14478   2.614   8.555   7.863  0.0788  0.1708 -0.2423
  971POPC   NC314479   2.340   0.699   5.923  0.1050  0.0959  0.0365
  971POPC   PO414480   2.780   0.660   5.879 -0.3560 -0.3522  0.0413
  971POPC   GL114481   2.748   0.580   6.233  0.4528 -0.1269  0.4730
  971POPC   GL214482   2.724   0.765   6.545 -0.3511  0.1034  0.3534
  971POPC   C1A14483   2.725   0.142   6.435 -0.1959  0.0839 -0.2571
  971POPC   D2A14484   2.369  -0.080   6.729  0.1083 -0.3653  0.0256
  971POPC   C3A14485   2.158  -0.363   6.445  0.2919  0.1416  0.0467
  971POPC   C4A14486   2.222  -0.807   6.397 -0.0255  0.1137  0.0179
  971POPC   C1B14487   2.502   0.400   6.810 -0.0277 -0.2108 -0.1939
  971POPC   C2B14488   2.433   0.264   7.243 -0.0738 -0.0777 -0.1239
  971POPC   C3B14489   2.289   0.082   7.619  0.1452  0.1318 -0.0689
  971POPC   C4B14490   2.461  -0.343   8.003 -0.0474  0.0222  0.0240
  972POPC   NC314491   5.291   3.104   5.858 -0.0640 -0.0427  0.1782
  972POPC   PO414492   4.871   2.707   5.934  0.2911 -0.2567  0.0154
  972POPC   GL114493   5.136   2.867   6.254  0.0036  0.0814 -0.1016
  972POPC   GL214494   5.393   2.667   6.259  0.2478 -0.1190  0.4076
  972POPC   C1A14495   5.275   3.056   6.575  0.0639  0.0876 -0.3889
  972POPC   D2A14496   5.467   3.442   6.671  0.0944  0.1952 -0.0409
  972POPC   C3A14497   5.492   3.395   7.145  0.1125 -0.0915 -0.0158
  972POPC   C4A14498   5.795   3.541   7.459 -0.0661 -0.0022 -0.0968
  972POPC   C1B14499   5.583   2.698   6.716 -0.0582  0.2929 -0.3349
  972POPC   C2B14500   5.495   2.891   7.033  0.0137  0.1278 -0.1099
  972POPC   C3B14501   5.677   2.934   7.440  0.2983 -0.0570 -0.1036
  972POPC   C4B14502   5.775   3.067   7.870 -0.0336  0.0932  0.0534
  973POPC   NC314503  13.303   9.187   5.110  0.1943  0.1050 -0.1158
  973POPC   PO414504  13.047   9.287   5.448  0.0100 -0.1713 -0.2887
  973POPC   GL114505  13.084   9.283   5.814 -0.1397  0.0288  0.0003
  973POPC   GL214506  13.274   8.974   5.902  0.1129 -0.0796 -0.2033
  973POPC   C1A14507  12.725   9.334   6.146 -0.0388 -0.2311  0.0222
  973POPC   D2A14508  12.749   9.232   6.594 -0.1662  0.1969 -0.2798
  973POPC   C3A14509  12.808   9.119   7.026  0.2395  0.1041  0.0559
  973POPC   C4A14510  12.833   9.163   7.447  0.1624 -0.1521 -0.2395
  973POPC   C1B14511  13.190   9.042   6.270  0.2060  0.2679 -0.1980
  973POPC   C2B14512  13.319   9.055   6.635  0.3585  0.1390  0.1554
  973POPC   C3B14513  13.299   9.248   6.950 -0.1242  0.1068 -0.1589
  973POPC   C4B14514  13.289   9.288   7.366  0.1553 -0.2428 -0.1229
  974POPC   NC314515  11.061   4.755   4.894  0.3157  0.3011 -0.1167
  974POPC   PO414516  10.891   5.015   5.231 -0.2487  0.0144 -0.1627
  974POPC   GL114517  11.001   4.914   5.614 -0.0204  0.0915 -0.0223
  974POPC   GL214518  10.893   5.042   5.890  0.1234  0.0839  0.1121
  974POPC   C1A14519  11.119   4.637   6.078 -0.1456 -0.1418 -0.2597
  974POPC   D2A14520  11.252   4.468   6.526 -0.2608  0.1520 -0.0884
  974POPC   C3A14521  11.093   4.604   6.937 -0.0546 -0.1642  0.2387
  974POPC   C4A14522  11.118   4.799   7.332 -0.0850 -0.1043 -0.0431
  974POPC   C1B14523  10.999   5.075   6.327 -0.3186  0.3126 -0.2668
  974POPC   C2B14524  11.348   5.003   6.568 -0.0892  0.0472 -0.0598
  974POPC   C3B14525  11.598   4.906   6.931 -0.0783  0.0858  0.0999
  974POPC   C4B14526  11.589   4.959   7.384  0.2182  0.2220  0.0125
  975POPC   NC314527  15.522   0.712   5.707  0.0367  0.1710  0.0826
  975POPC   PO414528  15.424   1.214   5.675  0.0986  0.0231  0.1974
  975POPC   GL114529  15.539   1.322   6.075 -0.1752 -0.0491 -0.1179
  975POPC   GL214530  15.857   1.562   6.183 -0.1803  0.1634  0.1384
  975POPC   C1A14531  15.491   1.534   6.530 -0.1135  0.2296 -0.2266
  975POPC   D2A14532  15.618   1.724   6.859 -0.1309 -0.1032  0.3398
  975POPC   C3A14533  15.539   1.523   7.184  0.0262  0.3683 -0.1787
  975POPC   C4A14534  15.203   1.332   7.416 -0.1082  0.1256  0.1105
  975POPC   C1B14535  15.981   1.498   6.606  0.0750  0.0523  0.0786
  975POPC   C2B14536  16.005   1.453   7.082 -0.3209  0.0801  0.1783
  975POPC   C3B14537  16.043   1.307   7.457 -0.0198 -0.1279 -0.1224
  975POPC   C4B14538  15.918   1.232   7.906 -0.0296  0.3373 -0.2827
  976POPC   NC314539   8.531   1.915   5.611 -0.0121 -0.0781  0.2204
  976POPC   PO414540   8.971   1.857   5.657 -0.0555 -0.1997 -0.0609
  976POPC   GL114541   9.334   2.072   5.957 -0.0615  0.1216 -0.0627
  976POPC   GL214542   9.253   1.822   6.208 -0.0228 -0.1423  0.1813
  976POPC   C1A14543   9.696   2.186   6.188 -0.0631 -0.1286  0.0673
  976POPC   D2A14544   9.789   2.444   6.608  0.0641 -0.2312  0.2838
  976POPC   C3A14545  10.134   2.344   6.832 -0.1685 -0.1189  0.2084
  976POPC   C4A14546  10.454   2.437   7.115 -0.0396  0.0121 -0.2621
  976POPC   C1B14547   9.235   1.710   6.741 -0.0861 -0.1380  0.0510
  976POPC   C2B14548   9.450   1.640   7.123 -0.0828  0.0413  0.0599
  976POPC   C3B14549   9.401   1.737   7.529  0.1268 -0.1858 -0.2176
  976POPC   C4B14550   9.058   1.841   7.798 -0.2815 -0.1942 -0.2889
  977POPC   NC314551  17.692   6.249   5.389  0.2177  0.1035  0.1655
  977POPC   PO414552  18.170   6.363   5.451  0.1566  0.2830  0.3737
  977POPC   GL114553  17.952   6.191   5.819 -0.0379  0.2284 -0.2197
  977POPC   GL214554  18.067   5.958   5.998 -0.1262  0.0282  0.1377
  977POPC   C1A14555  17.705   6.330   6.152  0.1651  0.0151  0.0053
  977POPC   D2A14556  17.667   6.383   6.556  0.0564 -0.2084  0.0757
  977POPC   C3A14557  17.544   6.626   6.847 -0.2959  0.4622 -0.0138
  977POPC   C4A14558  17.559   6.642   7.300  0.3063 -0.0277 -0.2230
  977POPC   C1B14559  18.187   5.728   6.331  0.0269 -0.1162 -0.0606
  977POPC   C2B14560  18.164   5.505   6.720 -0.0054 -0.1850  0.1687
  977POPC   C3B14561  18.150   5.386   7.196 -0.0763  0.0435 -0.0811
  977POPC   C4B14562  18.372   5.323   7.637 -0.1096 -0.0120 -0.0311
  978POPC   NC314563  16.030   2.635   5.324 -0.0950  0.0321  0.1147
  978POPC   PO414564  15.677   2.898   5.402  0.4705  0.2438  0.1799
  978POPC   GL114565  15.524   2.804   5.835 -0.2986 -0.1541 -0.1294
  978POPC   GL214566  15.227   2.635   5.696 -0.0220  0.1440  0.3526
  978POPC   C1A14567  15.297   3.094   6.137 -0.1012 -0.0081  0.2265
  978POPC   D2A14568  15.175   3.207   6.520 -0.1985 -0.3805 -0.0036
  978POPC   C3A14569  14.706   3.134   6.683  0.2969 -0.1306  0.2619
  978POPC   C4A14570  14.533   3.413   7.050  0.0480  0.0277  0.2604
  978POPC   C1B14571  15.257   2.601   6.187  0.0519 -0.0309  0.0835
  978POPC   C2B14572  15.487   2.762   6.510 -0.3421 -0.2244  0.1541
  978POPC   C3B14573  15.484   2.957   6.918  0.2506  0.0580 -0.0455
  978POPC   C4B14574  15.430   3.203   7.296  0.0829  0.0710  0.0989
  979POPC   NC314575   5.282  13.685   6.063 -0.1219 -0.1735  0.1247
  979POPC   PO414576   5.579  13.983   6.113  0.0250  0.2018 -0.3604
  979POPC   GL114577   5.615  14.245   6.502  0.1529  0.1867 -0.0702
  979POPC   GL214578   5.921  14.403   6.501  0.3934  0.2934 -0.1352
  979POPC   C1A14579   5.539  14.346   6.974 -0.1035 -0.2916  0.1161
  979POPC   D2A14580   5.550  14.276   7.331 -0.0742 -0.0926 -0.1416
  979POPC   C3A14581   5.537  14.401   7.798  0.0574 -0.2065 -0.1082
  979POPC   C4A14582   5.380  14.058   8.061 -0.1573  0.0995 -0.0513
  979POPC   C1B14583   6.093  14.401   6.917 -0.0933  0.1067  0.0337
  979POPC   C2B14584   6.489  14.508   7.155 -0.2042 -0.0496  0.0448
  979POPC   C3B14585   6.736  14.458   7.495  0.0764 -0.0043  0.1607
  979POPC   C4B14586   6.777  14.092   7.770  0.3284 -0.0310 -0.0808
  980POPC   NC314587  12.227   3.952   5.541  0.0280  0.0756  0.3723
  980POPC   PO414588  12.235   4.391   5.447 -0.1759  0.1159 -0.2273
  980POPC   GL114589  12.273   4.339   5.815  0.0844 -0.2144  0.2220
  980POPC   GL214590  12.070   4.164   6.027  0.2801 -0.2323 -0.3811
  980POPC   C1A14591  12.387   4.429   6.233  0.2237 -0.2652 -0.2448
  980POPC   D2A14592  12.551   4.263   6.581  0.0214 -0.2994 -0.0160
  980POPC   C3A14593  12.498   4.294   7.027  0.0941 -0.0929  0.3109
  980POPC   C4A14594  12.333   4.247   7.402  0.2720  0.0542  0.2414
  980POPC   C1B14595  12.063   4.015   6.426  0.1490  0.0696  0.0086
  980POPC   C2B14596  12.136   4.031   6.819  0.1789  0.0260  0.0061
  980POPC   C3B14597  11.928   4.024   7.195  0.0353  0.0532  0.2779
  980POPC   C4B14598  11.585   3.801   7.348 -0.1503  0.1162  0.0732
  981POPC   NC314599   0.089   4.474   5.218 -0.2647  0.0580 -0.0228
  981POPC   PO414600   0.038   4.726   5.551  0.0359 -0.3206 -0.0309
  981POPC   GL114601  -0.202   4.478   5.761 -0.0774  0.0668 -0.0452
  981POPC   GL214602  -0.499   4.403   5.749 -0.2371 -0.0865  0.0320
  981POPC   C1A14603  -0.259   4.092   5.998  0.0750  0.1414 -0.0832
  981POPC   D2A14604  -0.184   3.718   6.160  0.1942 -0.2757 -0.1630
  981POPC   C3A14605   0.226   3.801   6.063  0.0885 -0.0664  0.0813
  981POPC   C4A14606   0.608   3.738   6.032 -0.4180  0.1323  0.0439
  981POPC   C1B14607  -0.522   4.508   6.148  0.0118 -0.2348 -0.0482
  981POPC   C2B14608  -0.547   4.419   6.561 -0.0981 -0.1144  0.1671
  981POPC   C3B14609  -0.497   4.465   7.026 -0.0892  0.0402 -0.2902
  981POPC   C4B14610  -0.451   4.442   7.400  0.0450  0.4192  0.0766
  982POPC   NC314611  16.504  17.649   5.824  0.0133 -0.0166 -0.0650
  982POPC   PO414612  16.509  18.048   5.736 -0.1206  0.0813  0.0957
  982POPC   GL114613  16.429  18.199   6.075 -0.0585  0.3260 -0.0114
  982POPC   GL214614  16.562  18.506   6.106  0.2575  0.1314 -0.0255
  982POPC   C1A14615  16.776  18.062   6.386 -0.0347  0.1397  0.0832
  982POPC   D2A14616  17.051  17.893   6.704  0.2228 -0.0352  0.0625
  982POPC   C3A14617  16.929  18.040   7.070 -0.0241  0.2837 -0.1767
  982POPC   C4A14618  17.090  18.076   7.338  0.1858  0.2896  0.1165
  982POPC   C1B14619  16.389  18.541   6.533 -0.0306 -0.0300 -0.2485
  982POPC   C2B14620  16.602  18.800   6.917  0.0011 -0.0789 -0.0784
  982POPC   C3B14621  16.757  18.920   7.287 -0.1896  0.1252 -0.1423
  982POPC   C4B14622  17.073  18.798   7.618 -0.0286  0.4321 -0.0854
  983POPC   NC314623  15.459  10.146   5.434 -0.0048 -0.1039  0.0104
  983POPC   PO414624  15.546   9.711   5.331 -0.0142  0.2398 -0.0779
  983POPC   GL114625  15.645   9.468   5.688  0.0108  0.0998 -0.0206
  983POPC   GL214626  15.411   9.225   5.783  0.0428 -0.1059  0.2322
  983POPC   C1A14627  15.835   9.434   6.180  0.0574 -0.2322  0.4588
  983POPC   D2A14628  15.476   9.628   6.487 -0.0362  0.0171 -0.2439
  983POPC   C3A14629  15.529   9.576   6.849  0.1416 -0.1828 -0.0727
  983POPC   C4A14630  15.411   9.524   7.230  0.0978 -0.4391  0.0950
  983POPC   C1B14631  15.173   9.432   6.169 -0.1742 -0.1671  0.1661
  983POPC   C2B14632  15.002   9.530   6.620 -0.2156 -0.0996 -0.2305
  983POPC   C3B14633  14.833   9.714   7.017 -0.0295  0.1698 -0.1345
  983POPC   C4B14634  14.503   9.843   7.258  0.0031 -0.0799 -0.1380
  984YOPC   NC314635  17.955  15.171   5.768  0.0498 -0.5884 -0.2539
  984YOPC   PO414636  17.485  15.278   5.929 -0.1599  0.0153 -0.1191
  984YOPC   GL114637  17.778  15.323   6.220 -0.1250  0.0333 -0.0444
  984YOPC   GL214638  17.889  14.993   6.234  0.2188 -0.0556  0.1030
  984YOPC   C1A14639  17.815  15.220   6.613  0.1188  0.2977  0.0324
  984YOPC   D2A14640  18.007  15.356   6.979 -0.1893  0.0897 -0.0164
  984YOPC   C3A14641  18.077  15.792   7.138  0.1587 -0.0153 -0.0115
  984YOPC   C4A14642  18.349  16.102   7.380 -0.1985  0.0387  0.1048
  984YOPC   C1B14643  18.284  15.148   6.566 -0.1363  0.1517  0.0939
  984YOPC   C2B14644  18.663  15.032   6.848 -0.2409 -0.0404  0.0851
  984YOPC   D3B14645  18.577  15.203   7.228 -0.0092 -0.1543 -0.2645
  984YOPC   C4B14646  18.328  15.447   7.408  0.1508  0.1616 -0.1621
  985YOPC   NC314647  12.156   2.700   5.431 -0.0017 -0.2088 -0.0586
  985YOPC   PO414648  12.639   2.712   5.493 -0.0430  0.0867  0.4285
  985YOPC   GL114649  12.672   2.600   5.831  0.1286 -0.1669  0.0842
  985YOPC   GL214650  12.873   2.678   6.026  0.1269 -0.0087 -0.0599
  985YOPC   C1A14651  12.670   2.132   5.946  0.0628  0.3731  0.1813
  985YOPC   D2A14652  12.579   1.794   6.331 -0.0580  0.0364 -0.1350
  985YOPC   C3A14653  12.767   1.889   6.673  0.1870 -0.0265  0.0642
  985YOPC   C4A14654  12.860   1.902   7.129  0.0969 -0.0046 -0.0106
  985YOPC   C1B14655  12.992   2.381   6.376  0.0362 -0.1062 -0.0819
  985YOPC   C2B14656  13.052   2.330   6.732 -0.3950  0.1010 -0.2495
  985YOPC   D3B14657  13.231   2.652   6.997  0.1476 -0.1611  0.0614
  985YOPC   C4B14658  13.499   2.853   7.216  0.1907 -0.0170 -0.1074
  986YOPC   NC314659  11.306   6.182   5.758  0.2084  0.4145 -0.0252
  986YOPC   PO414660  11.211   5.828   5.416  0.0441 -0.1728 -0.2878
  986YOPC   GL114661  11.107   5.589   5.849 -0.0113  0.1120  0.2155
  986YOPC   GL214662  11.025   5.881   6.070 -0.0712  0.1722  0.0554
  986YOPC   C1A14663  11.313   5.498   6.240 -0.2558  0.0209 -0.2740
  986YOPC   D2A14664  11.738   5.739   6.321 -0.1971  0.0722 -0.1822
  986YOPC   C3A14665  11.744   5.888   6.673 -0.0334 -0.2399 -0.1699
  986YOPC   C4A14666  11.812   5.756   7.091 -0.2208 -0.2774 -0.0436
  986YOPC   C1B14667  11.281   5.994   6.352 -0.3693 -0.3269 -0.2494
  986YOPC   C2B14668  11.252   5.950   6.689  0.0354 -0.0459 -0.1525
  986YOPC   D3B14669  11.239   5.744   7.134 -0.1695 -0.2504  0.0963
  986YOPC   C4B14670  11.313   5.333   7.212 -0.0681  0.0546  0.0232
  987YOPC   NC314671   8.546   2.561   5.095 -0.1372 -0.2900 -0.1807
  987YOPC   PO414672   8.492   2.485   5.493  0.0022  0.0915  0.0765
  987YOPC   GL114673   8.572   2.765   5.800  0.0256  0.3019 -0.0113
  987YOPC   GL214674   8.988   2.822   5.863 -0.0038 -0.0717  0.0789
  987YOPC   C1A14675   8.578   3.132   5.937  0.3568  0.4570  0.2633
  987YOPC   D2A14676   8.684   3.261   6.351 -0.0891 -0.0377 -0.2055
  987YOPC   C3A14677   8.514   3.365   6.756 -0.1559 -0.1024  0.2595
  987YOPC   C4A14678   8.487   3.704   7.089 -0.0207 -0.0157  0.2856
  987YOPC   C1B14679   8.857   2.810   6.313 -0.1539 -0.1118  0.1180
  987YOPC   C2B14680   8.877   2.846   6.708  0.0265  0.1231  0.0670
  987YOPC   D3B14681   8.686   2.870   7.052 -0.2766 -0.0215  0.1395
  987YOPC   C4B14682   8.527   3.231   7.261  0.2352  0.1710  0.1913
  988YOPC   NC314683  12.395  11.081   5.741 -0.2890  0.2307  0.0240
  988YOPC   PO414684  12.775  10.817   5.610  0.1918 -0.0696 -0.0226
  988YOPC   GL114685  12.800  10.960   5.987 -0.1977 -0.0701  0.1768
  988YOPC   GL214686  12.650  10.889   6.191 -0.1213  0.1533  0.2101
  988YOPC   C1A14687  12.991  11.206   6.408  0.1843 -0.2918  0.2033
  988YOPC   D2A14688  13.015  11.256   6.765 -0.0904 -0.3056 -0.1798
  988YOPC   C3A14689  13.200  11.508   7.159  0.2437  0.0597 -0.0109
  988YOPC   C4A14690  13.136  11.621   7.583 -0.2682  0.0056  0.1832
  988YOPC   C1B14691  12.880  10.742   6.509 -0.1103  0.4677  0.0230
  988YOPC   C2B14692  12.973  10.624   6.880  0.3216 -0.0010 -0.0762
  988YOPC   D3B14693  13.074  11.021   7.157 -0.1255  0.0226 -0.0885
  988YOPC   C4B14694  13.378  11.120   7.346 -0.5350 -0.0116 -0.0212
  989YOPC   NC314695   6.782   2.736   5.848 -0.1969 -0.1645  0.0660
  989YOPC   PO414696   6.569   3.224   5.795  0.3703 -0.3268 -0.1171
  989YOPC   GL114697   6.544   3.399   6.220  0.1199 -0.1339 -0.0508
  989YOPC   GL214698   6.553   3.680   6.190 -0.2512  0.1394 -0.0673
  989YOPC   C1A14699   6.423   3.207   6.605 -0.1088  0.0979 -0.0277
  989YOPC   D2A14700   6.628   3.143   7.027 -0.1651  0.0333  0.1768
  989YOPC   C3A14701   6.594   3.089   7.473  0.2208 -0.1824  0.0905
  989YOPC   C4A14702   6.729   3.535   7.572 -0.0829  0.2914  0.0677
  989YOPC   C1B14703   6.937   3.725   6.467 -0.0772 -0.1512  0.1632
  989YOPC   C2B14704   7.038   3.974   6.754  0.1732  0.3605 -0.1229
  989YOPC   D3B14705   6.829   4.394   6.903 -0.1083 -0.1329  0.3414
  989YOPC   C4B14706   6.465   4.627   6.720  0.2271 -0.0398 -0.0048
  990YOPC   NC314707   3.011  11.397   5.545  0.0326  0.0080 -0.0520
  990YOPC   PO414708   3.168  11.570   5.990  0.2100 -0.3278 -0.2680
  990YOPC   GL114709   3.081  11.402   6.447 -0.0375 -0.3236  0.2674
  990YOPC   GL214710   2.914  11.652   6.561  0.2033  0.0039 -0.0987
  990YOPC   C1A14711   3.211  11.217   6.638  0.0463  0.0310 -0.1339
  990YOPC   D2A14712   3.536  11.177   6.937 -0.0460  0.1607  0.0592
  990YOPC   C3A14713   3.961  11.337   6.846  0.2883 -0.0420  0.1159
  990YOPC   C4A14714   4.067  11.286   6.445 -0.1318  0.2092 -0.1312
  990YOPC   C1B14715   2.676  11.826   6.814  0.0883 -0.0139 -0.0756
  990YOPC   C2B14716   2.533  11.680   7.102 -0.2418  0.1802  0.1190
  990YOPC   D3B14717   2.505  11.807   7.424 -0.1803  0.1110  0.0335
  990YOPC   C4B14718   2.658  11.935   7.801  0.2097  0.3120 -0.0735
  991YOPC   NC314719   2.638  12.634   6.096 -0.0863  0.1359 -0.1037
  991YOPC   PO414720   2.818  12.241   5.991  0.1052 -0.0849 -0.1167
  991YOPC   GL114721   2.973  12.371   6.445 -0.0703  0.2383  0.3473
  991YOPC   GL214722   2.877  12.759   6.586  0.0619  0.0260  0.1868
  991YOPC   C1A14723   3.011  12.254   6.872 -0.1738 -0.1662 -0.0073
  991YOPC   D2A14724   2.934  12.106   7.394 -0.0098 -0.2462  0.2231
  991YOPC   C3A14725   3.245  12.107   7.665 -0.1700 -0.1137 -0.1369
  991YOPC   C4A14726   3.449  12.472   7.635 -0.2713 -0.2910  0.1084
  991YOPC   C1B14727   2.786  12.895   6.949  0.1870  0.1145  0.1082
  991YOPC   C2B14728   2.625  12.841   7.375  0.0774  0.1246 -0.1171
  991YOPC   D3B14729   2.984  12.932   7.666  0.2068 -0.1409  0.2891
  991YOPC   C4B14730   3.173  12.633   8.071 -0.4137  0.1215 -0.0161
  992YOPC   NC314731  18.291  14.841   5.556 -0.1486  0.0190  0.1073
  992YOPC   PO414732  18.310  14.805   5.973 -0.3280 -0.1837  0.2004
  992YOPC   GL114733  18.358  15.226   6.058  0.2007 -0.1003  0.0607
  992YOPC   GL214734  18.631  15.380   6.223 -0.0675 -0.0576 -0.2683
  992YOPC   C1A14735  18.214  15.639   6.327 -0.2472  0.3070 -0.1838
  992YOPC   D2A14736  17.920  15.754   6.581  0.0325  0.1161  0.3651
  992YOPC   C3A14737  17.735  16.132   6.797 -0.1105 -0.2942 -0.1240
  992YOPC   C4A14738  17.431  16.101   7.159 -0.2551  0.1075  0.0194
  992YOPC   C1B14739  18.660  15.514   6.619  0.0455  0.1793  0.2661
  992YOPC   C2B14740  18.468  15.651   6.888  0.0556 -0.0564  0.0834
  992YOPC   D3B14741  18.652  15.698   7.197 -0.0702  0.0954  0.2985
  992YOPC   C4B14742  18.800  15.964   7.503  0.0211  0.0906  0.1666
  993YOPC   NC314743  14.972  16.279   5.489  0.0659 -0.3551  0.0735
  993YOPC   PO414744  15.227  15.955   5.589  0.0056  0.0683 -0.1512
  993YOPC   GL114745  15.202  15.808   6.060 -0.1825  0.0944  0.0897
  993YOPC   GL214746  15.004  15.896   6.302  0.2390 -0.1060 -0.0839
  993YOPC   C1A14747  15.382  15.701   6.528 -0.0706 -0.2373 -0.1286
  993YOPC   D2A14748  15.447  15.902   6.902 -0.0258  0.0134  0.1107
  993YOPC   C3A14749  15.087  15.964   7.265 -0.1452 -0.0148 -0.1850
  993YOPC   C4A14750  14.794  16.197   7.572  0.0173 -0.1039 -0.1557
  993YOPC   C1B14751  14.904  15.975   6.753  0.1773 -0.1274 -0.0681
  993YOPC   C2B14752  14.607  15.778   6.969 -0.0470 -0.1015 -0.0616
  993YOPC   D3B14753  14.467  15.789   7.395 -0.2430 -0.2209  0.0592
  993YOPC   C4B14754  14.675  15.712   7.788  0.2936  0.1449  0.0673
  994YOPC   NC314755   5.726  10.069   6.042 -0.0546  0.0883  0.2922
  994YOPC   PO414756   5.628  10.461   6.009 -0.1674 -0.2799 -0.2610
  994YOPC   GL114757   5.702  10.374   6.424 -0.1495  0.0161  0.1304
  994YOPC   GL214758   5.478  10.182   6.463  0.1291 -0.2943 -0.1147
  994YOPC   C1A14759   5.752  10.286   6.849 -0.1149 -0.3676  0.2284
  994YOPC   D2A14760   5.901  10.219   7.265 -0.4294 -0.0615 -0.0156
  994YOPC   C3A14761   5.736  10.524   7.586 -0.0937 -0.0255  0.1398
  994YOPC   C4A14762   5.321  10.521   7.752 -0.1255  0.1983 -0.4123
  994YOPC   C1B14763   5.202  10.244   6.790 -0.0746  0.3675 -0.1100
  994YOPC   C2B14764   5.407  10.307   7.260  0.0400 -0.0841 -0.0618
  994YOPC   D3B14765   5.525  10.029   7.607 -0.2182 -0.0761 -0.1556
  994YOPC   C4B14766   5.258  10.034   7.924  0.0081 -0.2697 -0.0322
  995YOPC   NC314767   4.155  14.848   5.468  0.3224  0.0302  0.0979
  995YOPC   PO414768   3.918  15.006   5.742  0.1851  0.1132  0.2775
  995YOPC   GL114769   3.991  15.025   6.137  0.4018 -0.1777  0.1293
  995YOPC   GL214770   4.158  15.264   6.342  0.2750 -0.2008  0.1270
  995YOPC   C1A14771   4.082  14.779   6.483  0.2632  0.1228 -0.0914
  995YOPC   D2A14772   4.075  14.748   6.885  0.1024 -0.2969  0.1187
  995YOPC   C3A14773   4.063  14.563   7.235  0.0710  0.0382 -0.3221
  995YOPC   C4A14774   3.877  14.271   7.467 -0.2944 -0.2187 -0.0943
  995YOPC   C1B14775   4.328  15.179   6.695 -0.4056  0.1098 -0.3354
  995YOPC   C2B14776   4.408  15.050   7.102  0.0448  0.0925 -0.1547
  995YOPC   D3B14777   4.573  15.103   7.607 -0.1688 -0.2094  0.0304
  995YOPC   C4B14778   4.732  15.173   8.032 -0.0189 -0.3650  0.2879
  996YOPC   NC314779   7.546  16.862   5.523  0.1765 -0.1251  0.0186
  996YOPC   PO414780   7.592  16.768   5.929  0.1123  0.1983 -0.0273
  996YOPC   GL114781   7.651  16.757   6.373  0.1305 -0.0749 -0.0660
  996YOPC   GL214782   7.713  16.531   6.404 -0.0737 -0.2539  0.3678
  996YOPC   C1A14783   7.860  16.838   6.764 -0.0086 -0.1160  0.0214
  996YOPC   D2A14784   8.209  16.881   6.965 -0.1446  0.1560  0.2715
  996YOPC   C3A14785   8.609  16.932   6.960  0.1960  0.1213 -0.0961
  996YOPC   C4A14786   8.976  17.107   7.065 -0.0046  0.0614  0.1592
  996YOPC   C1B14787   7.500  16.487   6.766 -0.2428 -0.3173  0.1905
  996YOPC   C2B14788   7.640  16.656   7.158 -0.1744  0.0390 -0.0053
  996YOPC   D3B14789   7.639  16.233   7.352 -0.1618  0.1901 -0.2062
  996YOPC   C4B14790   7.249  15.982   7.402  0.1719  0.1138 -0.0948
  997YOPC   NC314791   8.621  17.477   5.917 -0.1318 -0.0322  0.1575
  997YOPC   PO414792   9.007  17.565   5.713  0.0026 -0.1164 -0.1388
  997YOPC   GL114793   9.364  17.718   5.979  0.1234 -0.0703  0.1865
  997YOPC   GL214794   9.634  17.471   6.057  0.3624 -0.0227 -0.0317
  997YOPC   C1A14795   9.378  17.829   6.344 -0.1375  0.1644 -0.1037
  997YOPC   D2A14796   9.196  17.845   6.851  0.1031 -0.0224 -0.0883
  997YOPC   C3A14797   8.889  17.667   7.094  0.2171  0.3592 -0.0081
  997YOPC   C4A14798   8.478  17.807   7.297 -0.0187 -0.0035 -0.0808
  997YOPC   C1B14799   9.826  17.349   6.486 -0.0262  0.2039  0.1761
  997YOPC   C2B14800   9.900  16.994   6.630  0.0454 -0.1534 -0.2629
  997YOPC   D3B14801   9.986  16.665   6.367  0.2104  0.0097  0.1208
  997YOPC   C4B14802  10.187  16.191   6.175  0.2056  0.1349 -0.3406
  998YOPC   NC314803   3.040   3.614   5.622 -0.1077 -0.0666 -0.0976
  998YOPC   PO414804   3.114   4.026   5.833  0.2128 -0.0025  0.0044
  998YOPC   GL114805   2.801   4.228   6.098 -0.1055 -0.1409  0.0507
  998YOPC   GL214806   2.572   4.072   5.965  0.0119  0.1029  0.3259
  998YOPC   C1A14807   2.714   4.334   6.534 -0.0996  0.3441  0.0620
  998YOPC   D2A14808   2.741   4.386   6.959  0.0300 -0.0452  0.0678
  998YOPC   C3A14809   2.248   4.286   7.188  0.1135 -0.1192 -0.1005
  998YOPC   C4A14810   1.893   4.121   7.435 -0.1661 -0.2582 -0.2259
  998YOPC   C1B14811   2.330   4.007   6.349 -0.1602  0.0888  0.2455
  998YOPC   C2B14812   2.128   4.088   6.778  0.0226  0.0493 -0.0888
  998YOPC   D3B14813   1.786   3.899   7.016 -0.0520 -0.1402 -0.1022
  998YOPC   C4B14814   1.651   3.618   7.363 -0.0899  0.0706 -0.1089
  999YOPC   NC314815   6.382  13.943   5.633 -0.0491  0.2858 -0.1137
  999YOPC   PO414816   6.543  13.510   5.844 -0.2158  0.0157 -0.1305
  999YOPC   GL114817   6.497  13.685   6.301 -0.0870  0.3905  0.0497
  999YOPC   GL214818   6.179  13.654   6.475  0.1778 -0.3159 -0.0884
  999YOPC   C1A14819   6.624  13.622   6.657 -0.0913 -0.0894  0.1820
  999YOPC   D2A14820   7.000  13.629   6.947  0.0292  0.0911  0.3067
  999YOPC   C3A14821   6.935  13.655   7.374  0.0268  0.0029  0.0964
  999YOPC   C4A14822   7.138  13.684   7.805 -0.2195 -0.1579  0.2264
  999YOPC   C1B14823   6.240  14.060   6.654  0.0164  0.1853  0.1633
  999YOPC   C2B14824   6.471  14.036   6.973  0.3249 -0.0284 -0.0850
  999YOPC   D3B14825   6.440  13.913   7.382 -0.1324 -0.1376  0.3551
  999YOPC   C4B14826   6.310  13.951   7.818  0.1365 -0.0509  0.0538
 1000YOPC   NC314827   5.126   2.063   5.831  0.1820  0.0885 -0.2083
 1000YOPC   PO414828   4.823   1.792   6.173 -0.0894  0.0799 -0.2217
 1000YOPC   GL114829   5.055   1.877   6.500 -0.1794  0.0260 -0.0057
 1000YOPC   GL214830   4.855   1.909   6.676  0.2613  0.0514 -0.1235
 1000YOPC   C1A14831   5.396   1.722   6.833 -0.2241 -0.1910  0.1058
 1000YOPC   D2A14832   5.519   1.761   7.227 -0.3594 -0.2762  0.3600
 1000YOPC   C3A14833   5.292   1.768   7.508 -0.2050  0.0961  0.0931
 1000YOPC   C4A14834   5.082   1.806   7.831  0.1338  0.1410 -0.2267
 1000YOPC   C1B14835   5.049   1.942   7.065 -0.1299  0.0198  0.0864
 1000YOPC   C2B14836   4.936   2.069   7.441  0.1186 -0.1078 -0.2872
 1000YOPC   D3B14837   4.901   2.456   7.671  0.0638 -0.1318 -0.0762
 1000YOPC   C4B14838   4.926   2.757   8.107 -0.3701  0.1145 -0.3295
 1001YOPC   NC314839  18.017  14.447   5.831  0.0497  0.2723  0.0794
 1001YOPC   PO414840  17.970  14.100   5.970  0.0817 -0.0780 -0.2219
 1001YOPC   GL114841  18.080  14.012   6.416  0.1012 -0.0900 -0.0096
 1001YOPC   GL214842  17.802  13.727   6.612 -0.2828  0.2342  0.2326
 1001YOPC   C1A14843  18.060  14.142   6.886  0.0489 -0.3989 -0.1383
 1001YOPC   D2A14844  18.180  14.255   7.271 -0.1687  0.1756 -0.0646
 1001YOPC   C3A14845  18.100  14.095   7.650  0.3185 -0.3048  0.0092
 1001YOPC   C4A14846  17.848  13.889   8.075  0.0237  0.1080 -0.2417
 1001YOPC   C1B14847  17.802  13.794   7.137 -0.1384  0.2684  0.1387
 1001YOPC   C2B14848  17.753  13.642   7.550 -0.2214 -0.1283  0.0369
 1001YOPC   D3B14849  17.523  13.335   7.638  0.2575 -0.0669  0.6401
 1001YOPC   C4B14850  17.208  13.208   7.848  0.0000  0.1908 -0.0193
 1002YOPC   NC314851   3.944   4.991   6.000 -0.0760  0.0003  0.1040
 1002YOPC   PO414852   4.176   4.990   6.283  0.0104 -0.1621 -0.1183
 1002YOPC   GL114853   3.937   4.999   6.622 -0.1762  0.0188 -0.0186
 1002YOPC   GL214854   3.699   5.141   6.392 -0.0486 -0.2346  0.0406
 1002YOPC   C1A14855   3.926   5.054   7.076 -0.0527  0.0392 -0.1240
 1002YOPC   D2A14856   4.130   4.844   7.508 -0.1932 -0.2747  0.1688
 1002YOPC   C3A14857   4.388   5.030   7.750 -0.3864 -0.2101  0.0070
 1002YOPC   C4A14858   4.572   5.266   8.082 -0.1448  0.1126  0.1094
 1002YOPC   C1B14859   3.564   5.375   6.772  0.1391 -0.0607  0.0940
 1002YOPC   C2B14860   3.617   5.488   7.197  0.0331  0.0987  0.1965
 1002YOPC   D3B14861   3.986   5.386   7.490  0.0744  0.2859 -0.0805
 1002YOPC   C4B14862   4.444   5.505   7.595 -0.0667 -0.1484 -0.0531
 1003YOPC   NC314863   8.632   4.492   5.449  0.1378  0.1584  0.5176
 1003YOPC   PO414864   8.414   4.082   5.283  0.1431  0.1592 -0.0020
 1003YOPC   GL114865   8.538   4.092   5.682 -0.0935  0.2223  0.3960
 1003YOPC   GL214866   8.737   4.325   5.913 -0.2085 -0.0573 -0.0295
 1003YOPC   C1A14867   8.322   4.096   6.139 -0.0509  0.0214  0.0389
 1003YOPC   D2A14868   8.403   4.254   6.600  0.0937 -0.1620 -0.0705
 1003YOPC   C3A14869   8.682   4.271   6.858 -0.0683  0.2078 -0.0388
 1003YOPC   C4A14870   8.693   4.139   7.274  0.1161 -0.1977 -0.1322
 1003YOPC   C1B14871   8.745   4.522   6.359  0.0717 -0.1369  0.0141
 1003YOPC   C2B14872   9.059   4.468   6.614 -0.0691 -0.3388  0.0847
 1003YOPC   D3B14873   9.093   4.499   7.093  0.1624  0.2639  0.2860
 1003YOPC   C4B14874   9.073   4.418   7.516  0.0341  0.4916  0.0887
 1004YOPC   NC314875   7.676   6.345   6.016 -0.0150 -0.5348  0.0707
 1004YOPC   PO414876   7.868   6.725   6.075  0.0158 -0.1868  0.1444
 1004YOPC   GL114877   8.094   6.864   6.348  0.1955  0.0673 -0.0193
 1004YOPC   GL214878   8.338   6.656   6.393 -0.4002  0.0030 -0.1449
 1004YOPC   C1A14879   7.922   7.019   6.704 -0.3103 -0.1130 -0.0976
 1004YOPC   D2A14880   7.883   6.937   7.147 -0.0703  0.1617  0.0493
 1004YOPC   C3A14881   7.520   6.909   7.268  0.1938 -0.0887 -0.0468
 1004YOPC   C4A14882   7.404   6.669   7.579  0.4077 -0.0666  0.1730
 1004YOPC   C1B14883   8.309   6.768   6.838  0.1498 -0.2573 -0.0471
 1004YOPC   C2B14884   8.350   6.814   7.281  0.0469 -0.2201  0.2115
 1004YOPC   D3B14885   8.377   6.536   7.698  0.3343 -0.1067  0.4200
 1004YOPC   C4B14886   8.531   6.335   7.989  0.1523 -0.1386 -0.1521
 1005YOPC   NC314887   2.528   8.942   6.024  0.0467  0.1658  0.0243
 1005YOPC   PO414888   2.350   9.352   6.009  0.1160 -0.2803  0.1658
 1005YOPC   GL114889   2.581   9.337   6.418 -0.1007  0.1182 -0.0533
 1005YOPC   GL214890   2.581   9.095   6.514  0.0524 -0.3155  0.2067
 1005YOPC   C1A14891   2.406   9.378   6.865 -0.2803  0.0864  0.0420
 1005YOPC   D2A14892   2.458   9.298   7.310 -0.1090 -0.2237 -0.0864
 1005YOPC   C3A14893   2.426   9.607   7.612  0.1470  0.2053  0.3323
 1005YOPC   C4A14894   2.398   9.692   7.999  0.1624 -0.1268 -0.2305
 1005YOPC   C1B14895   2.779   9.107   6.986 -0.0021  0.3873 -0.1189
 1005YOPC   C2B14896   3.111   8.959   7.257  0.1998  0.2012 -0.1644
 1005YOPC   D3B14897   3.204   9.061   7.654  0.0387  0.1322  0.1850
 1005YOPC   C4B14898   2.923   9.018   8.031 -0.1638 -0.2762  0.0814
 1006YOPC   NC314899  11.062   0.958   5.692  0.1225  0.1407  0.0517
 1006YOPC   PO414900  11.258   1.177   5.220 -0.0809 -0.2200 -0.1200
 1006YOPC   GL114901  11.386   1.346   5.694  0.2164 -0.0639  0.2667
 1006YOPC   GL214902  11.216   1.399   5.854 -0.0696  0.1018  0.1505
 1006YOPC   C1A14903  11.695   1.310   5.973 -0.4081 -0.0460 -0.0667
 1006YOPC   D2A14904  11.882   1.336   6.379  0.1603  0.0962  0.2740
 1006YOPC   C3A14905  12.204   0.978   6.541 -0.0103  0.1916  0.2916
 1006YOPC   C4A14906  12.509   0.567   6.466 -0.1888  0.0665 -0.0074
 1006YOPC   C1B14907  11.227   1.284   6.276 -0.0630  0.1135 -0.1421
 1006YOPC   C2B14908  11.012   1.108   6.653  0.1621 -0.3329  0.2535
 1006YOPC   D3B14909  11.377   1.069   6.853  0.0141  0.0428 -0.0867
 1006YOPC   C4B14910  11.798   1.167   6.886 -0.1382  0.0646  0.0463
 1007YOPC   NC314911  17.340   3.113   5.385 -0.0430 -0.0773  0.1828
 1007YOPC   PO414912  17.598   2.799   5.365  0.1130 -0.0005 -0.3133
 1007YOPC   GL114913  17.580   2.998   5.767 -0.1871 -0.1149 -0.2452
 1007YOPC   GL214914  17.780   3.347   5.726 -0.0713  0.0428  0.2344
 1007YOPC   C1A14915  17.471   2.930   6.191 -0.2956  0.1574  0.1760
 1007YOPC   D2A14916  17.467   2.909   6.603 -0.0739 -0.0095 -0.1635
 1007YOPC   C3A14917  17.595   3.143   7.011  0.0320  0.0716  0.2783
 1007YOPC   C4A14918  17.556   3.023   7.454  0.1545 -0.1831 -0.0504
 1007YOPC   C1B14919  17.651   3.352   6.127  0.3240 -0.0510 -0.1886
 1007YOPC   C2B14920  17.523   3.394   6.584  0.3229 -0.0475  0.1479
 1007YOPC   D3B14921  17.102   3.346   6.726 -0.1583 -0.3048  0.3095
 1007YOPC   C4B14922  17.041   3.189   7.032 -0.2132  0.2138  0.1484
 1008YOPC   NC314923   1.801  15.518   6.016  0.0168  0.2966 -0.1643
 1008YOPC   PO414924   2.021  15.179   5.952 -0.1596 -0.0555  0.0123
 1008YOPC   GL114925   2.282  15.046   6.246 -0.0330  0.0394  0.0845
 1008YOPC   GL214926   2.544  14.749   6.222 -0.2605  0.1455  0.1451
 1008YOPC   C1A14927   2.350  15.025   6.727  0.0280 -0.1472  0.1520
 1008YOPC   D2A14928   2.499  14.704   6.986 -0.0762  0.0758 -0.1451
 1008YOPC   C3A14929   2.384  14.780   7.403  0.0765 -0.0703 -0.1042
 1008YOPC   C4A14930   2.566  14.547   7.716  0.1644  0.0073 -0.2194
 1008YOPC   C1B14931   2.276  14.532   6.554 -0.1124  0.0257  0.2250
 1008YOPC   C2B14932   2.067  14.362   6.958 -0.0369 -0.0476  0.0930
 1008YOPC   D3B14933   1.619  14.492   7.032  0.2590  0.0721  0.1784
 1008YOPC   C4B14934   1.171  14.431   6.863 -0.2673  0.0637 -0.0275
 1009YOPC   NC314935   7.640  15.393   5.472  0.0169 -0.2604  0.2341
 1009YOPC   PO414936   7.876  15.290   5.798 -0.0739 -0.1144 -0.0725
 1009YOPC   GL114937   7.985  15.193   6.192  0.2654 -0.0087  0.4327
 1009YOPC   GL214938   7.875  14.878   6.171 -0.0295 -0.1278  0.1276
 1009YOPC   C1A14939   7.982  15.055   6.664  0.0712 -0.2469  0.0844
 1009YOPC   D2A14940   7.866  15.330   6.971 -0.0734  0.0959  0.0041
 1009YOPC   C3A14941   7.894  15.237   7.373  0.1909 -0.2980 -0.1237
 1009YOPC   C4A14942   7.831  14.990   7.795  0.2517 -0.0247 -0.1500
 1009YOPC   C1B14943   7.539  15.039   6.398  0.1721  0.0586 -0.1012
 1009YOPC   C2B14944   7.132  15.018   6.529 -0.1581  0.2008  0.0520
 1009YOPC   D3B14945   7.171  15.069   6.961 -0.1750  0.0069  0.0466
 1009YOPC   C4B14946   7.267  15.110   7.342  0.1200  0.0033 -0.1220
 1010YOPC   NC314947   7.897  10.661   6.246 -0.0818 -0.0631  0.4958
 1010YOPC   PO414948   8.134  10.893   5.955  0.0373 -0.2256  0.0681
 1010YOPC   GL114949   8.233  10.993   6.383 -0.1919 -0.1186  0.1303
 1010YOPC   GL214950   8.235  10.803   6.657 -0.0406 -0.0265 -0.1515
 1010YOPC   C1A14951   8.514  11.153   6.686 -0.2569 -0.0067  0.0423
 1010YOPC   D2A14952   8.407  11.414   7.013 -0.0371  0.0644 -0.2194
 1010YOPC   C3A14953   8.178  11.801   6.928 -0.1152 -0.0359  0.1968
 1010YOPC   C4A14954   7.883  12.024   6.602  0.0638 -0.0148  0.1592
 1010YOPC   C1B14955   8.207  10.867   7.031  0.1643 -0.2099 -0.2948
 1010YOPC   C2B14956   8.428  11.106   7.437 -0.2168 -0.2080 -0.0950
 1010YOPC   D3B14957   8.311  11.520   7.562  0.0952  0.3560 -0.2002
 1010YOPC   C4B14958   8.236  11.847   7.517  0.1877 -0.0367  0.2394
 1011YOPC   NC314959   2.972  17.587   5.751  0.0624 -0.1376  0.0298
 1011YOPC   PO414960   3.351  17.419   5.634 -0.1208 -0.0661  0.1112
 1011YOPC   GL114961   3.624  17.511   5.929  0.1784 -0.1542  0.1656
 1011YOPC   GL214962   3.432  17.420   6.140  0.1900 -0.0960  0.0015
 1011YOPC   C1A14963   3.913  17.622   6.294  0.0089  0.0883  0.0259
 1011YOPC   D2A14964   3.944  17.916   6.652 -0.2810 -0.0375  0.2112
 1011YOPC   C3A14965   4.256  17.812   6.917 -0.0475 -0.1225 -0.3708
 1011YOPC   C4A14966   4.692  18.019   6.818  0.0611  0.0703  0.2550
 1011YOPC   C1B14967   3.313  17.363   6.596 -0.1854  0.0286 -0.2602
 1011YOPC   C2B14968   3.335  17.343   7.023 -0.2952  0.2794 -0.0395
 1011YOPC   D3B14969   3.528  17.432   7.373 -0.1127  0.0795 -0.1745
 1011YOPC   C4B14970   3.727  17.692   7.598 -0.0774 -0.0540  0.0971
 1012YOPC   NC314971   4.952   1.278   6.135  0.0027 -0.0244  0.0307
 1012YOPC   PO414972   4.703   0.935   5.983 -0.1233 -0.1350 -0.0376
 1012YOPC   GL114973   4.528   1.112   6.415  0.1461  0.1900 -0.1008
 1012YOPC   GL214974   4.606   1.363   6.492 -0.1909 -0.1510  0.0270
 1012YOPC   C1A14975   4.266   0.916   6.740  0.0143 -0.0238 -0.0143
 1012YOPC   D2A14976   4.045   0.871   6.964 -0.2082  0.1321 -0.1908
 1012YOPC   C3A14977   4.086   0.900   7.423 -0.2503 -0.1254  0.2801
 1012YOPC   C4A14978   4.146   0.716   7.896 -0.0891 -0.3319 -0.0616
 1012YOPC   C1B14979   4.837   1.458   6.903 -0.1188  0.0107  0.1588
 1012YOPC   C2B14980   4.847   1.588   7.310  0.0572  0.0443  0.1005
 1012YOPC   D3B14981   4.700   1.491   7.573 -0.0535  0.0536  0.3317
 1012YOPC   C4B14982   4.413   1.141   7.735 -0.2990 -0.0978  0.3568
 1013YOPC   NC314983   4.915   3.445   5.371  0.0279  0.1145  0.0477
 1013YOPC   PO414984   4.942   3.494   5.859 -0.1101 -0.1907 -0.2145
 1013YOPC   GL114985   4.740   3.272   6.166 -0.4250 -0.0405 -0.2787
 1013YOPC   GL214986   4.428   3.399   6.141  0.1553  0.0589  0.1597
 1013YOPC   C1A14987   4.778   3.067   6.517  0.0847 -0.0170 -0.0361
 1013YOPC   D2A14988   4.626   2.736   6.717 -0.0484 -0.0555  0.1220
 1013YOPC   C3A14989   4.553   2.893   7.115  0.0097 -0.0309  0.1912
 1013YOPC   C4A14990   4.719   2.967   7.472  0.1731  0.1192 -0.2070
 1013YOPC   C1B14991   4.371   3.242   6.630 -0.1649 -0.2732  0.0825
 1013YOPC   C2B14992   4.058   2.953   6.709  0.3597 -0.0210  0.0475
 1013YOPC   D3B14993   4.025   2.774   7.121 -0.1459  0.0552 -0.0154
 1013YOPC   C4B14994   3.894   2.919   7.547 -0.3450  0.0307 -0.0651
 1014YOPC   NC314995   3.273  16.889   5.463 -0.1455 -0.0810 -0.0412
 1014YOPC   PO414996   3.211  16.582   5.887  0.0628  0.0780 -0.0273
 1014YOPC   GL114997   3.244  16.675   6.387 -0.0749 -0.0812 -0.0182
 1014YOPC   GL214998   3.405  16.878   6.390  0.2791  0.0401  0.4860
 1014YOPC   C1A14999   3.288  16.807   6.863 -0.0527 -0.0802  0.2582
 1014YOPC   D2A15000   3.409  16.859   7.235  0.1425  0.0024 -0.0643
 1014YOPC   C3A15001   3.750  16.701   7.355  0.1061  0.1140  0.0730
 1014YOPC   C4A15002   4.078  16.420   7.373  0.1388  0.0574  0.1066
 1014YOPC   C1B15003   3.799  17.200   6.534 -0.0043 -0.2384  0.1040
 1014YOPC   C2B15004   3.832  17.479   6.805  0.2820  0.0114 -0.2549
 1014YOPC   D3B15005   4.023  17.482   7.201  0.1603 -0.3821 -0.0661
 1014YOPC   C4B15006   4.315  17.365   7.391 -0.0330 -0.1960 -0.2440
 1015YOPC   NC315007  10.477   4.898   5.506 -0.0673  0.0139  0.0973
 1015YOPC   PO415008  10.177   5.211   5.347  0.1423  0.1893 -0.1430
 1015YOPC   GL115009  10.336   5.250   5.805 -0.0353 -0.2119 -0.1283
 1015YOPC   GL215010  10.045   5.170   5.941 -0.0168  0.0144  0.0809
 1015YOPC   C1A15011  10.305   4.938   6.252 -0.1743 -0.0469 -0.1751
 1015YOPC   D2A15012  10.201   4.605   6.555 -0.0661 -0.1290  0.0445
 1015YOPC   C3A15013  10.007   4.715   6.977 -0.1009 -0.1707 -0.1655
 1015YOPC   C4A15014   9.963   4.945   7.401  0.0236  0.1278 -0.1172
 1015YOPC   C1B15015   9.918   5.178   6.399 -0.2066  0.1079  0.0628
 1015YOPC   C2B15016   9.693   5.389   6.653 -0.2127 -0.3311  0.0801
 1015YOPC   D3B15017   9.602   5.240   7.155  0.1452  0.1892  0.2651
 1015YOPC   C4B15018   9.324   5.127   7.427 -0.2317 -0.0771  0.1385
 1016YOPC   NC315019   5.809   2.430   5.606 -0.3251 -0.0559  0.1860
 1016YOPC   PO415020   5.601   2.264   6.014 -0.1569 -0.1976 -0.1052
 1016YOPC   GL115021   5.833   2.439   6.393  0.0082  0.0793 -0.0582
 1016YOPC   GL215022   6.160   2.650   6.296 -0.0651 -0.3223  0.1239
 1016YOPC   C1A15023   5.984   2.414   6.779  0.2895  0.1230  0.5679
 1016YOPC   D2A15024   5.942   2.579   7.191  0.3726 -0.1129 -0.1331
 1016YOPC   C3A15025   6.136   2.422   7.514  0.1276  0.0212  0.2666
 1016YOPC   C4A15026   6.228   2.325   8.019  0.5464 -0.0429 -0.0836
 1016YOPC   C1B15027   6.450   2.667   6.693  0.1176  0.0722 -0.2525
 1016YOPC   C2B15028   6.414   2.633   7.169  0.0295  0.0663  0.0163
 1016YOPC   D3B15029   6.649   2.411   7.569  0.1668  0.1988  0.0273
 1016YOPC   C4B15030   6.683   2.144   7.957  0.1038 -0.1212  0.0930
 1017YOPC   NC315031   6.130  18.319   5.648  0.0141 -0.1222  0.4568
 1017YOPC   PO415032   6.580  18.402   5.836 -0.0806  0.1191 -0.5219
 1017YOPC   GL115033   6.560  18.504   6.303 -0.2448  0.2966  0.2062
 1017YOPC   GL215034   6.874  18.572   6.465 -0.1563  0.1629  0.0760
 1017YOPC   C1A15035   6.562  18.282   6.762 -0.3816  0.0034 -0.1722
 1017YOPC   D2A15036   6.544  18.386   7.197  0.4649  0.2387 -0.1043
 1017YOPC   C3A15037   6.576  18.791   7.274 -0.1604 -0.2756 -0.1468
 1017YOPC   C4A15038   6.413  19.126   7.573  0.2154  0.2994 -0.0869
 1017YOPC   C1B15039   6.948  18.556   6.944  0.2407  0.1037  0.0680
 1017YOPC   C2B15040   6.992  18.528   7.429 -0.1359  0.0369  0.2819
 1017YOPC   D3B15041   6.757  18.677   7.764 -0.0158  0.1127  0.2416
 1017YOPC   C4B15042   6.388  18.387   7.827  0.1564 -0.2399 -0.1115
 1018YOPC   NC315043   3.712   3.162   5.860  0.0514  0.1179  0.3280
 1018YOPC   PO415044   3.376   3.222   5.828 -0.0314 -0.0586 -0.0978
 1018YOPC   GL115045   3.071   3.317   6.241 -0.1633  0.2858  0.0387
 1018YOPC   GL215046   3.029   3.582   6.200  0.2157 -0.0963  0.0767
 1018YOPC   C1A15047   3.030   3.168   6.661 -0.1307 -0.0063 -0.0977
 1018YOPC   D2A15048   3.165   3.100   7.097 -0.0782 -0.1562 -0.1251
 1018YOPC   C3A15049   2.928   3.168   7.376 -0.0621 -0.1502 -0.1185
 1018YOPC   C4A15050   2.709   3.370   7.762 -0.0213  0.0016  0.1686
 1018YOPC   C1B15051   2.802   3.897   6.456  0.0359 -0.0878  0.0923
 1018YOPC   C2B15052   2.702   3.897   6.824 -0.2322  0.2231  0.2139
 1018YOPC   D3B15053   2.802   3.937   7.208  0.2760 -0.1671  0.0034
 1018YOPC   C4B15054   2.837   3.865   7.625  0.1171 -0.0484 -0.1242
 1019YOPC   NC315055   6.752   1.805   5.775  0.1639 -0.2238  0.0710
 1019YOPC   PO415056   6.689   2.283   6.022 -0.0951 -0.1790  0.0022
 1019YOPC   GL115057   6.849   2.308   6.506  0.0352  0.2068 -0.2479
 1019YOPC   GL215058   7.066   2.070   6.703 -0.2681  0.0356  0.1117
 1019YOPC   C1A15059   6.943   2.593   6.837 -0.2326  0.0734 -0.0703
 1019YOPC   D2A15060   6.901   2.717   7.206 -0.0050  0.2048 -0.0973
 1019YOPC   C3A15061   7.059   3.111   7.322 -0.2349 -0.0771 -0.1751
 1019YOPC   C4A15062   7.335   3.182   7.719 -0.0091  0.2271  0.1796
 1019YOPC   C1B15063   7.394   2.359   6.817  0.2647  0.1061  0.0459
 1019YOPC   C2B15064   7.447   2.753   6.920  0.3663 -0.3939 -0.0233
 1019YOPC   D3B15065   7.755   2.963   6.973 -0.0506  0.3474  0.3587
 1019YOPC   C4B15066   7.635   3.324   7.284 -0.2224 -0.0468 -0.1547
 1020YOPC   NC315067  11.553  15.687   6.132 -0.2683  0.3019  0.0412
 1020YOPC   PO415068  11.897  15.963   5.949 -0.2138 -0.0045  0.2912
 1020YOPC   GL115069  12.045  16.049   6.354 -0.1276 -0.0463  0.2625
 1020YOPC   GL215070  12.004  16.328   6.570  0.3798 -0.2269 -0.1202
 1020YOPC   C1A15071  12.327  15.837   6.619  0.1550  0.1202  0.1343
 1020YOPC   D2A15072  12.644  15.839   6.954 -0.1191 -0.2399  0.0589
 1020YOPC   C3A15073  12.659  15.910   7.320 -0.0185  0.0366  0.1893
 1020YOPC   C4A15074  12.902  15.912   7.645 -0.0077 -0.0987  0.1386
 1020YOPC   C1B15075  12.146  16.284   6.920 -0.0573  0.0323  0.2828
 1020YOPC   C2B15076  12.146  16.071   7.286 -0.3780  0.2525 -0.3782
 1020YOPC   D3B15077  12.387  16.195   7.643  0.1408 -0.1475 -0.1709
 1020YOPC   C4B15078  12.316  16.037   8.063  0.0607 -0.1414 -0.2184
 1021YOPC   NC315079   8.859   9.814   5.842 -0.2624  0.2299 -0.0781
 1021YOPC   PO415080   8.453   9.646   5.777  0.1470  0.1423  0.1624
 1021YOPC   GL115081   8.592   9.510   6.232 -0.1118  0.2738 -0.1349
 1021YOPC   GL215082   8.851   9.812   6.376 -0.2628 -0.1447 -0.1091
 1021YOPC   C1A15083   8.665   9.309   6.580 -0.0987  0.0904 -0.2167
 1021YOPC   D2A15084   8.771   9.270   7.058  0.0875 -0.0141  0.1617
 1021YOPC   C3A15085   8.696   9.590   7.304 -0.3370 -0.1035  0.0085
 1021YOPC   C4A15086   8.719   9.594   7.737  0.2670  0.1231  0.0556
 1021YOPC   C1B15087   8.951   9.713   6.915 -0.1662  0.1633  0.1696
 1021YOPC   C2B15088   9.168   9.677   7.337 -0.0354 -0.0644 -0.2804
 1021YOPC   D3B15089   9.298   9.404   7.697 -0.1454 -0.0511 -0.2471
 1021YOPC   C4B15090   9.313   9.642   8.167  0.0873  0.3684  0.0666
 1022YOPC   NC315091  13.560   4.718   5.434 -0.1139  0.2997  0.1330
 1022YOPC   PO415092  13.201   4.540   5.423  0.3142  0.2509  0.1576
 1022YOPC   GL115093  13.080   4.908   5.670  0.1370 -0.2349 -0.1672
 1022YOPC   GL215094  13.364   4.948   5.833 -0.1163 -0.0788  0.2445
 1022YOPC   C1A15095  13.015   5.210   6.091  0.1947 -0.0224 -0.0564
 1022YOPC   D2A15096  12.969   5.507   6.442  0.1082  0.0570  0.2420
 1022YOPC   C3A15097  13.306   5.569   6.797  0.0116  0.4393  0.0394
 1022YOPC   C4A15098  13.340   5.148   7.052  0.0242 -0.4902  0.1026
 1022YOPC   C1B15099  13.145   4.696   6.158  0.1849  0.2179 -0.1412
 1022YOPC   C2B15100  13.011   4.384   6.540  0.0247  0.1828 -0.1557
 1022YOPC   D3B15101  13.165   4.630   6.849  0.2092 -0.0366 -0.1163
 1022YOPC   C4B15102  13.437   4.657   7.309 -0.0850 -0.0620  0.0751
 1023YOPC   NC315103  12.193  13.825   6.054  0.0281 -0.4300  0.1259
 1023YOPC   PO415104  12.500  13.959   6.282 -0.1398  0.3223  0.0021
 1023YOPC   GL115105  12.455  14.069   6.677 -0.1403 -0.0435  0.2286
 1023YOPC   GL215106  12.271  14.380   6.606 -0.3493 -0.0237 -0.1435
 1023YOPC   C1A15107  12.471  13.997   7.115  0.1517 -0.1025 -0.0973
 1023YOPC   D2A15108  12.419  13.914   7.554  0.1016 -0.0637  0.2412
 1023YOPC   C3A15109  12.793  14.147   7.708  0.1999 -0.0074 -0.0007
 1023YOPC   C4A15110  13.082  14.494   7.783  0.1477  0.1096 -0.0209
 1023YOPC   C1B15111  12.276  14.425   7.055  0.0886 -0.1670 -0.0886
 1023YOPC   C2B15112  12.339  14.434   7.518  0.0184  0.0949 -0.4023
 1023YOPC   D3B15113  12.122  14.669   7.884  0.1899  0.1871  0.1768
 1023YOPC   C4B15114  11.729  14.876   8.157  0.0492  0.1048  0.1531
 1024YOPC   NC315115  14.120   3.405   4.845  0.0203  0.0277  0.2083
 1024YOPC   PO415116  14.113   3.357   5.263  0.0428 -0.0091  0.0082
 1024YOPC   GL115117  14.309   3.640   5.566 -0.2786  0.0279  0.1360
 1024YOPC   GL215118  14.368   3.453   5.883 -0.0022  0.1462  0.0742
 1024YOPC   C1A15119  14.416   4.024   5.866  0.1911  0.0719  0.1201
 1024YOPC   D2A15120  14.430   4.104   6.323  0.0008 -0.0743 -0.1146
 1024YOPC   C3A15121  14.395   3.846   6.691  0.0737  0.0889  0.0949
 1024YOPC   C4A15122  14.396   3.852   7.143  0.0842  0.0496  0.1491
 1024YOPC   C1B15123  14.474   3.520   6.324  0.1082 -0.1866  0.2501
 1024YOPC   C2B15124  14.878   3.587   6.541  0.2097 -0.1566  0.1154
 1024YOPC   D3B15125  15.033   3.368   6.987 -0.0083  0.0851 -0.1260
 1024YOPC   C4B15126  14.884   3.281   7.478  0.3001  0.0382 -0.0279
 1025YOPC   NC315127  15.647  14.715   5.534 -0.4364 -0.0087  0.1778
 1025YOPC   PO415128  15.911  14.421   5.613  0.1838 -0.3111  0.1353
 1025YOPC   GL115129  15.758  14.440   5.964  0.0060  0.1853 -0.1854
 1025YOPC   GL215130  15.375  14.607   5.905 -0.0760  0.2641 -0.0924
 1025YOPC   C1A15131  15.749  14.353   6.363  0.3598 -0.1019 -0.0363
 1025YOPC   D2A15132  15.694  14.137   6.823 -0.0417  0.1552  0.1266
 1025YOPC   C3A15133  15.864  14.436   7.144 -0.0730  0.1123  0.0254
 1025YOPC   C4A15134  15.620  14.449   7.497  0.0422 -0.0182  0.2819
 1025YOPC   C1B15135  15.557  14.821   6.302 -0.3723 -0.0642  0.1931
 1025YOPC   C2B15136  15.822  14.697   6.714  0.0651  0.2020 -0.2856
 1025YOPC   D3B15137  15.700  14.897   7.126 -0.0197 -0.0100 -0.1555
 1025YOPC   C4B15138  15.643  15.134   7.496 -0.1603 -0.1389 -0.0870
 1026YOPC   NC315139   3.352   2.001   5.610  0.0267 -0.0095 -0.0155
 1026YOPC   PO415140   3.142   2.140   6.031 -0.0434 -0.3501 -0.3363
 1026YOPC   GL115141   2.888   2.244   6.396  0.3579 -0.2784 -0.0067
 1026YOPC   GL215142   2.729   1.974   6.364 -0.0369  0.1157 -0.0578
 1026YOPC   C1A15143   2.747   2.328   6.707  0.2065  0.0243 -0.0410
 1026YOPC   D2A15144   2.307   2.453   6.816  0.0453 -0.0184 -0.0125
 1026YOPC   C3A15145   2.208   2.467   7.131 -0.1051  0.0506  0.0591
 1026YOPC   C4A15146   2.094   2.710   7.499  0.3750  0.0532 -0.0413
 1026YOPC   C1B15147   2.460   1.948   6.758  0.0297 -0.0012 -0.0582
 1026YOPC   C2B15148   2.182   1.955   7.146 -0.1665 -0.1131  0.0072
 1026YOPC   D3B15149   2.240   1.705   7.504 -0.1500 -0.0587 -0.1127
 1026YOPC   C4B15150   1.971   1.546   7.713  0.1929 -0.0773  0.1142
 1027YOPC   NC315151   3.568   4.268   5.741  0.1984 -0.0462  0.2323
 1027YOPC   PO415152   3.159   4.518   5.955 -0.1361  0.0682  0.4918
 1027YOPC   GL115153   2.998   4.666   6.310 -0.0183  0.1171  0.0976
 1027YOPC   GL215154   3.056   5.011   6.266 -0.2904 -0.2195 -0.3489
 1027YOPC   C1A15155   2.938   4.756   6.729  0.1950  0.2400  0.0298
 1027YOPC   D2A15156   3.055   4.644   7.241 -0.4099  0.0965  0.0070
 1027YOPC   C3A15157   2.734   4.371   7.466  0.0135  0.2065 -0.2152
 1027YOPC   C4A15158   2.450   4.235   7.757  0.2908  0.2320  0.2806
 1027YOPC   C1B15159   3.133   5.184   6.634  0.3785  0.0695 -0.2737
 1027YOPC   C2B15160   3.162   5.243   6.982 -0.3319 -0.2059  0.1599
 1027YOPC   D3B15161   2.969   5.162   7.285  0.0858  0.3482 -0.1922
 1027YOPC   C4B15162   3.057   5.165   7.712 -0.2247  0.0732  0.2578
 1028YOPC   NC315163  16.981  10.987   5.937  0.1138  0.0477  0.1444
 1028YOPC   PO415164  17.183  10.674   5.791  0.0291  0.2302 -0.3173
 1028YOPC   GL115165  17.153  10.677   6.269 -0.1124 -0.2237 -0.1374
 1028YOPC   GL215166  16.842  10.796   6.510  0.0602 -0.0652  0.0898
 1028YOPC   C1A15167  17.257  10.614   6.724 -0.1981  0.0880 -0.0237
 1028YOPC   D2A15168  17.025  10.503   6.984  0.0990  0.0707 -0.0168
 1028YOPC   C3A15169  16.953  10.288   7.432 -0.1342  0.1605 -0.1093
 1028YOPC   C4A15170  16.923   9.860   7.628  0.1417 -0.0535 -0.0768
 1028YOPC   C1B15171  16.603  10.722   6.924 -0.0567 -0.2056 -0.1181
 1028YOPC   C2B15172  16.466  10.451   7.215 -0.0322 -0.0518  0.0456
 1028YOPC   D3B15173  16.604  10.504   7.668  0.1103  0.0561  0.1054
 1028YOPC   C4B15174  16.440  10.325   7.991  0.2440 -0.0865 -0.2367
 1029YOPC   NC315175   3.061   0.221   5.832  0.0941  0.0948 -0.1301
 1029YOPC   PO415176   3.583   0.127   5.872 -0.0068 -0.0150  0.3302
 1029YOPC   GL115177   3.424  -0.070   6.139  0.2696 -0.1841 -0.0966
 1029YOPC   GL215178   3.203   0.182   6.290  0.0906  0.1322  0.0142
 1029YOPC   C1A15179   3.520  -0.419   6.368  0.1201  0.0285 -0.1016
 1029YOPC   D2A15180   3.454  -0.522   6.858  0.0532 -0.0077  0.0658
 1029YOPC   C3A15181   3.795  -0.399   7.147  0.2173 -0.1235  0.1275
 1029YOPC   C4A15182   4.202  -0.387   7.405  0.0860 -0.3464  0.2438
 1029YOPC   C1B15183   3.102   0.404   6.622 -0.1339  0.1427 -0.0597
 1029YOPC   C2B15184   2.947   0.518   7.013  0.0609  0.2534 -0.3522
 1029YOPC   D3B15185   2.601   0.834   7.060  0.0035 -0.2063  0.2929
 1029YOPC   C4B15186   2.615   1.248   7.195  0.1058  0.1244  0.3168
 1030YOPC   NC315187  12.628  12.155   5.799 -0.2470  0.4178 -0.2140
 1030YOPC   PO415188  12.296  12.348   5.679 -0.1739 -0.1513 -0.1160
 1030YOPC   GL115189  12.173  12.450   6.079  0.2141  0.0419  0.0495
 1030YOPC   GL215190  11.887  12.345   6.294  0.3404  0.1706 -0.3787
 1030YOPC   C1A15191  12.319  12.559   6.469 -0.0289 -0.1267 -0.6221
 1030YOPC   D2A15192  12.446  12.708   6.876 -0.0622 -0.0106  0.0558
 1030YOPC   C3A15193  12.684  12.445   7.215 -0.2348 -0.0820  0.2109
 1030YOPC   C4A15194  12.783  12.550   7.517  0.1334 -0.2377 -0.2047
 1030YOPC   C1B15195  11.850  12.276   6.725  0.0547  0.0956 -0.0378
 1030YOPC   C2B15196  12.026  12.531   7.022  0.0175  0.1113 -0.2621
 1030YOPC   D3B15197  11.811  12.691   7.342  0.1975  0.2944  0.1813
 1030YOPC   C4B15198  11.865  12.651   7.819 -0.1082  0.1345  0.2746
 1031YOPC   NC315199  12.394   8.338   5.136  0.2399  0.0595  0.1838
 1031YOPC   PO415200  12.107   8.280   5.522  0.0552  0.0427  0.1115
 1031YOPC   GL115201  12.005   8.126   5.977 -0.0009  0.2456 -0.0398
 1031YOPC   GL215202  11.958   7.807   5.898 -0.0533  0.1684  0.4063
 1031YOPC   C1A15203  11.793   7.937   6.303 -0.1346 -0.1713  0.1306
 1031YOPC   D2A15204  11.606   7.928   6.731 -0.0964  0.0381 -0.2226
 1031YOPC   C3A15205  11.385   7.727   7.111 -0.1051 -0.0891  0.0913
 1031YOPC   C4A15206  11.140   7.681   7.443  0.0368 -0.0705  0.0765
 1031YOPC   C1B15207  12.220   7.697   6.293 -0.1163  0.2205  0.3743
 1031YOPC   C2B15208  12.150   7.854   6.658 -0.1521 -0.0853  0.1336
 1031YOPC   D3B15209  12.352   7.882   7.099  0.0207  0.0705  0.0022
 1031YOPC   C4B15210  12.147   7.751   7.527  0.1474 -0.0123  0.2728
 1032YOPC   NC315211   0.792   5.920   5.261  0.0076  0.0052  0.1108
 1032YOPC   PO415212   0.565   6.292   5.497  0.1206  0.0690 -0.2737
 1032YOPC   GL115213   0.428   6.487   5.888  0.2727 -0.1487 -0.0465
 1032YOPC   GL215214   0.680   6.478   6.054  0.1772  0.2061  0.0928
 1032YOPC   C1A15215   0.219   6.272   6.189 -0.2730  0.1820 -0.2069
 1032YOPC   D2A15216  -0.187   6.255   6.393 -0.1064 -0.0752  0.2505
 1032YOPC   C3A15217  -0.082   6.056   6.760  0.3212 -0.0859 -0.3960
 1032YOPC   C4A15218  -0.088   5.976   7.003  0.0305  0.0987 -0.3034
 1032YOPC   C1B15219   0.605   6.444   6.456 -0.1015  0.0808  0.2068
 1032YOPC   C2B15220   0.454   6.633   6.803  0.2183 -0.1099 -0.1935
 1032YOPC   D3B15221   0.179   6.443   7.043 -0.4722 -0.0551 -0.1628
 1032YOPC   C4B15222   0.161   6.315   7.467  0.4929  0.0641  0.3376
 1033YOPC   NC315223   9.228  18.038   5.623  0.2210 -0.0738  0.1453
 1033YOPC   PO415224   9.658  18.206   5.715  0.1386 -0.4214 -0.0610
 1033YOPC   GL115225   9.481  18.263   6.118  0.0617  0.2069  0.0294
 1033YOPC   GL215226   9.627  18.446   6.259  0.0152 -0.1089  0.0919
 1033YOPC   C1A15227   9.047  18.194   6.290 -0.1425  0.0730 -0.0010
 1033YOPC   D2A15228   8.785  17.956   6.651  0.1357 -0.0406  0.0439
 1033YOPC   C3A15229   8.863  18.157   7.028  0.0692  0.0991  0.0273
 1033YOPC   C4A15230   8.788  18.252   7.421 -0.2230 -0.1451  0.1075
 1033YOPC   C1B15231   9.445  18.242   6.618  0.1004 -0.2250 -0.2549
 1033YOPC   C2B15232   9.362  18.288   7.086  0.0507 -0.1115  0.1805
 1033YOPC   D3B15233   9.209  17.948   7.412 -0.0473  0.1454  0.3025
 1033YOPC   C4B15234   8.862  17.796   7.697  0.2187 -0.0383  0.2504
 1034YOPC   NC315235   3.710   5.439   5.901 -0.1633 -0.1553 -0.1976
 1034YOPC   PO415236   3.454   5.175   5.990  0.0133 -0.0755  0.2421
 1034YOPC   GL115237   3.270   5.469   6.289 -0.0515  0.1356  0.0366
 1034YOPC   GL215238   2.929   5.554   6.210  0.3054  0.2935 -0.1016
 1034YOPC   C1A15239   3.102   5.703   6.669  0.0650 -0.1478 -0.1031
 1034YOPC   D2A15240   2.996   5.753   7.092  0.2406  0.0046  0.0590
 1034YOPC   C3A15241   3.181   5.640   7.424 -0.0294 -0.0036  0.0790
 1034YOPC   C4A15242   3.517   5.575   7.692 -0.0650  0.1868 -0.0932
 1034YOPC   C1B15243   2.702   5.378   6.619 -0.1756  0.1751  0.0938
 1034YOPC   C2B15244   2.597   5.452   7.016 -0.1487  0.1652 -0.1019
 1034YOPC   D3B15245   2.679   5.565   7.471  0.3271  0.0286  0.0273
 1034YOPC   C4B15246   3.011   5.593   7.950 -0.1323  0.0636  0.4424
 1035YOPC   NC315247  16.325   8.882   5.298 -0.0104  0.0856 -0.0165
 1035YOPC   PO415248  16.414   8.417   5.345 -0.1446 -0.2441 -0.1894
 1035YOPC   GL115249  16.229   8.460   5.777  0.0385 -0.0614  0.1218
 1035YOPC   GL215250  16.177   8.738   5.753 -0.1389  0.0884  0.0434
 1035YOPC   C1A15251  15.743   8.461   5.874 -0.2100 -0.2895 -0.1412
 1035YOPC   D2A15252  15.578   8.354   6.326  0.0999 -0.0818 -0.1777
 1035YOPC   C3A15253  15.558   8.298   6.669 -0.5134  0.1510 -0.1577
 1035YOPC   C4A15254  15.703   7.970   6.941 -0.0013 -0.2486 -0.0214
 1035YOPC   C1B15255  16.533   8.672   6.073  0.2074  0.1396  0.0412
 1035YOPC   C2B15256  16.533   8.627   6.456 -0.1378  0.1217  0.2418
 1035YOPC   D3B15257  16.261   8.772   6.737 -0.1552 -0.1715 -0.1505
 1035YOPC   C4B15258  16.257   8.793   7.119  0.1289 -0.0496 -0.0483
 1036YOPC   NC315259   6.517   6.423   6.131  0.0783 -0.1753 -0.0045
 1036YOPC   PO415260   6.701   6.771   6.159  0.0367 -0.1406 -0.2881
 1036YOPC   GL115261   6.844   6.659   6.501 -0.0325 -0.1000 -0.1862
 1036YOPC   GL215262   6.558   6.761   6.624 -0.1639 -0.0124  0.0166
 1036YOPC   C1A15263   6.975   6.840   6.882  0.1249 -0.1444 -0.3169
 1036YOPC   D2A15264   7.048   7.056   7.271 -0.1827  0.0153  0.0755
 1036YOPC   C3A15265   6.943   6.834   7.607 -0.0211 -0.0960  0.2528
 1036YOPC   C4A15266   6.887   7.006   8.007  0.2191 -0.2914  0.0579
 1036YOPC   C1B15267   6.388   6.651   7.009 -0.0108 -0.0071 -0.0219
 1036YOPC   C2B15268   6.349   6.669   7.423  0.0460  0.2236 -0.1372
 1036YOPC   D3B15269   6.078   6.721   7.738  0.1152 -0.0410  0.2908
 1036YOPC   C4B15270   5.921   7.061   8.060  0.1097  0.1630  0.1292
 1037YOPC   NC315271   9.538   7.683   5.307 -0.0768 -0.3316  0.1182
 1037YOPC   PO415272   9.939   7.884   5.325  0.1216  0.0779 -0.0314
 1037YOPC   GL115273  10.051   7.829   5.668 -0.1205  0.1543 -0.0691
 1037YOPC   GL215274  10.336   8.050   5.725 -0.4687  0.0796  0.0176
 1037YOPC   C1A15275   9.994   7.453   5.986  0.1921  0.3012  0.1952
 1037YOPC   D2A15276  10.146   7.431   6.373 -0.1473 -0.0924  0.0573
 1037YOPC   C3A15277  10.068   7.580   6.798 -0.3075  0.1224 -0.0810
 1037YOPC   C4A15278   9.742   7.389   7.012 -0.2245 -0.0115 -0.0459
 1037YOPC   C1B15279  10.275   7.932   6.169  0.0193  0.0372 -0.0886
 1037YOPC   C2B15280  10.572   7.737   6.432 -0.0994  0.1708  0.3133
 1037YOPC   D3B15281  10.547   7.763   6.818 -0.0453  0.0509 -0.4930
 1037YOPC   C4B15282  10.625   7.758   7.299 -0.0693 -0.1437  0.0569
 1038YOPC   NC315283   8.617   5.915   5.509 -0.0832 -0.1361 -0.1874
 1038YOPC   PO415284   8.504   6.280   5.777  0.0858 -0.1714  0.0796
 1038YOPC   GL115285   8.616   6.361   6.144  0.0873  0.0940  0.0644
 1038YOPC   GL215286   8.827   6.680   6.143 -0.0463 -0.1372 -0.1039
 1038YOPC   C1A15287   8.734   6.300   6.595  0.0530 -0.0281 -0.1138
 1038YOPC   D2A15288   8.754   6.518   7.019 -0.1901  0.1456 -0.0512
 1038YOPC   C3A15289   8.817   6.556   7.459  0.3431 -0.0287 -0.2728
 1038YOPC   C4A15290   8.759   6.866   7.800 -0.0001 -0.2128 -0.0589
 1038YOPC   C1B15291   9.104   6.407   6.185  0.1431  0.4512  0.4776
 1038YOPC   C2B15292   9.268   6.343   6.585  0.0078 -0.2160 -0.1482
 1038YOPC   D3B15293   9.229   6.700   6.876  0.0422 -0.1521 -0.1448
 1038YOPC   C4B15294   9.287   6.554   7.282 -0.0424  0.3526 -0.2724
 1039YOPC   NC315295   9.870   4.009   5.163  0.0482  0.0644  0.0601
 1039YOPC   PO415296   9.707   4.365   5.356  0.0340 -0.1616  0.0054
 1039YOPC   GL115297   9.619   4.501   5.676 -0.2070  0.0282  0.2919
 1039YOPC   GL215298   9.521   4.840   5.811 -0.0080 -0.0730 -0.3213
 1039YOPC   C1A15299   9.618   4.245   6.067 -0.2361 -0.2875  0.4543
 1039YOPC   D2A15300   9.475   4.209   6.449 -0.1530 -0.0429  0.0579
 1039YOPC   C3A15301   9.480   4.232   6.839  0.0808  0.1796 -0.2978
 1039YOPC   C4A15302   9.187   4.018   7.202 -0.0368  0.4366  0.2234
 1039YOPC   C1B15303   9.460   5.101   6.177 -0.0191 -0.2121 -0.1900
 1039YOPC   C2B15304   9.242   5.449   6.387 -0.7310  0.0950  0.3637
 1039YOPC   D3B15305   9.431   5.807   6.421 -0.0504 -0.0956 -0.0425
 1039YOPC   C4B15306   9.656   6.110   6.286 -0.0106 -0.0722  0.1440
 1040YOPC   NC315307  13.107  11.206   5.642  0.1258  0.0455 -0.1262
 1040YOPC   PO415308  12.776  11.456   5.812  0.3427 -0.0675  0.0385
 1040YOPC   GL115309  12.896  11.694   6.136 -0.4099  0.1369 -0.3444
 1040YOPC   GL215310  12.783  11.664   6.410 -0.0833  0.0342 -0.2490
 1040YOPC   C1A15311  13.065  12.093   6.403  0.0445 -0.1977 -0.0886
 1040YOPC   D2A15312  13.382  12.355   6.694 -0.4855  0.2664 -0.1322
 1040YOPC   C3A15313  13.177  12.444   7.154  0.1446  0.1937  0.1549
 1040YOPC   C4A15314  13.201  12.353   7.581 -0.1318  0.0631  0.0802
 1040YOPC   C1B15315  12.680  11.611   6.785 -0.1778 -0.0470  0.1942
 1040YOPC   C2B15316  12.731  11.504   7.195  0.1834 -0.0932 -0.1411
 1040YOPC   D3B15317  12.645  11.602   7.629 -0.2710  0.1520 -0.4189
 1040YOPC   C4B15318  12.989  11.635   8.048 -0.2747 -0.1818  0.3505
 1041YOPC   NC315319  16.044   5.283   5.575  0.1880  0.1628 -0.0370
 1041YOPC   PO415320  15.915   5.669   5.502 -0.1132  0.0453  0.0624
 1041YOPC   GL115321  15.836   6.078   5.791  0.0432  0.0558 -0.0742
 1041YOPC   GL215322  15.918   6.449   5.764  0.3963  0.0420  0.2683
 1041YOPC   C1A15323  15.811   6.109   6.169  0.2409 -0.0501  0.2432
 1041YOPC   D2A15324  15.808   5.950   6.675  0.2036 -0.0141 -0.0093
 1041YOPC   C3A15325  15.364   5.891   6.852  0.2064 -0.3248 -0.2544
 1041YOPC   C4A15326  15.007   6.088   7.083  0.1156  0.0093 -0.1938
 1041YOPC   C1B15327  16.036   6.630   6.127 -0.1245  0.1592 -0.1453
 1041YOPC   C2B15328  15.971   6.945   6.291  0.1596 -0.1982  0.2610
 1041YOPC   D3B15329  16.042   6.804   6.789  0.1435  0.0877 -0.0449
 1041YOPC   C4B15330  15.812   6.674   7.212  0.0209 -0.1391 -0.0319
 1042YOPC   NC315331   9.942  12.574   5.380  0.0534  0.2750 -0.0450
 1042YOPC   PO415332   9.957  12.621   5.872 -0.0279  0.2754  0.0976
 1042YOPC   GL115333   9.910  12.622   6.265 -0.0551 -0.0674 -0.0228
 1042YOPC   GL215334   9.664  12.706   6.368 -0.0458 -0.0750  0.0238
 1042YOPC   C1A15335  10.077  12.515   6.628  0.1863 -0.3896 -0.0592
 1042YOPC   D2A15336  10.132  12.432   7.002 -0.1201 -0.0014 -0.0718
 1042YOPC   C3A15337  10.133  12.523   7.448  0.0897  0.1788 -0.1623
 1042YOPC   C4A15338  10.169  12.716   7.890  0.1797  0.1483  0.1692
 1042YOPC   C1B15339   9.698  12.697   6.880 -0.1501 -0.2518 -0.3090
 1042YOPC   C2B15340   9.694  12.684   7.365  0.1653  0.0393  0.0864
 1042YOPC   D3B15341   9.847  13.030   7.613  0.2355 -0.1281 -0.0870
 1042YOPC   C4B15342  10.129  13.274   7.962  0.0430 -0.0104 -0.0811
 1043YOPC   NC315343   8.040   5.927   5.824  0.1685  0.0642  0.0606
 1043YOPC   PO415344   7.732   5.802   5.995 -0.1980 -0.0028  0.1341
 1043YOPC   GL115345   7.788   5.948   6.386  0.0627  0.4491 -0.2766
 1043YOPC   GL215346   7.469   6.116   6.473  0.1453 -0.0035 -0.4825
 1043YOPC   C1A15347   8.008   6.087   6.664 -0.1363 -0.0727  0.0328
 1043YOPC   D2A15348   8.296   6.276   6.837 -0.2556  0.0855  0.0408
 1043YOPC   C3A15349   8.372   6.232   7.274 -0.2383 -0.2216  0.1893
 1043YOPC   C4A15350   8.299   5.887   7.704 -0.0171 -0.3715  0.0413
 1043YOPC   C1B15351   7.583   5.954   6.884 -0.1567  0.0396  0.3716
 1043YOPC   C2B15352   7.421   5.818   7.377 -0.1127 -0.0241 -0.0956
 1043YOPC   D3B15353   7.231   6.233   7.674 -0.1593 -0.1863  0.1026
 1043YOPC   C4B15354   7.185   6.564   8.041 -0.4044 -0.1980  0.2642
 1044YOPC   NC315355   6.436   1.812   6.106 -0.1257 -0.0306 -0.0262
 1044YOPC   PO415356   6.000   1.638   6.056 -0.2728 -0.0985 -0.0619
 1044YOPC   GL115357   6.046   1.933   6.395 -0.0245  0.0168 -0.1391
 1044YOPC   GL215358   6.366   2.176   6.441 -0.0646 -0.0480  0.0188
 1044YOPC   C1A15359   5.873   1.882   6.782  0.0580  0.1794  0.2066
 1044YOPC   D2A15360   5.956   1.995   7.126 -0.1681  0.1091 -0.0953
 1044YOPC   C3A15361   5.959   1.890   7.524 -0.0323  0.1674  0.0478
 1044YOPC   C4A15362   5.760   1.990   7.811  0.0069  0.2587  0.0627
 1044YOPC   C1B15363   6.398   2.198   6.862 -0.0081  0.3463 -0.4052
 1044YOPC   C2B15364   6.398   2.099   7.221 -0.0030  0.6616  0.1591
 1044YOPC   D3B15365   6.534   1.890   7.562 -0.0305 -0.1289 -0.1029
 1044YOPC   C4B15366   6.680   1.607   7.724 -0.0289 -0.1020 -0.2873
 1045YOPC   NC315367  11.091   2.505   5.329  0.1093 -0.0736  0.1949
 1045YOPC   PO415368  11.058   2.108   5.370 -0.1347  0.0882  0.0068
 1045YOPC   GL115369  11.388   2.253   5.708 -0.0604  0.1299 -0.0510
 1045YOPC   GL215370  11.330   2.587   5.783 -0.2318  0.3039 -0.2621
 1045YOPC   C1A15371  11.684   2.345   6.115 -0.0825 -0.0302  0.0645
 1045YOPC   D2A15372  11.920   2.747   6.336  0.0880 -0.2584 -0.1467
 1045YOPC   C3A15373  12.231   2.785   6.712 -0.1735 -0.0033  0.1269
 1045YOPC   C4A15374  12.285   2.514   7.040 -0.1001 -0.1003 -0.0162
 1045YOPC   C1B15375  11.195   2.314   6.263  0.2204 -0.1794  0.1846
 1045YOPC   C2B15376  10.878   2.534   6.470 -0.3269  0.4255 -0.1265
 1045YOPC   D3B15377  10.971   2.692   6.877 -0.2110  0.2008  0.0612
 1045YOPC   C4B15378  10.869   2.688   7.321 -0.2498  0.2269  0.3117
 1046YOPC   NC315379  17.181  14.510   5.992 -0.0088  0.0456 -0.1150
 1046YOPC   PO415380  17.543  14.753   6.005 -0.2500 -0.0121 -0.0080
 1046YOPC   GL115381  17.461  14.705   6.372 -0.0425  0.4120 -0.0007
 1046YOPC   GL215382  17.194  14.545   6.527 -0.2734 -0.0965  0.1769
 1046YOPC   C1A15383  17.667  14.467   6.744 -0.1164  0.1033  0.3271
 1046YOPC   D2A15384  17.729  14.488   7.207  0.0653  0.0616 -0.0485
 1046YOPC   C3A15385  17.426  14.628   7.465 -0.0062  0.0206  0.0907
 1046YOPC   C4A15386  17.075  14.832   7.365 -0.1127 -0.0333  0.1926
 1046YOPC   C1B15387  17.310  14.770   6.897  0.1377 -0.0831  0.1577
 1046YOPC   C2B15388  17.676  14.927   7.037  0.1198 -0.2509 -0.1268
 1046YOPC   D3B15389  17.838  15.001   7.469 -0.0183  0.1663  0.0681
 1046YOPC   C4B15390  17.951  15.088   7.982  0.0315  0.0908  0.0539
 1047YOPC   NC315391   5.538  17.522   5.741  0.0443  0.0523  0.0694
 1047YOPC   PO415392   5.098  17.296   5.829 -0.0667 -0.1251 -0.0728
 1047YOPC   GL115393   4.805  17.504   6.148  0.0806  0.1569 -0.1614
 1047YOPC   GL215394   4.748  17.798   6.112 -0.1946  0.0287  0.1598
 1047YOPC   C1A15395   4.735  17.566   6.629  0.0010  0.0356  0.1991
 1047YOPC   D2A15396   4.727  17.493   6.952  0.2921  0.1388  0.0594
 1047YOPC   C3A15397   4.658  17.768   7.239 -0.0247 -0.1347  0.0750
 1047YOPC   C4A15398   5.101  17.847   7.354  0.0486  0.1340 -0.3006
 1047YOPC   C1B15399   4.988  17.957   6.421  0.0087 -0.2538  0.0017
 1047YOPC   C2B15400   5.221  17.833   6.797  0.0257  0.0157 -0.2101
 1047YOPC   D3B15401   5.441  18.227   7.045  0.3199 -0.2131  0.3697
 1047YOPC   C4B15402   5.750  18.372   7.468  0.1476 -0.4599  0.0244
 1048YOPC   NC315403   8.792   8.094   5.139  0.1161  0.2657 -0.0622
 1048YOPC   PO415404   9.023   7.868   5.490  0.0834  0.0542 -0.0272
 1048YOPC   GL115405   9.107   7.961   5.884 -0.0397 -0.0632 -0.2630
 1048YOPC   GL215406   8.881   7.896   6.166  0.0190  0.1297 -0.3606
 1048YOPC   C1A15407   9.268   8.233   6.084 -0.1785 -0.0163  0.0056
 1048YOPC   D2A15408   9.452   8.336   6.470 -0.0188 -0.2463 -0.0548
 1048YOPC   C3A15409   9.684   8.110   6.761  0.1868 -0.2463  0.0234
 1048YOPC   C4A15410  10.134   8.064   6.744 -0.0304  0.1066  0.0833
 1048YOPC   C1B15411   9.223   7.859   6.475 -0.1369  0.2542 -0.1065
 1048YOPC   C2B15412   9.390   7.671   6.852  0.0106 -0.1509  0.0831
 1048YOPC   D3B15413   9.535   7.805   7.161  0.1096  0.0651 -0.0745
 1048YOPC   C4B15414   9.587   7.928   7.594 -0.0531 -0.2453 -0.0060
 1049YOPC   NC315415   3.434   8.769   6.089 -0.3643  0.3202  0.4134
 1049YOPC   PO415416   3.359   9.217   5.962  0.1612 -0.2896 -0.3702
 1049YOPC   GL115417   3.593   9.349   6.236  0.2397 -0.2251  0.0480
 1049YOPC   GL215418   3.407   9.654   6.231  0.0696  0.0457 -0.0268
 1049YOPC   C1A15419   3.830   9.406   6.641  0.0905  0.0783  0.0224
 1049YOPC   D2A15420   4.010   9.221   6.889  0.0732  0.0099 -0.2694
 1049YOPC   C3A15421   3.984   9.402   7.284 -0.2806 -0.0714  0.2089
 1049YOPC   C4A15422   3.839   9.688   7.605 -0.0282  0.0954  0.3161
 1049YOPC   C1B15423   3.386   9.597   6.640 -0.0595 -0.0560  0.0667
 1049YOPC   C2B15424   3.244   9.430   7.028  0.0087 -0.1892 -0.1840
 1049YOPC   D3B15425   3.514   9.297   7.329 -0.0523 -0.1084 -0.1062
 1049YOPC   C4B15426   3.724   9.205   7.688  0.0861  0.0427  0.0791
 1050YOPC   NC315427  16.522   3.426   5.466 -0.1035 -0.0713  0.1257
 1050YOPC   PO415428  16.900   3.300   5.418  0.0858 -0.1602 -0.0431
 1050YOPC   GL115429  16.882   3.156   5.799  0.0555 -0.0905  0.0473
 1050YOPC   GL215430  17.148   3.240   5.863 -0.2913  0.0798 -0.0609
 1050YOPC   C1A15431  16.643   2.942   5.956 -0.2560 -0.0835 -0.2075
 1050YOPC   D2A15432  16.660   2.520   6.129  0.0869 -0.0557 -0.0116
 1050YOPC   C3A15433  16.968   2.515   6.482  0.0845 -0.1049  0.0564
 1050YOPC   C4A15434  17.228   2.487   6.816  0.4092  0.1314  0.0557
 1050YOPC   C1B15435  17.165   3.491   6.225  0.0970  0.0116 -0.2114
 1050YOPC   C2B15436  17.192   3.813   6.540  0.1002 -0.2089 -0.2002
 1050YOPC   D3B15437  17.187   3.774   7.013  0.2642 -0.3132  0.0720
 1050YOPC   C4B15438  17.220   3.522   7.401 -0.0388  0.2553 -0.0932
 1051YOPC   NC315439   6.319  18.034   6.036  0.0864 -0.3670 -0.0332
 1051YOPC   PO415440   5.825  18.012   5.933 -0.1738 -0.0391  0.0492
 1051YOPC   GL115441   5.872  17.986   6.329 -0.0938 -0.0143 -0.2445
 1051YOPC   GL215442   5.741  17.736   6.446  0.1976 -0.2134  0.1287
 1051YOPC   C1A15443   6.092  18.132   6.732  0.0819  0.3018 -0.0952
 1051YOPC   D2A15444   6.018  18.236   7.122 -0.0456  0.2801 -0.0450
 1051YOPC   C3A15445   6.208  18.111   7.483 -0.2098 -0.0103  0.0514
 1051YOPC   C4A15446   6.299  17.737   7.677  0.0277 -0.0404 -0.1548
 1051YOPC   C1B15447   5.736  17.857   6.858 -0.0337 -0.0708 -0.0329
 1051YOPC   C2B15448   5.536  17.725   7.259  0.0210 -0.2204 -0.2906
 1051YOPC   D3B15449   5.769  17.645   7.599  0.0088 -0.1807  0.0372
 1051YOPC   C4B15450   5.918  17.406   7.916  0.1956  0.1534 -0.1221
 1052YOPC   NC315451  16.992  17.017   5.890  0.0247  0.0732 -0.0158
 1052YOPC   PO415452  17.267  16.799   5.861 -0.2276  0.2889 -0.3104
 1052YOPC   GL115453  17.282  16.756   6.242 -0.0416  0.1534 -0.0397
 1052YOPC   GL215454  16.977  16.765   6.341 -0.2385 -0.1031  0.1182
 1052YOPC   C1A15455  17.539  16.507   6.387  0.0842  0.1068  0.3115
 1052YOPC   D2A15456  17.862  16.193   6.282 -0.1608  0.0967 -0.0183
 1052YOPC   C3A15457  18.245  16.128   6.272  0.0467  0.0383 -0.0641
 1052YOPC   C4A15458  18.660  16.043   6.362  0.0167 -0.0926  0.0384
 1052YOPC   C1B15459  17.195  16.865   6.727 -0.0617 -0.1945 -0.0617
 1052YOPC   C2B15460  17.480  16.689   6.940 -0.0170  0.1318  0.2064
 1052YOPC   D3B15461  17.387  16.811   7.348 -0.0587 -0.2912  0.2117
 1052YOPC   C4B15462  16.975  16.847   7.569  0.0154  0.1357 -0.2251
 1053YOPC   NC315463  13.973  10.412   5.217 -0.1971  0.0847 -0.3608
 1053YOPC   PO415464  13.583  10.590   5.552  0.1452  0.0074 -0.0601
 1053YOPC   GL115465  13.667  10.445   5.929 -0.2023 -0.0869 -0.0950
 1053YOPC   GL215466  13.404  10.223   5.959 -0.0402  0.1989  0.0986
 1053YOPC   C1A15467  13.577  10.280   6.395  0.0086  0.0479 -0.4174
 1053YOPC   D2A15468  13.435  10.410   6.733 -0.0104 -0.0118 -0.1441
 1053YOPC   C3A15469  13.544  10.630   7.062 -0.0341  0.0171  0.1376
 1053YOPC   C4A15470  13.668  10.774   7.567  0.0273 -0.1766 -0.1793
 1053YOPC   C1B15471  13.077  10.301   6.365 -0.0563 -0.0356  0.1410
 1053YOPC   C2B15472  12.844  10.192   6.652 -0.3194  0.2111  0.3260
 1053YOPC   D3B15473  13.048  10.110   6.958 -0.1029 -0.3334 -0.2480
 1053YOPC   C4B15474  13.117  10.002   7.362 -0.0706 -0.0002  0.2268
 1054YOPC   NC315475  13.366  11.253   4.966 -0.1976 -0.0562  0.3166
 1054YOPC   PO415476  13.509  11.210   5.396  0.0708 -0.2958  0.2209
 1054YOPC   GL115477  13.653  11.049   5.856  0.0348  0.0554  0.0537
 1054YOPC   GL215478  13.512  11.225   6.055  0.0908  0.0099 -0.1270
 1054YOPC   C1A15479  13.939  10.868   6.116  0.1698 -0.1068  0.0519
 1054YOPC   D2A15480  14.009  10.608   6.435 -0.1242 -0.0518 -0.1695
 1054YOPC   C3A15481  13.924  10.340   6.839 -0.3752  0.0233 -0.3048
 1054YOPC   C4A15482  13.616  10.088   7.199 -0.4032  0.1409  0.1430
 1054YOPC   C1B15483  13.434  11.415   6.466 -0.0302 -0.0348  0.3052
 1054YOPC   C2B15484  13.232  11.668   6.680 -0.0901 -0.2012  0.1226
 1054YOPC   D3B15485  13.417  11.985   7.011  0.0472  0.2430  0.1121
 1054YOPC   C4B15486  13.901  12.012   7.113 -0.0432 -0.3642  0.2552
 1055YOPC   NC315487  10.057  17.372   5.689 -0.0304  0.4352 -0.2917
 1055YOPC   PO415488  10.265  17.574   6.016 -0.0812 -0.0144  0.3572
 1055YOPC   GL115489  10.283  17.645   6.441 -0.0702  0.1427 -0.0550
 1055YOPC   GL215490  10.519  17.922   6.482 -0.2122 -0.2129 -0.1850
 1055YOPC   C1A15491  10.180  17.571   6.809  0.1222  0.0752  0.1966
 1055YOPC   D2A15492  10.347  17.572   7.216 -0.0068  0.1075  0.0621
 1055YOPC   C3A15493  10.089  17.479   7.521 -0.0587 -0.1508 -0.1789
 1055YOPC   C4A15494   9.711  17.334   7.646  0.2416 -0.1638  0.1790
 1055YOPC   C1B15495  10.469  18.018   6.907 -0.0599 -0.0857 -0.0009
 1055YOPC   C2B15496  10.145  17.982   7.242  0.1203  0.1800 -0.0821
 1055YOPC   D3B15497  10.113  17.970   7.687  0.0507  0.2897 -0.1497
 1055YOPC   C4B15498   9.737  18.075   7.973 -0.0420  0.3512 -0.1403
 1056YOPC   NC315499   3.972   1.535   6.015 -0.2239 -0.3730  0.0298
 1056YOPC   PO415500   3.650   1.345   5.999 -0.2383 -0.2799  0.0885
 1056YOPC   GL115501   3.556   1.524   6.428 -0.0419 -0.0077 -0.1271
 1056YOPC   GL215502   3.708   1.785   6.460  0.0109  0.1644  0.2774
 1056YOPC   C1A15503   3.350   1.496   6.813 -0.4178  0.1329 -0.1226
 1056YOPC   D2A15504   3.076   1.433   7.193  0.0774  0.1412 -0.0386
 1056YOPC   C3A15505   3.268   1.615   7.493  0.0307  0.1079  0.1796
 1056YOPC   C4A15506   3.493   1.559   7.918 -0.0569  0.0772  0.0818
 1056YOPC   C1B15507   3.758   1.744   6.903 -0.1004 -0.0411  0.1241
 1056YOPC   C2B15508   3.734   1.764   7.369 -0.1424  0.2527 -0.0141
 1056YOPC   D3B15509   3.788   1.910   7.773 -0.2972  0.3430  0.3260
 1056YOPC   C4B15510   3.805   2.056   8.184  0.0225  0.1290  0.0951
 1057YOPC   NC315511   2.312   1.570   5.671 -0.2329  0.1495 -0.3165
 1057YOPC   PO415512   2.240   1.241   5.843 -0.0681  0.3745 -0.3111
 1057YOPC   GL115513   2.011   1.359   6.133  0.1552 -0.0937 -0.0140
 1057YOPC   GL215514   1.926   1.589   6.123  0.0697 -0.1644 -0.0626
 1057YOPC   C1A15515   1.930   1.169   6.497  0.2013  0.0177  0.0392
 1057YOPC   D2A15516   2.167   0.955   6.791  0.0066 -0.3749 -0.0530
 1057YOPC   C3A15517   2.128   0.766   7.120 -0.2993 -0.1791 -0.1292
 1057YOPC   C4A15518   2.087   0.697   7.589 -0.2517  0.1119  0.3475
 1057YOPC   C1B15519   1.584   1.664   6.422 -0.1662 -0.4691 -0.1943
 1057YOPC   C2B15520   1.128   1.549   6.516 -0.1331  0.0078 -0.0717
 1057YOPC   D3B15521   1.060   1.188   6.950 -0.1429 -0.0123  0.3153
 1057YOPC   C4B15522   1.204   0.823   7.095 -0.2228  0.1014 -0.0492
 1058YOPC   NC315523   0.430   1.972   5.686 -0.0626  0.1946 -0.1349
 1058YOPC   PO415524   0.118   1.617   5.649 -0.1852 -0.0275  0.0367
 1058YOPC   GL115525   0.127   1.398   6.042  0.2370 -0.0678 -0.1729
 1058YOPC   GL215526   0.191   1.048   5.868  0.1343 -0.2974  0.1407
 1058YOPC   C1A15527   0.071   1.309   6.524 -0.1662 -0.0438 -0.3459
 1058YOPC   D2A15528   0.155   0.989   6.878  0.1777 -0.0635 -0.0168
 1058YOPC   C3A15529   0.125   1.142   7.216  0.2536  0.1001  0.0338
 1058YOPC   C4A15530   0.299   1.087   7.498 -0.0549  0.1307 -0.2193
 1058YOPC   C1B15531   0.015   0.855   6.200  0.1220  0.1343 -0.0360
 1058YOPC   C2B15532  -0.167   0.688   6.578  0.1086  0.3922  0.0441
 1058YOPC   D3B15533  -0.282   0.765   6.933 -0.1989  0.1967  0.3261
 1058YOPC   C4B15534  -0.367   0.966   7.371 -0.2547 -0.3942  0.0859
 1059YOPC   NC315535  13.556  12.042   5.532 -0.0745 -0.0652 -0.0277
 1059YOPC   PO415536  13.829  12.269   5.541  0.0751 -0.0937  0.1211
 1059YOPC   GL115537  13.910  12.393   5.945  0.0543  0.2587  0.1248
 1059YOPC   GL215538  14.159  12.186   6.235  0.0047 -0.0940  0.0055
 1059YOPC   C1A15539  13.766  12.464   6.388  0.1310 -0.0570  0.1227
 1059YOPC   D2A15540  13.795  12.648   6.631 -0.1613  0.3339 -0.2556
 1059YOPC   C3A15541  13.709  12.492   7.091 -0.1317  0.1182 -0.0082
 1059YOPC   C4A15542  13.555  12.721   7.471  0.0544 -0.1538 -0.0330
 1059YOPC   C1B15543  14.152  11.787   6.516 -0.2540  0.1052 -0.0023
 1059YOPC   C2B15544  14.131  11.605   6.964  0.1253 -0.0372 -0.1602
 1059YOPC   D3B15545  14.285  11.706   7.370  0.0770  0.2339  0.3996
 1059YOPC   C4B15546  14.602  11.853   7.770 -0.0909  0.2369 -0.1332
 1060YOPC   NC315547  17.289   2.385   5.453 -0.2020  0.0122 -0.2514
 1060YOPC   PO415548  16.909   2.061   5.416  0.3379 -0.0410  0.2023
 1060YOPC   GL115549  16.969   2.244   5.829 -0.0257 -0.1495  0.3184
 1060YOPC   GL215550  17.196   2.145   6.075 -0.0670  0.2183 -0.0258
 1060YOPC   C1A15551  17.096   2.714   5.981  0.0216 -0.0024  0.1102
 1060YOPC   D2A15552  17.023   2.996   6.301 -0.2752  0.0378 -0.0814
 1060YOPC   C3A15553  16.799   2.933   6.624 -0.1470  0.3065  0.2289
 1060YOPC   C4A15554  16.505   2.999   7.004 -0.2368 -0.1164  0.2390
 1060YOPC   C1B15555  17.510   2.331   6.379 -0.0400  0.0937 -0.1473
 1060YOPC   C2B15556  17.716   2.464   6.732  0.1425  0.1344  0.2016
 1060YOPC   D3B15557  17.647   2.467   7.113 -0.3211 -0.2498  0.0037
 1060YOPC   C4B15558  17.683   2.158   7.478  0.1284 -0.1315  0.0333
 1061YOPC   NC315559  10.480  13.368   5.792  0.2844  0.0845  0.0544
 1061YOPC   PO415560  10.587  13.004   5.893 -0.3413 -0.2351  0.1212
 1061YOPC   GL115561  10.789  13.134   6.250 -0.0511  0.3517  0.1728
 1061YOPC   GL215562  10.969  12.830   6.376 -0.3571  0.0353 -0.1257
 1061YOPC   C1A15563  10.890  13.165   6.667  0.2233 -0.0733 -0.1831
 1061YOPC   D2A15564  10.966  13.195   7.069  0.0012  0.2552  0.0940
 1061YOPC   C3A15565  10.927  13.530   7.398 -0.0110  0.1615  0.0385
 1061YOPC   C4A15566  11.306  13.812   7.517 -0.0634 -0.2165 -0.1172
 1061YOPC   C1B15567  10.939  12.720   6.841 -0.0978 -0.0817  0.3509
 1061YOPC   C2B15568  11.101  12.655   7.381  0.0175 -0.2257 -0.1005
 1061YOPC   D3B15569  10.955  12.983   7.759  0.0771  0.0234 -0.0835
 1061YOPC   C4B15570  11.190  12.971   8.097 -0.0722  0.0165  0.2367
 1062YOPC   NC315571  17.079   3.812   5.417 -0.1606 -0.2430  0.0800
 1062YOPC   PO415572  17.417   3.608   5.504  0.1725  0.1413  0.0649
 1062YOPC   GL115573  17.211   3.846   5.911  0.0516  0.1047  0.1251
 1062YOPC   GL215574  17.631   3.875   5.936  0.1060 -0.3469  0.0313
 1062YOPC   C1A15575  16.904   4.022   6.212  0.0470  0.0338 -0.1421
 1062YOPC   D2A15576  16.775   4.051   6.737  0.1749  0.3003 -0.0913
 1062YOPC   C3A15577  16.373   3.974   7.029  0.0651  0.2721 -0.0276
 1062YOPC   C4A15578  16.075   3.812   6.791 -0.1880  0.0398 -0.1206
 1062YOPC   C1B15579  17.691   3.969   6.343  0.0673 -0.1098 -0.1872
 1062YOPC   C2B15580  17.775   3.986   6.801  0.0076  0.0386 -0.0416
 1062YOPC   D3B15581  17.692   3.682   6.985 -0.0170 -0.0426  0.1551
 1062YOPC   C4B15582  17.813   3.490   7.344 -0.1221 -0.1148  0.0164
 1063YOPC   NC315583  17.564  16.782   5.502 -0.0178 -0.2994  0.2259
 1063YOPC   PO415584  17.579  17.157   5.712  0.1580  0.2442  0.1519
 1063YOPC   GL115585  17.521  17.180   6.131  0.2684 -0.2069 -0.0115
 1063YOPC   GL215586  17.599  17.540   6.235  0.3173  0.2939 -0.0776
 1063YOPC   C1A15587  17.659  17.114   6.597  0.0683  0.1067  0.1186
 1063YOPC   D2A15588  17.746  17.076   7.091  0.2731  0.0459  0.1361
 1063YOPC   C3A15589  17.867  17.273   7.376 -0.0115  0.0523 -0.0792
 1063YOPC   C4A15590  17.922  17.169   7.841  0.1567 -0.0729  0.2084
 1063YOPC   C1B15591  17.671  17.620   6.718 -0.3338 -0.1102 -0.1616
 1063YOPC   C2B15592  17.911  18.043   6.974  0.3868 -0.1733 -0.2161
 1063YOPC   D3B15593  17.950  18.220   7.316 -0.0663  0.0524  0.2421
 1063YOPC   C4B15594  17.914  18.418   7.790 -0.3259 -0.0176 -0.1340
 1064YOPC   NC315595   1.442   8.120   6.182  0.1870  0.2897 -0.1063
 1064YOPC   PO415596   1.069   8.140   6.167 -0.2747  0.0362 -0.0609
 1064YOPC   GL115597   1.067   7.986   6.612 -0.3181  0.1734  0.0165
 1064YOPC   GL215598   1.318   8.130   6.769  0.0708  0.1744 -0.1986
 1064YOPC   C1A15599   0.851   7.761   6.887 -0.0269 -0.0808 -0.0462
 1064YOPC   D2A15600   0.478   7.684   7.011 -0.0093  0.1091  0.1442
 1064YOPC   C3A15601   0.434   7.350   7.307  0.1224 -0.1747  0.3068
 1064YOPC   C4A15602   0.526   7.086   7.582 -0.0719  0.0113  0.0723
 1064YOPC   C1B15603   1.417   8.005   7.209  0.3038 -0.1177  0.3562
 1064YOPC   C2B15604   1.655   7.943   7.574  0.1801 -0.2261  0.0005
 1064YOPC   D3B15605   1.708   8.271   7.899 -0.0941  0.2531 -0.0404
 1064YOPC   C4B15606   1.476   8.507   8.141 -0.0910  0.0190  0.1173
 1065YOPC   NC315607  17.066   7.734   5.408 -0.2940  0.1022  0.0843
 1065YOPC   PO415608  16.744   7.758   5.073  0.2327 -0.1903  0.0178
 1065YOPC   GL115609  16.617   7.950   5.492  0.2596 -0.0199 -0.0202
 1065YOPC   GL215610  16.758   8.247   5.749 -0.1526 -0.0088  0.3209
 1065YOPC   C1A15611  16.466   7.788   5.864 -0.1140 -0.0054 -0.0632
 1065YOPC   D2A15612  16.389   7.711   6.212  0.0957  0.0173  0.0888
 1065YOPC   C3A15613  16.126   7.779   6.609  0.0644  0.0066  0.1542
 1065YOPC   C4A15614  16.175   7.712   6.992  0.0373 -0.0190 -0.0723
 1065YOPC   C1B15615  16.538   8.193   6.223 -0.0356 -0.1715  0.3578
 1065YOPC   C2B15616  16.491   8.163   6.638 -0.1116 -0.2031  0.1856
 1065YOPC   D3B15617  16.578   8.465   6.982 -0.2216 -0.1315 -0.0369
 1065YOPC   C4B15618  16.486   8.450   7.367 -0.0225 -0.5593 -0.0789
 1066YOPC   NC315619  14.954   5.837   5.373 -0.3115 -0.0480 -0.1901
 1066YOPC   PO415620  15.019   6.262   5.469  0.0112 -0.1436 -0.1215
 1066YOPC   GL115621  14.903   6.556   5.752 -0.1446 -0.0338 -0.2978
 1066YOPC   GL215622  14.733   6.675   5.653 -0.0863  0.0852 -0.0790
 1066YOPC   C1A15623  15.001   6.641   6.120  0.0609 -0.2371  0.2299
 1066YOPC   D2A15624  15.128   6.800   6.538  0.1079  0.1551  0.2966
 1066YOPC   C3A15625  14.870   6.994   6.809  0.0441 -0.0709  0.0623
 1066YOPC   C4A15626  14.621   7.242   6.992  0.0110 -0.2601  0.0358
 1066YOPC   C1B15627  14.533   6.857   6.005 -0.0186 -0.0898 -0.0697
 1066YOPC   C2B15628  14.579   6.717   6.398  0.0694 -0.1356 -0.1945
 1066YOPC   D3B15629  14.359   6.830   6.729 -0.2177  0.0350 -0.1245
 1066YOPC   C4B15630  13.920   6.954   6.750 -0.1650  0.0607  0.1474
 1067YOPC   NC315631   9.051   1.408   5.487 -0.1520  0.1666  0.2767
 1067YOPC   PO415632   8.994   1.065   5.745 -0.0511 -0.1560 -0.3660
 1067YOPC   GL115633   8.926   0.932   6.167 -0.2651 -0.3097  0.0594
 1067YOPC   GL215634   8.661   0.985   6.271 -0.1767 -0.3944 -0.2127
 1067YOPC   C1A15635   9.248   0.879   6.535 -0.3206  0.0261  0.1952
 1067YOPC   D2A15636   9.304   1.207   6.883 -0.2477  0.0160  0.4376
 1067YOPC   C3A15637   8.851   1.461   6.967  0.0569 -0.0608  0.0160
 1067YOPC   C4A15638   8.384   1.539   6.990  0.0283  0.1750  0.2471
 1067YOPC   C1B15639   8.845   0.974   6.738  0.1659 -0.1965 -0.1368
 1067YOPC   C2B15640   8.834   0.975   7.226 -0.0117  0.0748  0.3223
 1067YOPC   D3B15641   8.545   0.989   7.600  0.0272 -0.3258  0.0548
 1067YOPC   C4B15642   8.360   0.760   7.842 -0.2241  0.0913  0.0207
 1068YOPC   NC315643   7.890   8.527   5.569  0.1240 -0.1553 -0.4029
 1068YOPC   PO415644   7.952   8.840   5.997  0.1307 -0.1326 -0.0948
 1068YOPC   GL115645   7.945   8.689   6.383 -0.0219 -0.1682  0.2490
 1068YOPC   GL215646   8.303   8.517   6.391  0.0041 -0.0900 -0.0241
 1068YOPC   C1A15647   7.942   8.537   6.813 -0.1716  0.2360  0.0929
 1068YOPC   D2A15648   8.182   8.509   7.195 -0.1204 -0.1014 -0.1260
 1068YOPC   C3A15649   8.004   8.267   7.583 -0.0462 -0.0037  0.3131
 1068YOPC   C4A15650   7.862   7.835   7.497  0.1542  0.0241  0.2037
 1068YOPC   C1B15651   8.469   8.402   6.729 -0.3080 -0.1987 -0.1265
 1068YOPC   C2B15652   8.706   8.193   7.053 -0.0044  0.0884 -0.0388
 1068YOPC   D3B15653   8.604   8.224   7.507  0.1316 -0.0662 -0.2691
 1068YOPC   C4B15654   8.398   8.255   7.949 -0.1804  0.0393  0.2542
 1069YOPC   NC315655   8.756   6.678   5.598  0.0550  0.1982  0.2710
 1069YOPC   PO415656   9.174   6.933   5.522 -0.1112  0.0222  0.1613
 1069YOPC   GL115657   9.293   6.980   5.946 -0.0239  0.1310 -0.1132
 1069YOPC   GL215658   9.572   7.105   5.862 -0.0357 -0.2414  0.3430
 1069YOPC   C1A15659   9.276   6.826   6.403  0.3364  0.2621  0.0810
 1069YOPC   D2A15660   9.420   7.101   6.736  0.0140  0.0362  0.0975
 1069YOPC   C3A15661   9.495   6.977   7.172  0.0640  0.1510 -0.0159
 1069YOPC   C4A15662   9.338   6.905   7.662  0.1309  0.1016 -0.0485
 1069YOPC   C1B15663   9.665   7.191   6.275  0.2052  0.2570  0.0415
 1069YOPC   C2B15664   9.692   7.451   6.516 -0.2766  0.1272  0.0660
 1069YOPC   D3B15665   9.800   7.796   6.363 -0.2561 -0.1794 -0.3864
 1069YOPC   C4B15666   9.773   7.995   5.984 -0.1666 -0.0064  0.0284
 1070YOPC   NC315667  14.641   0.449   5.941  0.3138  0.4475  0.0122
 1070YOPC   PO415668  15.011   0.693   5.831 -0.3334  0.1536 -0.0849
 1070YOPC   GL115669  15.222   0.966   6.087  0.1227  0.0017  0.1557
 1070YOPC   GL215670  15.411   0.695   6.209 -0.3200 -0.5173 -0.0309
 1070YOPC   C1A15671  15.124   1.161   6.466 -0.0078  0.1736  0.3130
 1070YOPC   D2A15672  14.714   1.131   6.768 -0.0682 -0.3041  0.0995
 1070YOPC   C3A15673  14.770   1.267   7.153 -0.0345 -0.2861 -0.0156
 1070YOPC   C4A15674  14.619   1.066   7.480  0.0043 -0.1783 -0.0534
 1070YOPC   C1B15675  15.333   0.659   6.705  0.0640  0.3395  0.1143
 1070YOPC   C2B15676  15.139   0.932   6.960  0.2120 -0.3897 -0.5065
 1070YOPC   D3B15677  15.015   0.812   7.319  0.0374 -0.0621 -0.1703
 1070YOPC   C4B15678  14.800   0.689   7.665 -0.1385  0.3394 -0.1078
 1071YOPC   NC315679   0.665   2.374   5.715  0.0440 -0.1010 -0.0895
 1071YOPC   PO415680   0.263   2.486   5.761  0.1050 -0.1552 -0.1783
 1071YOPC   GL115681   0.151   2.181   6.076  0.2456  0.0178 -0.1973
 1071YOPC   GL215682  -0.027   1.927   6.027 -0.1703  0.1586  0.0162
 1071YOPC   C1A15683   0.379   2.293   6.490 -0.1001  0.2019 -0.0443
 1071YOPC   D2A15684   0.375   2.351   6.917  0.0067 -0.0141 -0.0220
 1071YOPC   C3A15685   0.158   2.005   7.185  0.2269 -0.2467  0.1837
 1071YOPC   C4A15686  -0.235   1.857   7.526  0.0143  0.0715  0.0422
 1071YOPC   C1B15687   0.003   1.758   6.371 -0.0265 -0.0254 -0.0375
 1071YOPC   C2B15688   0.013   1.764   6.803  0.0062  0.2386  0.0623
 1071YOPC   D3B15689  -0.105   1.566   7.068  0.3238 -0.1522 -0.1077
 1071YOPC   C4B15690  -0.289   1.216   6.937 -0.3525 -0.1305  0.1652
 1072YOPC   NC315691   6.305  11.401   6.213  0.1069 -0.1043  0.2373
 1072YOPC   PO415692   6.270  10.988   6.145  0.0204 -0.0846 -0.0253
 1072YOPC   GL115693   6.562  10.904   6.459  0.0065  0.3071 -0.3016
 1072YOPC   GL215694   6.430  11.134   6.636  0.1302 -0.0399 -0.3935
 1072YOPC   C1A15695   6.823  10.810   6.833 -0.0537 -0.1773 -0.3540
 1072YOPC   D2A15696   6.867  10.892   7.292 -0.1477  0.0545  0.0105
 1072YOPC   C3A15697   6.620  10.912   7.721  0.0561  0.0097  0.0992
 1072YOPC   C4A15698   6.267  11.089   8.061 -0.2449 -0.0005  0.3274
 1072YOPC   C1B15699   6.476  11.162   7.069  0.1821  0.0509 -0.1415
 1072YOPC   C2B15700   6.311  11.218   7.431 -0.0295 -0.0019 -0.3086
 1072YOPC   D3B15701   5.983  11.510   7.483  0.0322  0.1814  0.3230
 1072YOPC   C4B15702   5.907  11.992   7.681 -0.1267  0.2997 -0.0305
 1073YOPC   NC315703  10.405  11.712   5.799 -0.2034 -0.1070  0.4626
 1073YOPC   PO415704  10.641  12.140   5.818  0.1463  0.1393  0.0826
 1073YOPC   GL115705  10.746  12.138   6.246  0.2507 -0.2322  0.2027
 1073YOPC   GL215706  10.401  12.033   6.295 -0.0814  0.1350  0.0942
 1073YOPC   C1A15707  11.047  12.242   6.533  0.2656  0.3269  0.2330
 1073YOPC   D2A15708  11.022  12.270   6.897  0.1031 -0.1915  0.2091
 1073YOPC   C3A15709  11.104  12.058   7.327  0.0526 -0.4624 -0.3179
 1073YOPC   C4A15710  11.021  12.215   7.718  0.0705 -0.2117  0.0783
 1073YOPC   C1B15711  10.559  12.325   6.697 -0.1111 -0.4121  0.1488
 1073YOPC   C2B15712  10.623  12.297   7.210 -0.2048  0.4770 -0.1859
 1073YOPC   D3B15713  10.568  12.049   7.589  0.6270  0.0963 -0.0460
 1073YOPC   C4B15714  10.567  12.154   8.025  0.1515  0.3040  0.0289
 1074YOPC   NC315715  10.178  15.606   5.653 -0.1578  0.3469 -0.0710
 1074YOPC   PO415716  10.180  15.222   5.857  0.1616 -0.4400  0.0214
 1074YOPC   GL115717   9.967  15.509   6.211  0.1114 -0.1812  0.2329
 1074YOPC   GL215718  10.023  15.232   6.432  0.0145  0.0653 -0.4812
 1074YOPC   C1A15719  10.077  15.647   6.646  0.0990  0.2526 -0.3202
 1074YOPC   D2A15720  10.105  15.598   7.051 -0.0864  0.1829  0.0457
 1074YOPC   C3A15721  10.057  15.820   7.519 -0.1565 -0.0345 -0.1753
 1074YOPC   C4A15722   9.799  15.796   7.871 -0.0453 -0.0770  0.0918
 1074YOPC   C1B15723   9.829  15.165   6.885 -0.0060 -0.1503  0.2580
 1074YOPC   C2B15724   9.869  15.273   7.346  0.2737 -0.2479 -0.0684
 1074YOPC   D3B15725   9.901  15.153   7.726 -0.0879 -0.0108  0.2409
 1074YOPC   C4B15726  10.013  14.836   8.048  0.0912  0.2866  0.1202
 1075YOPC   NC315727  11.967   5.668   5.377 -0.0050  0.2756 -0.1504
 1075YOPC   PO415728  12.241   5.910   5.532 -0.1913 -0.2399  0.1539
 1075YOPC   GL115729  12.581   5.685   5.729  0.1038 -0.0154  0.0318
 1075YOPC   GL215730  12.669   5.318   5.742 -0.0386 -0.1562 -0.1210
 1075YOPC   C1A15731  12.737   5.672   6.024  0.1668 -0.1688 -0.2505
 1075YOPC   D2A15732  12.621   5.817   6.471 -0.0194  0.1301 -0.0570
 1075YOPC   C3A15733  12.107   6.105   6.355  0.4291 -0.0624  0.0815
 1075YOPC   C4A15734  11.717   6.283   6.298  0.1108  0.0765  0.0336
 1075YOPC   C1B15735  12.536   5.216   6.146 -0.1163  0.1370  0.5061
 1075YOPC   C2B15736  12.555   5.281   6.574  0.0955 -0.1231 -0.1855
 1075YOPC   D3B15737  12.516   5.373   7.048 -0.0042  0.1033  0.0898
 1075YOPC   C4B15738  13.005   5.482   7.293  0.1890  0.1500 -0.0535
 1076YOPC   NC315739  10.453  18.031   5.997 -0.0328  0.3046  0.1116
 1076YOPC   PO415740  10.195  18.298   5.830 -0.0672  0.0969  0.0402
 1076YOPC   GL115741  10.271  18.700   6.110  0.2299  0.1755  0.1515
 1076YOPC   GL215742   9.993  18.787   6.243 -0.0384 -0.1678 -0.1398
 1076YOPC   C1A15743  10.511  18.807   6.391  0.1602  0.1710  0.1242
 1076YOPC   D2A15744  10.607  18.971   6.786 -0.0525 -0.0504  0.1047
 1076YOPC   C3A15745  10.761  19.242   7.151 -0.0823 -0.1081  0.0164
 1076YOPC   C4A15746  10.725  19.662   7.341  0.0386 -0.1337 -0.2668
 1076YOPC   C1B15747  10.068  18.605   6.561 -0.2583 -0.1829  0.0279
 1076YOPC   C2B15748   9.788  18.463   6.820 -0.1641 -0.0028 -0.1117
 1076YOPC   D3B15749   9.865  18.439   7.187 -0.0866  0.0562 -0.1449
 1076YOPC   C4B15750   9.588  18.251   7.514 -0.2844 -0.0786  0.1961
 1077YOPC   NC315751  13.382   8.065   5.051 -0.1626 -0.2428 -0.0479
 1077YOPC   PO415752  13.448   8.303   5.366 -0.3311 -0.1028 -0.2736
 1077YOPC   GL115753  13.532   8.304   5.750  0.1581  0.3488  0.2704
 1077YOPC   GL215754  13.575   8.609   5.936  0.2266 -0.1457  0.1092
 1077YOPC   C1A15755  13.364   8.129   6.142  0.2138 -0.3106 -0.0815
 1077YOPC   D2A15756  13.504   7.973   6.426  0.0571 -0.0905 -0.0162
 1077YOPC   C3A15757  13.853   8.156   6.637 -0.1315 -0.2630 -0.1523
 1077YOPC   C4A15758  13.971   7.924   6.978  0.0402  0.1066 -0.2889
 1077YOPC   C1B15759  13.512   8.651   6.363 -0.1173 -0.0465 -0.0544
 1077YOPC   C2B15760  13.373   8.512   6.779  0.0012 -0.1399 -0.1777
 1077YOPC   D3B15761  13.360   8.805   7.197  0.0275 -0.0619  0.1528
 1077YOPC   C4B15762  13.302   8.827   7.657 -0.1498  0.0293 -0.0135
 1078YOPC   NC315763  12.844  14.595   5.903  0.0896  0.0539 -0.0922
 1078YOPC   PO415764  13.067  15.022   6.003 -0.1184 -0.1016 -0.2176
 1078YOPC   GL115765  13.002  15.091   6.374  0.3657 -0.0771 -0.2312
 1078YOPC   GL215766  13.414  15.071   6.516 -0.3186  0.5423  0.0050
 1078YOPC   C1A15767  13.022  14.843   6.821 -0.1471  0.1843  0.1653
 1078YOPC   D2A15768  13.223  15.130   7.115 -0.2378  0.0765  0.1482
 1078YOPC   C3A15769  13.589  15.051   7.341  0.1178 -0.1882  0.0183
 1078YOPC   C4A15770  13.948  14.951   7.487  0.0394  0.0685 -0.0006
 1078YOPC   C1B15771  13.725  15.012   6.776 -0.1724 -0.4167  0.0262
 1078YOPC   C2B15772  13.978  15.280   6.986  0.2391 -0.1656  0.0129
 1078YOPC   D3B15773  14.121  15.462   7.330 -0.0910  0.2151 -0.2448
 1078YOPC   C4B15774  13.936  15.789   7.600 -0.2446 -0.0867 -0.3136
 1079YOPC   NC315775  10.012  14.400   5.408 -0.2651  0.2115  0.1393
 1079YOPC   PO415776  10.129  14.109   5.709  0.2096 -0.0553 -0.1259
 1079YOPC   GL115777  10.203  14.339   5.989 -0.1869  0.5169  0.1085
 1079YOPC   GL215778  10.261  14.721   6.028 -0.0399  0.1014  0.1974
 1079YOPC   C1A15779  10.259  14.317   6.380 -0.0518  0.1676 -0.1785
 1079YOPC   D2A15780  10.021  14.182   6.785  0.0862  0.1967 -0.0078
 1079YOPC   C3A15781  10.077  14.220   7.259  0.0190 -0.1992 -0.1017
 1079YOPC   C4A15782  10.230  14.108   7.646 -0.2875 -0.4103 -0.1358
 1079YOPC   C1B15783  10.308  14.833   6.424 -0.0039 -0.0323  0.1321
 1079YOPC   C2B15784  10.311  14.969   6.801  0.1062  0.1749  0.0114
 1079YOPC   D3B15785  10.306  15.133   7.146 -0.0350  0.0739  0.1409
 1079YOPC   C4B15786  10.335  15.380   7.520  0.2363  0.4721 -0.0860
 1080YOPC   NC315787   2.026  11.142   6.353  0.1696 -0.0017  0.1861
 1080YOPC   PO415788   2.201  11.514   6.067 -0.1596 -0.2783  0.2854
 1080YOPC   GL115789   2.061  11.738   6.360 -0.2267 -0.0598 -0.0555
 1080YOPC   GL215790   1.899  11.867   6.338  0.0021 -0.1887 -0.2285
 1080YOPC   C1A15791   2.163  11.782   6.766  0.1876 -0.1107  0.0970
 1080YOPC   D2A15792   2.085  12.013   7.176  0.0181  0.0807 -0.2015
 1080YOPC   C3A15793   2.134  11.990   7.696  0.1449  0.1233  0.0208
 1080YOPC   C4A15794   2.305  12.058   8.126 -0.0874 -0.0584  0.2119
 1080YOPC   C1B15795   1.713  12.234   6.720 -0.0199  0.1023  0.1055
 1080YOPC   C2B15796   1.666  12.323   7.068 -0.0763  0.0914  0.0971
 1080YOPC   D3B15797   1.863  12.400   7.471  0.1821  0.0482 -0.1411
 1080YOPC   C4B15798   1.866  12.324   7.903 -0.2876 -0.2367 -0.3056
 1081YOPC   NC315799  17.967  18.327   5.489  0.1157 -0.1828 -0.0855
 1081YOPC   PO415800  17.516  18.265   5.556 -0.0515 -0.0415 -0.1084
 1081YOPC   GL115801  17.596  18.430   5.933  0.2120  0.0789  0.1384
 1081YOPC   GL215802  17.492  18.771   5.890  0.0176 -0.1618  0.5955
 1081YOPC   C1A15803  17.648  18.537   6.303  0.0606 -0.2153  0.0740
 1081YOPC   D2A15804  17.701  18.368   6.697  0.0284 -0.0409  0.0034
 1081YOPC   C3A15805  17.427  18.150   6.874  0.3481 -0.0137  0.1612
 1081YOPC   C4A15806  17.501  17.827   7.216  0.2127  0.1906  0.0029
 1081YOPC   C1B15807  18.033  18.716   6.024  0.0444  0.0911  0.0210
 1081YOPC   C2B15808  18.517  18.645   6.170  0.3203 -0.2080  0.1549
 1081YOPC   D3B15809  18.769  18.971   6.209 -0.1305 -0.3797  0.2965
 1081YOPC   C4B15810  18.805  19.454   6.267  0.0343 -0.0387  0.0256
 1082YOPC   NC315811  14.443  13.858   5.502 -0.0922  0.2138 -0.0441
 1082YOPC   PO415812  14.696  13.637   5.597 -0.2444 -0.1277 -0.1526
 1082YOPC   GL115813  14.816  13.536   6.024 -0.0511 -0.1901  0.1473
 1082YOPC   GL215814  15.080  13.296   6.135  0.1764  0.1437 -0.3258
 1082YOPC   C1A15815  14.869  13.707   6.433 -0.0696 -0.2354  0.1438
 1082YOPC   D2A15816  15.058  13.610   6.815 -0.0227 -0.1421 -0.0193
 1082YOPC   C3A15817  15.211  13.910   7.076  0.0497 -0.0106 -0.0249
 1082YOPC   C4A15818  15.187  14.224   7.369 -0.1839  0.3241 -0.3113
 1082YOPC   C1B15819  15.350  13.294   6.409 -0.0586  0.0116 -0.0048
 1082YOPC   C2B15820  15.527  13.241   6.836 -0.0036  0.2886 -0.4434
 1082YOPC   D3B15821  15.372  13.385   7.230  0.0941  0.0258 -0.1780
 1082YOPC   C4B15822  15.187  13.607   7.570  0.0927  0.0314  0.0621
 1083YOPC   NC315823  15.556   3.799   5.078  0.1144  0.0493 -0.0414
 1083YOPC   PO415824  15.133   3.627   5.212 -0.1966  0.0011  0.0010
 1083YOPC   GL115825  15.242   3.893   5.544 -0.0648  0.0769 -0.3515
 1083YOPC   GL215826  15.641   3.885   5.550  0.0496 -0.0972 -0.2905
 1083YOPC   C1A15827  15.036   4.092   5.918 -0.0471  0.0979 -0.0133
 1083YOPC   D2A15828  14.781   4.407   6.177  0.1649 -0.1600 -0.3127
 1083YOPC   C3A15829  14.726   4.450   6.539  0.2452  0.0740 -0.0026
 1083YOPC   C4A15830  14.458   4.335   6.841  0.0369  0.1635  0.0357
 1083YOPC   C1B15831  15.575   4.091   5.875  0.1614 -0.0248 -0.1003
 1083YOPC   C2B15832  15.458   4.425   6.182  0.0624  0.0441  0.2235
 1083YOPC   D3B15833  15.172   4.272   6.459 -0.0892 -0.2246 -0.2786
 1083YOPC   C4B15834  14.910   4.116   6.804  0.1043  0.0633 -0.0819
 1084YOPC   NC315835  16.904  17.405   5.131  0.0506  0.1651 -0.1088
 1084YOPC   PO415836  16.967  17.406   5.571  0.0494 -0.2880  0.2714
 1084YOPC   GL115837  17.030  17.462   6.073  0.2453  0.1021  0.3167
 1084YOPC   GL215838  16.786  17.477   6.288  0.0679 -0.2029 -0.0263
 1084YOPC   C1A15839  17.180  17.737   6.230  0.0378 -0.2031  0.1518
 1084YOPC   D2A15840  17.466  18.051   6.353 -0.1682  0.1573  0.0763
 1084YOPC   C3A15841  17.940  17.969   6.421  0.1555 -0.0054  0.4061
 1084YOPC   C4A15842  18.317  18.012   6.631 -0.1055 -0.0392  0.0584
 1084YOPC   C1B15843  16.663  17.559   6.663  0.1124 -0.1231  0.0006
 1084YOPC   C2B15844  16.578  17.593   7.022  0.0525  0.4684  0.2389
 1084YOPC   D3B15845  16.785  17.640   7.442  0.1245 -0.0676 -0.0015
 1084YOPC   C4B15846  17.188  17.721   7.723  0.3634  0.2476  0.0202
 1085YOPC   NC315847  14.043   5.780   5.218 -0.1312  0.2274  0.1068
 1085YOPC   PO415848  14.458   5.792   5.342  0.1416  0.1703  0.1514
 1085YOPC   GL115849  14.632   5.854   5.710 -0.2526 -0.1088  0.2946
 1085YOPC   GL215850  14.670   6.084   5.779  0.0254 -0.1397  0.2258
 1085YOPC   C1A15851  14.397   5.817   6.108  0.0632  0.2194  0.1961
 1085YOPC   D2A15852  14.307   5.857   6.547  0.4803  0.0319  0.0883
 1085YOPC   C3A15853  13.881   5.834   6.680  0.1457 -0.3990  0.1579
 1085YOPC   C4A15854  13.610   6.095   6.936 -0.1151  0.0440 -0.3463
 1085YOPC   C1B15855  14.596   6.327   6.185 -0.0891  0.4179 -0.1077
 1085YOPC   C2B15856  14.682   6.228   6.520 -0.3484  0.0562  0.0178
 1085YOPC   D3B15857  14.529   5.938   6.985 -0.1752 -0.1890 -0.1277
 1085YOPC   C4B15858  14.638   5.737   7.319  0.0183 -0.4793  0.2389
 1086YOPC   NC315859  16.114  16.812   5.867  0.0870 -0.2760 -0.2321
 1086YOPC   PO415860  15.839  17.076   5.777  0.2017  0.1706 -0.0127
 1086YOPC   GL115861  15.678  17.147   6.145  0.0577 -0.2573  0.0022
 1086YOPC   GL215862  15.973  17.033   6.313  0.0342 -0.0148  0.2187
 1086YOPC   C1A15863  15.376  17.383   6.465  0.3547  0.3236 -0.2716
 1086YOPC   D2A15864  15.128  17.606   6.644 -0.0978 -0.1619 -0.2003
 1086YOPC   C3A15865  15.041  18.171   6.691  0.0070 -0.1462 -0.0411
 1086YOPC   C4A15866  15.159  18.546   6.885  0.2857  0.1134  0.1175
 1086YOPC   C1B15867  15.782  17.246   6.705 -0.2984  0.2571  0.0746
 1086YOPC   C2B15868  15.514  17.418   7.074  0.0814 -0.2446  0.0310
 1086YOPC   D3B15869  15.274  17.805   7.035 -0.0189 -0.2629 -0.3186
 1086YOPC   C4B15870  15.157  18.152   7.205  0.0376 -0.1658  0.1225
 1087YOPC   NC315871   7.932   3.859   5.138  0.0337  0.0592  0.2666
 1087YOPC   PO415872   7.617   3.856   5.484  0.1883 -0.1340 -0.0107
 1087YOPC   GL115873   7.627   3.776   5.895  0.2122  0.0241 -0.1688
 1087YOPC   GL215874   7.339   3.644   6.025  0.0642 -0.1208 -0.2390
 1087YOPC   C1A15875   7.853   3.841   6.281  0.2817 -0.2340  0.1177
 1087YOPC   D2A15876   8.194   3.722   6.654 -0.1002 -0.1296  0.2592
 1087YOPC   C3A15877   8.659   3.833   6.614  0.0703  0.4683  0.3966
 1087YOPC   C4A15878   9.133   3.919   6.640  0.1135 -0.0271 -0.1308
 1087YOPC   C1B15879   7.448   3.594   6.469 -0.0425  0.0653 -0.2627
 1087YOPC   C2B15880   7.714   3.660   6.819 -0.0413  0.1582 -0.1972
 1087YOPC   D3B15881   7.487   3.851   7.011  0.0977 -0.4734 -0.1141
 1087YOPC   C4B15882   7.188   4.085   7.217 -0.0943 -0.2888  0.0043
 1088YOPC   NC315883   3.608  10.628   5.869 -0.2010  0.1465  0.0471
 1088YOPC   PO415884   3.992  10.874   5.801  0.0327 -0.0693 -0.0200
 1088YOPC   GL115885   3.930  10.733   6.346 -0.1691 -0.0139  0.0159
 1088YOPC   GL215886   3.677  10.864   6.514  0.1265  0.0267  0.2613
 1088YOPC   C1A15887   4.031  10.432   6.534  0.1205  0.0162  0.0673
 1088YOPC   D2A15888   4.121  10.235   6.928  0.0679  0.1029  0.0993
 1088YOPC   C3A15889   4.085  10.503   7.278 -0.1214  0.2338  0.1197
 1088YOPC   C4A15890   3.795  10.705   7.567 -0.2094  0.1904  0.1068
 1088YOPC   C1B15891   3.851  10.817   6.882 -0.3092  0.0062 -0.0898
 1088YOPC   C2B15892   3.956  11.031   7.247 -0.0147 -0.0842 -0.1792
 1088YOPC   D3B15893   3.738  11.489   7.305 -0.0409 -0.3052 -0.0033
 1088YOPC   C4B15894   3.514  11.676   7.624 -0.0584  0.5290 -0.0454
 1089YOPC   NC315895  10.765   9.558   5.652 -0.2444 -0.0309  0.2690
 1089YOPC   PO415896  11.128   9.731   5.743  0.1897 -0.0027  0.2255
 1089YOPC   GL115897  11.051   9.540   6.064 -0.0572  0.1348 -0.1209
 1089YOPC   GL215898  10.784   9.344   6.170 -0.0958 -0.1737 -0.3819
 1089YOPC   C1A15899  11.249   9.460   6.501 -0.0103 -0.0461 -0.2250
 1089YOPC   D2A15900  11.090   9.515   6.914  0.2058  0.2464 -0.1361
 1089YOPC   C3A15901  11.119   9.826   7.192  0.0350 -0.0310 -0.1885
 1089YOPC   C4A15902  11.147   9.916   7.619 -0.1621 -0.0570 -0.4253
 1089YOPC   C1B15903  10.764   9.210   6.567 -0.1258 -0.1250 -0.0236
 1089YOPC   C2B15904  10.590   9.043   6.887 -0.4182 -0.2026 -0.1541
 1089YOPC   D3B15905  10.744   9.141   7.224  0.3127 -0.0502  0.1314
 1089YOPC   C4B15906  10.918   9.417   7.468 -0.0642  0.3126 -0.1426
 1090YOPC   NC315907   4.782   6.707   6.188 -0.3951  0.0936 -0.1114
 1090YOPC   PO415908   5.230   6.768   6.127  0.0005  0.1191  0.2769
 1090YOPC   GL115909   5.162   6.836   6.554  0.0605  0.0726 -0.0203
 1090YOPC   GL215910   5.139   6.530   6.549  0.0924 -0.0398  0.0963
 1090YOPC   C1A15911   5.221   7.050   7.048  0.1191 -0.3001  0.0773
 1090YOPC   D2A15912   5.221   6.950   7.488 -0.0241 -0.0378 -0.0396
 1090YOPC   C3A15913   5.089   6.564   7.608 -0.0872 -0.2699 -0.1785
 1090YOPC   C4A15914   4.807   6.317   7.397  0.2244  0.2857 -0.1909
 1090YOPC   C1B15915   5.489   6.263   6.810  0.0823 -0.1992 -0.0129
 1090YOPC   C2B15916   5.666   5.945   7.225 -0.0520 -0.3008 -0.1738
 1090YOPC   D3B15917   5.745   6.168   7.640  0.0197  0.2007 -0.1015
 1090YOPC   C4B15918   5.816   6.313   7.972 -0.0774 -0.2904 -0.2267
 1091YOPC   NC315919   0.119   0.671   5.173  0.0783 -0.1987  0.0175
 1091YOPC   PO415920  -0.203   0.817   5.376  0.0811 -0.2221  0.0846
 1091YOPC   GL115921  -0.452   0.828   5.816  0.1231  0.1943 -0.1531
 1091YOPC   GL215922  -0.344   1.178   5.957 -0.0806  0.1751  0.2158
 1091YOPC   C1A15923  -0.542   0.729   6.243 -0.1655  0.1379  0.2469
 1091YOPC   D2A15924  -0.662   0.561   6.687  0.3235  0.1040  0.1216
 1091YOPC   C3A15925  -1.027   0.338   6.663 -0.1556 -0.0859  0.2026
 1091YOPC   C4A15926  -1.186   0.031   6.445 -0.0258  0.1244 -0.1119
 1091YOPC   C1B15927  -0.324   1.168   6.292 -0.1503  0.0796 -0.0336
 1091YOPC   C2B15928  -0.733   1.125   6.642  0.1318 -0.3872  0.2483
 1091YOPC   D3B15929  -0.722   1.081   7.070 -0.0877 -0.2697  0.1790
 1091YOPC   C4B15930  -0.938   1.112   7.467  0.3213 -0.0617 -0.1214
 1092YOPC   NC315931  16.629  12.916   5.570  0.1317  0.0725 -0.1260
 1092YOPC   PO415932  16.271  12.659   5.828  0.0549 -0.0576 -0.2362
 1092YOPC   GL115933  16.044  12.880   6.110 -0.1308  0.0647  0.1312
 1092YOPC   GL215934  15.828  13.174   6.144  0.3761  0.0337  0.0342
 1092YOPC   C1A15935  15.895  12.865   6.550  0.1391 -0.0315  0.1535
 1092YOPC   D2A15936  15.939  12.968   7.028  0.1731  0.3021  0.0583
 1092YOPC   C3A15937  15.828  13.054   7.408 -0.1127  0.2311  0.2549
 1092YOPC   C4A15938  15.571  12.933   7.914 -0.3064  0.0670 -0.1542
 1092YOPC   C1B15939  15.898  13.367   6.537  0.0740 -0.3542 -0.0402
 1092YOPC   C2B15940  16.062  13.408   6.929 -0.1650  0.0784  0.2541
 1092YOPC   D3B15941  16.117  13.539   7.412  0.3065 -0.1766  0.2315
 1092YOPC   C4B15942  16.087  13.746   7.805  0.1274 -0.0909 -0.1629
 1093YOPC   NC315943   2.303   7.261   5.911 -0.0492  0.0552 -0.2465
 1093YOPC   PO415944   2.219   7.682   5.877  0.1477  0.0727 -0.0062
 1093YOPC   GL115945   2.333   7.653   6.300 -0.0355  0.0853 -0.2455
 1093YOPC   GL215946   2.518   7.933   6.483  0.1271  0.0457  0.0788
 1093YOPC   C1A15947   2.340   7.512   6.774 -0.2296  0.0664  0.2883
 1093YOPC   D2A15948   2.555   7.777   6.949  0.2176  0.2565  0.1702
 1093YOPC   C3A15949   2.481   7.775   7.350 -0.0674 -0.2704  0.2233
 1093YOPC   C4A15950   2.393   7.688   7.733 -0.1178 -0.0694  0.0707
 1093YOPC   C1B15951   2.700   8.208   6.707 -0.0681  0.1678 -0.0721
 1093YOPC   C2B15952   2.954   8.146   7.005 -0.1841  0.2296  0.2796
 1093YOPC   D3B15953   2.877   8.071   7.383  0.0092 -0.1206  0.3637
 1093YOPC   C4B15954   2.874   8.063   7.785 -0.0745  0.0976  0.0496
 1094YOPC   NC315955   7.661   1.579   5.749 -0.0233 -0.2372  0.1535
 1094YOPC   PO415956   7.249   1.551   5.877 -0.0218 -0.0320  0.3808
 1094YOPC   GL115957   7.374   1.674   6.238 -0.0419 -0.0371 -0.1227
 1094YOPC   GL215958   7.209   1.581   6.626  0.0532 -0.2214  0.0584
 1094YOPC   C1A15959   7.631   1.932   6.524  0.1069 -0.0783  0.1690
 1094YOPC   D2A15960   7.916   2.298   6.702  0.3454  0.0667 -0.2484
 1094YOPC   C3A15961   7.903   2.457   7.006 -0.0497  0.1645  0.0809
 1094YOPC   C4A15962   7.949   2.467   7.444  0.1028  0.0451 -0.0626
 1094YOPC   C1B15963   7.398   1.828   6.988 -0.2370 -0.3253 -0.4132
 1094YOPC   C2B15964   7.547   2.074   7.246 -0.2436 -0.1610 -0.0720
 1094YOPC   D3B15965   7.318   2.446   7.292  0.0457  0.1727  0.1521
 1094YOPC   C4B15966   7.162   2.697   7.638  0.2263 -0.0889  0.3070
 1095YOPC   NC315967  18.055   2.739   5.640 -0.0061 -0.2782  0.2814
 1095YOPC   PO415968  18.277   3.111   5.381  0.2691 -0.1119  0.1067
 1095YOPC   GL115969  18.403   3.046   5.777 -0.0779 -0.1762 -0.2343
 1095YOPC   GL215970  18.438   2.851   6.012  0.0622 -0.4456 -0.2026
 1095YOPC   C1A15971  18.478   3.266   6.197 -0.2659 -0.0181  0.0025
 1095YOPC   D2A15972  18.544   3.538   6.469  0.0278  0.3050  0.0785
 1095YOPC   C3A15973  18.661   3.402   6.815 -0.3557  0.1578  0.0073
 1095YOPC   C4A15974  18.663   3.402   7.183  0.0633  0.2373  0.2124
 1095YOPC   C1B15975  18.253   2.578   6.335  0.0239  0.0283  0.0717
 1095YOPC   C2B15976  18.262   2.534   6.724  0.0864 -0.1323 -0.1209
 1095YOPC   D3B15977  17.981   2.834   7.001  0.0462 -0.0144 -0.1499
 1095YOPC   C4B15978  18.247   3.130   7.301  0.1929  0.1526  0.1864
 1096YOPC   NC315979  12.088   6.405   5.533  0.1348  0.2301  0.1113
 1096YOPC   PO415980  12.398   6.601   5.608  0.1404 -0.0300  0.1624
 1096YOPC   GL115981  12.867   6.602   5.831  0.1633 -0.0139  0.1366
 1096YOPC   GL215982  13.093   6.824   5.733 -0.2771  0.0287 -0.1448
 1096YOPC   C1A15983  13.070   6.518   6.258 -0.0751  0.1310 -0.0088
 1096YOPC   D2A15984  13.068   6.707   6.641 -0.0558 -0.0547  0.1186
 1096YOPC   C3A15985  13.149   6.357   6.943  0.0190  0.1452 -0.2367
 1096YOPC   C4A15986  13.354   6.440   7.356  0.1451 -0.0231  0.2280
 1096YOPC   C1B15987  13.453   6.647   5.935 -0.0880 -0.0808  0.1549
 1096YOPC   C2B15988  13.638   6.335   6.172  0.0864 -0.1685  0.0334
 1096YOPC   D3B15989  13.501   6.394   6.576  0.0510 -0.2033  0.1440
 1096YOPC   C4B15990  13.576   6.615   6.971 -0.0729 -0.0020 -0.0500
 1097YOPC   NC315991   5.826  12.036   5.736 -0.1630 -0.1903  0.2444
 1097YOPC   PO415992   6.054  11.812   6.028 -0.0754 -0.2711  0.1105
 1097YOPC   GL115993   5.912  11.756   6.407 -0.0248  0.3050  0.0265
 1097YOPC   GL215994   6.252  11.690   6.577  0.0607  0.0881 -0.0131
 1097YOPC   C1A15995   5.861  11.878   6.810 -0.0630 -0.1198 -0.1163
 1097YOPC   D2A15996   6.039  11.981   7.206 -0.3528  0.1374 -0.0028
 1097YOPC   C3A15997   6.247  12.277   7.220  0.4913 -0.0887 -0.2696
 1097YOPC   C4A15998   6.550  12.472   7.530 -0.0055  0.1797  0.0833
 1097YOPC   C1B15999   6.200  11.474   6.864 -0.0614  0.0661  0.0665
 1097YOPC   C2B16000   6.026  11.124   7.003  0.2658 -0.0897 -0.2268
 1097YOPC   D3B16001   5.879  10.996   7.385 -0.1131 -0.2332 -0.0001
 1097YOPC   C4B16002   5.887  11.050   7.767  0.3147 -0.1712 -0.1783
 1098YOPC   NC316003   1.508   7.054   5.856 -0.2314 -0.0990 -0.1136
 1098YOPC   PO416004   1.808   7.338   6.014 -0.0736  0.0627 -0.1866
 1098YOPC   GL116005   1.462   7.342   6.344 -0.2715 -0.2650  0.1244
 1098YOPC   GL216006   1.283   7.628   6.339  0.0151  0.1609  0.0296
 1098YOPC   C1A16007   1.145   7.109   6.538  0.1772  0.3013 -0.1647
 1098YOPC   D2A16008   1.152   7.140   6.941 -0.0990  0.0924  0.0851
 1098YOPC   C3A16009   1.003   7.475   7.244 -0.1425  0.0176  0.1010
 1098YOPC   C4A16010   0.976   7.900   7.397  0.1977 -0.0031 -0.2215
 1098YOPC   C1B16011   1.362   7.544   6.857 -0.0900 -0.1842  0.3577
 1098YOPC   C2B16012   1.507   7.435   7.337 -0.0136 -0.1173  0.0355
 1098YOPC   D3B16013   1.268   7.566   7.645 -0.0509  0.2306 -0.1649
 1098YOPC   C4B16014   1.151   7.312   7.970 -0.0556  0.0982 -0.2032
 1099YOPC   NC316015   9.586   5.723   5.459  0.0264 -0.1559  0.1337
 1099YOPC   PO416016   9.110   5.787   5.521 -0.1094 -0.0206 -0.1342
 1099YOPC   GL116017   8.995   5.834   5.967 -0.1360  0.1266 -0.0122
 1099YOPC   GL216018   8.599   5.789   5.972  0.0713 -0.0907 -0.0477
 1099YOPC   C1A16019   8.982   5.930   6.372 -0.1541 -0.0378  0.1133
 1099YOPC   D2A16020   9.033   5.961   6.839 -0.0014 -0.3020  0.0942
 1099YOPC   C3A16021   8.954   5.989   7.197  0.0487  0.0174 -0.2545
 1099YOPC   C4A16022   8.773   6.059   7.634 -0.0560 -0.0420  0.0802
 1099YOPC   C1B16023   8.505   5.911   6.340  0.3432 -0.3645  0.1096
 1099YOPC   C2B16024   8.539   5.864   6.755  0.2441 -0.1128 -0.2155
 1099YOPC   D3B16025   8.224   5.788   7.009 -0.1702 -0.0059  0.2502
 1099YOPC   C4B16026   7.919   5.853   7.348 -0.2321  0.0231 -0.0890
 1100YOPC   NC316027   6.738  12.538   5.856 -0.2263 -0.2229  0.3287
 1100YOPC   PO416028   6.379  12.647   5.972 -0.1166 -0.0429  0.2038
 1100YOPC   GL116029   6.554  12.654   6.417  0.4559 -0.2552  0.2066
 1100YOPC   GL216030   6.832  12.515   6.364 -0.1325 -0.0468  0.1199
 1100YOPC   C1A16031   6.467  12.695   6.843 -0.1382  0.3299 -0.2587
 1100YOPC   D2A16032   6.382  12.893   7.143  0.2463  0.0387  0.1633
 1100YOPC   C3A16033   6.256  12.903   7.606  0.0599  0.0515  0.0017
 1100YOPC   C4A16034   6.219  13.031   8.003  0.0777 -0.1255  0.2981
 1100YOPC   C1B16035   6.962  12.766   6.755  0.2415  0.0782  0.0485
 1100YOPC   C2B16036   6.880  12.719   7.215 -0.0815 -0.1095 -0.2067
 1100YOPC   D3B16037   6.900  13.014   7.451  0.1064  0.1030  0.2408
 1100YOPC   C4B16038   7.003  13.203   7.672 -0.1446  0.2719  0.2077
 1101YOPC   NC316039   2.743   4.766   5.861  0.1025  0.2313 -0.0680
 1101YOPC   PO416040   2.387   4.496   5.708 -0.0332 -0.1085 -0.1517
 1101YOPC   GL116041   2.427   4.601   6.176 -0.1828  0.1364 -0.2237
 1101YOPC   GL216042   2.128   4.555   6.371  0.1132 -0.0571 -0.1419
 1101YOPC   C1A16043   2.513   4.928   6.530 -0.0723  0.2382 -0.0107
 1101YOPC   D2A16044   2.537   4.995   6.964  0.1588  0.0768  0.0202
 1101YOPC   C3A16045   2.501   4.703   7.210 -0.1922 -0.2791  0.2300
 1101YOPC   C4A16046   2.197   4.635   7.601 -0.0908  0.0211 -0.2032
 1101YOPC   C1B16047   2.152   4.590   6.815 -0.2078 -0.1393 -0.0445
 1101YOPC   C2B16048   2.068   4.915   7.160  0.0635 -0.2573  0.1897
 1101YOPC   D3B16049   1.885   5.006   7.536  0.0616 -0.0412 -0.0392
 1101YOPC   C4B16050   1.748   4.843   7.915 -0.0836 -0.0927  0.0040
 1102YOPC   NC316051  16.917  10.250   5.914  0.2703  0.0244  0.2329
 1102YOPC   PO416052  16.645  10.546   5.990  0.1102 -0.1511  0.0932
 1102YOPC   GL116053  16.557  10.407   6.383 -0.0771 -0.2928 -0.2638
 1102YOPC   GL216054  16.523  10.068   6.273 -0.0778 -0.0660  0.2770
 1102YOPC   C1A16055  16.535  10.258   6.722  0.2581 -0.2892 -0.0729
 1102YOPC   D2A16056  16.577   9.985   6.997  0.0699  0.0670  0.3069
 1102YOPC   C3A16057  16.511   9.976   7.359  0.3036 -0.0496 -0.0574
 1102YOPC   C4A16058  16.506   9.714   7.813  0.0967  0.1029 -0.5276
 1102YOPC   C1B16059  16.363   9.805   6.572 -0.2301  0.0859  0.0209
 1102YOPC   C2B16060  16.059   9.357   6.617  0.0160  0.0362 -0.2165
 1102YOPC   D3B16061  15.822   9.199   6.981 -0.1022  0.0859 -0.3575
 1102YOPC   C4B16062  15.745   8.956   7.308  0.0223  0.1096 -0.0129
 1103YOPC   NC316063  13.935   8.041   5.237 -0.0378  0.0633 -0.1914
 1103YOPC   PO416064  13.733   8.450   5.008  0.2586 -0.2074  0.0148
 1103YOPC   GL116065  13.907   8.495   5.437  0.0675  0.3307  0.0058
 1103YOPC   GL216066  13.909   8.820   5.467 -0.1255  0.2305 -0.1157
 1103YOPC   C1A16067  14.136   8.540   5.836 -0.0151  0.0313  0.2745
 1103YOPC   D2A16068  13.991   8.766   6.272 -0.0020 -0.2766  0.1442
 1103YOPC   C3A16069  14.029   8.690   6.595  0.0664 -0.0812 -0.1742
 1103YOPC   C4A16070  13.718   8.909   6.853  0.0418  0.1042  0.2918
 1103YOPC   C1B16071  13.868   9.013   5.833  0.0497 -0.3510 -0.1945
 1103YOPC   C2B16072  13.599   9.275   6.087  0.0347 -0.2094  0.0733
 1103YOPC   D3B16073  13.607   9.412   6.519 -0.0206 -0.0282 -0.0246
 1103YOPC   C4B16074  13.762   9.396   6.887 -0.3534  0.0466  0.0426
 1104YOPC   NC316075  17.098  11.888   6.128  0.1327  0.4556 -0.1627
 1104YOPC   PO416076  17.168  12.368   6.140 -0.2142  0.1542 -0.0721
 1104YOPC   GL116077  17.101  12.088   6.598  0.3643  0.0985 -0.0662
 1104YOPC   GL216078  17.278  11.888   6.697  0.1309 -0.1324  0.1301
 1104YOPC   C1A16079  16.866  12.106   6.988  0.2180  0.1122 -0.0201
 1104YOPC   D2A16080  16.668  12.256   7.293  0.0455 -0.2417  0.0166
 1104YOPC   C3A16081  16.542  12.161   7.579  0.0711 -0.3140 -0.0620
 1104YOPC   C4A16082  16.349  11.938   7.928  0.2408 -0.0311  0.2645
 1104YOPC   C1B16083  17.347  11.896   7.083  0.1578  0.6249  0.2453
 1104YOPC   C2B16084  17.596  11.927   7.345 -0.1064 -0.1342 -0.1352
 1104YOPC   D3B16085  17.484  12.109   7.778 -0.0411  0.2250  0.0307
 1104YOPC   C4B16086  17.527  12.403   7.927 -0.2074  0.0911 -0.0935
 1105YOPC   NC316087   5.658   9.245   6.132 -0.0641  0.0502 -0.1298
 1105YOPC   PO416088   5.878   9.581   5.978  0.2467 -0.4121  0.0882
 1105YOPC   GL116089   6.092   9.544   6.347 -0.0649 -0.0746  0.0234
 1105YOPC   GL216090   5.848   9.819   6.459  0.0805  0.2273 -0.0400
 1105YOPC   C1A16091   6.062   9.152   6.677 -0.0380 -0.0172 -0.1033
 1105YOPC   D2A16092   5.806   8.968   6.998 -0.0759 -0.1425 -0.2036
 1105YOPC   C3A16093   5.804   9.056   7.385 -0.0138  0.0027  0.3010
 1105YOPC   C4A16094   5.693   8.909   7.844  0.1241 -0.0961 -0.1788
 1105YOPC   C1B16095   5.998   9.862   6.926 -0.1776  0.3002 -0.2186
 1105YOPC   C2B16096   6.358  10.031   7.066 -0.0554  0.1625 -0.0518
 1105YOPC   D3B16097   6.372  10.003   7.449  0.0687 -0.0841 -0.4502
 1105YOPC   C4B16098   6.482  10.218   7.851  0.0633  0.0740 -0.0334
 1106YOPC   NC316099   3.161   1.078   5.753 -0.0706  0.1142  0.1241
 1106YOPC   PO416100   2.810   1.251   5.988 -0.1733 -0.0654  0.0897
 1106YOPC   GL116101   2.833   1.233   6.452 -0.1733 -0.1475  0.0922
 1106YOPC   GL216102   2.838   1.476   6.630 -0.2426  0.0759 -0.1358
 1106YOPC   C1A16103   3.100   1.066   6.772 -0.1656 -0.1799 -0.3438
 1106YOPC   D2A16104   3.123   0.940   7.222 -0.1009  0.0014 -0.2895
 1106YOPC   C3A16105   2.777   0.856   7.544 -0.2796 -0.0044  0.0049
 1106YOPC   C4A16106   2.550   0.525   7.617  0.2021  0.1558  0.0546
 1106YOPC   C1B16107   2.917   1.796   6.918  0.1286  0.0203  0.2343
 1106YOPC   C2B16108   2.682   1.756   7.160  0.0481 -0.0134  0.0364
 1106YOPC   D3B16109   2.753   1.762   7.594  0.3023  0.0628  0.2762
 1106YOPC   C4B16110   2.508   1.912   7.886  0.6031 -0.0885  0.0508
 1107YOPC   NC316111  13.934   2.938   5.394  0.0003  0.0006  0.1524
 1107YOPC   PO416112  13.685   2.615   5.634  0.1424  0.1180  0.0055
 1107YOPC   GL116113  13.665   2.865   5.974 -0.1123 -0.0569  0.1952
 1107YOPC   GL216114  13.281   3.048   6.053  0.1052 -0.1211  0.2931
 1107YOPC   C1A16115  13.579   2.967   6.402 -0.4333  0.0861 -0.1372
 1107YOPC   D2A16116  13.466   3.043   6.778 -0.0645  0.0247 -0.0478
 1107YOPC   C3A16117  13.554   3.481   6.867  0.0556  0.0434  0.1515
 1107YOPC   C4A16118  13.288   3.677   7.018 -0.0138  0.1308  0.1504
 1107YOPC   C1B16119  13.059   2.899   6.412  0.1510  0.0884 -0.0221
 1107YOPC   C2B16120  12.711   2.769   6.528  0.1488 -0.0361 -0.0578
 1107YOPC   D3B16121  12.749   2.702   6.897  0.2099  0.3770 -0.3497
 1107YOPC   C4B16122  12.768   2.369   7.218  0.0130  0.0405  0.0927
 1108YOPC   NC316123   8.756  13.033   5.213  0.1201 -0.0456  0.1579
 1108YOPC   PO416124   8.729  12.770   5.554 -0.2653 -0.0045 -0.1026
 1108YOPC   GL116125   8.725  12.813   6.073  0.2428  0.0901 -0.2070
 1108YOPC   GL216126   8.799  13.094   6.274  0.2886  0.1694  0.0433
 1108YOPC   C1A16127   8.611  12.733   6.566 -0.0917  0.2456  0.1378
 1108YOPC   D2A16128   8.670  12.577   6.916  0.1740  0.1170 -0.1912
 1108YOPC   C3A16129   8.270  12.580   7.012 -0.0913 -0.1017 -0.1968
 1108YOPC   C4A16130   7.970  12.256   7.044 -0.1300  0.0887  0.0454
 1108YOPC   C1B16131   8.904  13.135   6.721  0.1648 -0.1410 -0.0088
 1108YOPC   C2B16132   8.870  13.258   7.136  0.0865  0.0035 -0.0101
 1108YOPC   D3B16133   9.134  13.163   7.487 -0.1426 -0.0976  0.0620
 1108YOPC   C4B16134   9.393  12.848   7.713 -0.3822 -0.2413 -0.0868
 1109YOPC   NC316135   4.037  16.252   5.870  0.1465 -0.3817 -0.0025
 1109YOPC   PO416136   3.718  15.954   5.848 -0.2296  0.1221  0.0855
 1109YOPC   GL116137   3.486  15.799   6.148  0.0226  0.0077 -0.2226
 1109YOPC   GL216138   3.150  15.880   6.211 -0.0383 -0.1645 -0.1175
 1109YOPC   C1A16139   3.665  15.889   6.581 -0.1987 -0.2241 -0.0461
 1109YOPC   D2A16140   3.636  15.551   6.894 -0.2043 -0.2277 -0.0906
 1109YOPC   C3A16141   3.563  15.528   7.324  0.0089  0.2623 -0.1602
 1109YOPC   C4A16142   3.472  15.647   7.799  0.1476  0.0815  0.1770
 1109YOPC   C1B16143   3.204  16.069   6.584 -0.0953  0.0020 -0.2778
 1109YOPC   C2B16144   3.116  16.389   6.799  0.0210  0.0726  0.2196
 1109YOPC   D3B16145   3.191  16.391   7.146  0.0117 -0.0453  0.0574
 1109YOPC   C4B16146   3.160  16.088   7.432 -0.0524  0.2356  0.0777
 1110YOPC   NC316147   0.215   6.733   5.506 -0.2586  0.0856 -0.0240
 1110YOPC   PO416148  -0.147   6.935   5.473  0.1361  0.0874 -0.0205
 1110YOPC   GL116149  -0.214   7.001   5.898 -0.0278 -0.1304  0.0063
 1110YOPC   GL216150  -0.188   7.209   6.168 -0.1247  0.1515 -0.0802
 1110YOPC   C1A16151  -0.441   6.787   6.121 -0.3212  0.1171 -0.2091
 1110YOPC   D2A16152  -0.663   6.819   6.345  0.1850 -0.1366 -0.2735
 1110YOPC   C3A16153  -0.823   7.106   6.528 -0.1872  0.3596  0.3732
 1110YOPC   C4A16154  -0.986   7.080   6.931  0.1483 -0.2755 -0.0560
 1110YOPC   C1B16155  -0.246   7.128   6.634 -0.1651  0.0065  0.0074
 1110YOPC   C2B16156  -0.497   7.044   6.995 -0.0186  0.2750 -0.0661
 1110YOPC   D3B16157  -0.307   6.910   7.320  0.0567  0.0335  0.3041
 1110YOPC   C4B16158   0.066   6.874   7.694  0.1917  0.0009  0.2296
 1111YOPC   NC316159  18.063  13.078   5.866  0.1060 -0.0666 -0.1574
 1111YOPC   PO416160  18.566  13.229   5.814 -0.0833 -0.1403 -0.1077
 1111YOPC   GL116161  18.637  13.081   6.219 -0.1643  0.0348 -0.2573
 1111YOPC   GL216162  18.333  13.018   6.394 -0.0067  0.3097 -0.1063
 1111YOPC   C1A16163  18.710  13.170   6.682 -0.2433 -0.0200 -0.0959
 1111YOPC   D2A16164  18.719  13.321   7.049 -0.2484 -0.3575 -0.2581
 1111YOPC   C3A16165  18.919  13.375   7.446  0.0805 -0.1993  0.2313
 1111YOPC   C4A16166  18.699  13.247   7.770 -0.1125  0.0073 -0.2739
 1111YOPC   C1B16167  18.289  12.974   6.819 -0.1256 -0.0785 -0.2044
 1111YOPC   C2B16168  18.159  12.722   7.259 -0.2113 -0.2953 -0.1634
 1111YOPC   D3B16169  18.452  12.494   7.549 -0.2573  0.1958  0.0681
 1111YOPC   C4B16170  18.859  12.688   7.622 -0.0479  0.0866 -0.1750
 1112YOPC   NC316171   0.050  11.188   5.678 -0.0765  0.0164 -0.2285
 1112YOPC   PO416172  -0.281  11.410   5.822  0.0623  0.1286 -0.1471
 1112YOPC   GL116173  -0.409  11.312   6.255  0.0036  0.2217  0.2226
 1112YOPC   GL216174  -0.633  11.469   6.368 -0.2844  0.3337  0.0256
 1112YOPC   C1A16175  -0.374  11.081   6.637  0.2262  0.1017  0.2002
 1112YOPC   D2A16176  -0.354  11.162   7.023 -0.1979  0.0124 -0.1025
 1112YOPC   C3A16177  -0.718  11.366   7.336  0.2096  0.0468 -0.0162
 1112YOPC   C4A16178  -0.880  11.543   7.677 -0.0710  0.1642 -0.2308
 1112YOPC   C1B16179  -0.741  11.496   6.696  0.0716  0.0538 -0.1333
 1112YOPC   C2B16180  -1.156  11.434   6.905 -0.0882  0.2064 -0.0918
 1112YOPC   D3B16181  -1.220  11.521   7.322  0.0207  0.1692 -0.0339
 1112YOPC   C4B16182  -1.255  11.914   7.581  0.1978  0.1276  0.1515
 1113YOPC   NC316183   6.125  16.353   5.530 -0.3485  0.0164  0.1546
 1113YOPC   PO416184   5.708  16.133   5.529  0.0576  0.0193  0.0801
 1113YOPC   GL116185   5.717  16.282   6.022  0.0523  0.1584 -0.4302
 1113YOPC   GL216186   5.922  16.504   5.998 -0.1877  0.1469  0.1925
 1113YOPC   C1A16187   5.872  16.063   6.439 -0.2508  0.1080  0.0019
 1113YOPC   D2A16188   6.069  16.237   6.751  0.1217  0.0442 -0.1257
 1113YOPC   C3A16189   5.970  16.238   7.182 -0.1112  0.2352  0.1128
 1113YOPC   C4A16190   5.896  16.223   7.582  0.3385 -0.0007  0.0773
 1113YOPC   C1B16191   6.272  16.399   6.287 -0.0072 -0.0916 -0.2002
 1113YOPC   C2B16192   6.590  16.292   6.543 -0.0394  0.2881 -0.0476
 1113YOPC   D3B16193   6.789  15.816   6.586 -0.2325 -0.2868  0.2894
 1113YOPC   C4B16194   6.995  15.471   6.453  0.0210 -0.1710  0.0376
 1114YOPC   NC316195   1.797  10.230   5.378  0.2657  0.0148  0.5049
 1114YOPC   PO416196   1.555  10.173   5.747  0.0266 -0.3609 -0.1185
 1114YOPC   GL116197   1.360  10.124   6.192 -0.0174 -0.1336  0.0145
 1114YOPC   GL216198   1.352  10.298   6.424 -0.0280  0.3086  0.0608
 1114YOPC   C1A16199   1.103   9.823   6.541 -0.1709 -0.0849  0.2345
 1114YOPC   D2A16200   1.109   9.429   6.757  0.3276  0.0799  0.0927
 1114YOPC   C3A16201   1.008   9.373   7.223 -0.1865  0.0618  0.1816
 1114YOPC   C4A16202   0.841   9.259   7.654  0.3693 -0.0382  0.0753
 1114YOPC   C1B16203   1.266  10.127   6.825  0.0791 -0.1742 -0.0759
 1114YOPC   C2B16204   0.917   9.869   7.053 -0.2530  0.0853 -0.0834
 1114YOPC   D3B16205   0.736   9.823   7.460  0.1085 -0.1393  0.5626
 1114YOPC   C4B16206   0.629   9.884   7.876  0.1315 -0.2468 -0.1870
 1115YOPC   NC316207  14.781   7.190   5.235  0.1140  0.0357 -0.3514
 1115YOPC   PO416208  14.775   7.711   5.146  0.0365  0.1133  0.3287
 1115YOPC   GL116209  14.894   7.629   5.557 -0.5496  0.2681  0.0108
 1115YOPC   GL216210  14.940   7.974   5.681 -0.0800  0.0120 -0.2425
 1115YOPC   C1A16211  14.993   7.571   5.993  0.3253 -0.0123 -0.1909
 1115YOPC   D2A16212  15.165   7.867   6.309 -0.0449  0.2737  0.0566
 1115YOPC   C3A16213  14.990   8.022   6.705  0.1056  0.0254 -0.1678
 1115YOPC   C4A16214  15.233   8.009   7.084  0.0469 -0.2839 -0.1852
 1115YOPC   C1B16215  15.192   8.272   6.024 -0.0823  0.0673 -0.0086
 1115YOPC   C2B16216  15.091   8.422   6.434  0.1254 -0.2906  0.2013
 1115YOPC   D3B16217  14.730   8.494   6.706  0.3572 -0.0481 -0.1133
 1115YOPC   C4B16218  14.312   8.282   6.796  0.1955  0.2742  0.1182
 1116YOPC   NC316219  14.847   2.425   5.400  0.0631 -0.1059 -0.3559
 1116YOPC   PO416220  14.812   2.882   5.367 -0.3704  0.0279  0.2263
 1116YOPC   GL116221  14.809   2.933   5.816 -0.0926 -0.0177  0.3632
 1116YOPC   GL216222  14.726   2.661   5.953 -0.1723  0.5055 -0.0237
 1116YOPC   C1A16223  14.797   3.201   6.112 -0.0624  0.2266 -0.1504
 1116YOPC   D2A16224  14.925   3.570   6.051  0.0291  0.0874  0.2034
 1116YOPC   C3A16225  15.264   3.683   5.992 -0.2153  0.1939 -0.1642
 1116YOPC   C4A16226  15.546   3.441   5.749 -0.2512 -0.1571 -0.0844
 1116YOPC   C1B16227  14.771   2.757   6.341  0.3028 -0.0037  0.2162
 1116YOPC   C2B16228  15.048   2.665   6.728 -0.0363 -0.0082 -0.0417
 1116YOPC   D3B16229  15.009   2.879   7.200  0.2026  0.3331  0.0525
 1116YOPC   C4B16230  15.215   2.838   7.562  0.0656 -0.2739 -0.1142
 1117YOPC   NC316231  13.306  15.536   6.202 -0.1331 -0.1007 -0.1944
 1117YOPC   PO416232  13.568  15.878   6.081 -0.3777  0.0633  0.0889
 1117YOPC   GL116233  13.568  15.818   6.594  0.1420 -0.2636  0.2167
 1117YOPC   GL216234  13.494  15.476   6.754 -0.0924 -0.4206  0.2789
 1117YOPC   C1A16235  13.587  16.007   6.969 -0.0318  0.1174 -0.1766
 1117YOPC   D2A16236  13.633  16.199   7.341 -0.0493  0.0841 -0.0298
 1117YOPC   C3A16237  13.515  16.640   7.570 -0.0630 -0.0355  0.4377
 1117YOPC   C4A16238  13.601  16.937   7.806  0.2352 -0.1804  0.0869
 1117YOPC   C1B16239  13.646  15.553   7.234  0.1264 -0.1460 -0.2249
 1117YOPC   C2B16240  13.633  15.415   7.690  0.1346  0.1687 -0.0641
 1117YOPC   D3B16241  13.416  15.277   8.049 -0.0168 -0.3333  0.1894
 1117YOPC   C4B16242  13.086  15.387   8.344  0.2343 -0.2724  0.1932
 1118YOPC   NC316243   3.851   7.155   5.964  0.1771 -0.0229  0.1959
 1118YOPC   PO416244   3.471   6.923   5.875  0.0076  0.0620  0.1363
 1118YOPC   GL116245   3.492   7.086   6.288  0.0520  0.1202 -0.0047
 1118YOPC   GL216246   3.856   7.137   6.437 -0.1807  0.0230 -0.1284
 1118YOPC   C1A16247   3.427   7.133   6.731 -0.1402  0.2117 -0.1038
 1118YOPC   D2A16248   3.614   7.082   7.044 -0.2339  0.0180  0.0789
 1118YOPC   C3A16249   3.651   7.411   7.247  0.0207  0.0729 -0.1784
 1118YOPC   C4A16250   3.858   7.666   7.560  0.1807 -0.0753 -0.0461
 1118YOPC   C1B16251   4.028   6.781   6.673 -0.3865 -0.0778 -0.0782
 1118YOPC   C2B16252   4.285   6.631   6.970 -0.0068 -0.3708 -0.0052
 1118YOPC   D3B16253   4.309   6.443   7.370  0.0171 -0.1195 -0.0983
 1118YOPC   C4B16254   4.367   6.072   7.527 -0.0053 -0.2482 -0.0818
 1119YOPC   NC316255   9.906   3.067   5.497 -0.0566 -0.0825 -0.1086
 1119YOPC   PO416256  10.248   2.776   5.412 -0.0610 -0.1309 -0.1285
 1119YOPC   GL116257  10.337   2.504   5.763  0.1388 -0.0909 -0.2175
 1119YOPC   GL216258  10.143   2.541   6.088 -0.0971  0.2315 -0.0958
 1119YOPC   C1A16259  10.609   2.638   6.113 -0.1319  0.2227 -0.0898
 1119YOPC   D2A16260  10.826   2.962   6.294 -0.1957 -0.3796  0.0849
 1119YOPC   C3A16261  10.877   3.178   6.753 -0.4015 -0.3079  0.0689
 1119YOPC   C4A16262  10.832   3.166   7.158 -0.0578  0.0978  0.0531
 1119YOPC   C1B16263  10.251   2.662   6.469  0.3084 -0.1918 -0.2994
 1119YOPC   C2B16264  10.495   2.835   6.732  0.0172 -0.1287 -0.4016
 1119YOPC   D3B16265  10.389   2.994   7.121 -0.1114  0.2792 -0.2509
 1119YOPC   C4B16266  10.482   2.920   7.581  0.1298 -0.1215 -0.2803
 1120YOPC   NC316267  10.795   3.743   5.607  0.0479  0.3617  0.3927
 1120YOPC   PO416268  11.058   4.121   5.680  0.3254  0.1612 -0.0414
 1120YOPC   GL116269  11.295   4.031   5.998  0.0966 -0.1162 -0.2550
 1120YOPC   GL216270  11.202   3.731   6.041 -0.4627  0.2578 -0.3681
 1120YOPC   C1A16271  11.573   4.173   6.218  0.0920 -0.3264  0.1082
 1120YOPC   D2A16272  11.649   4.106   6.702 -0.0240  0.2518  0.1355
 1120YOPC   C3A16273  11.520   4.322   6.987 -0.1418 -0.2462 -0.2076
 1120YOPC   C4A16274  11.254   4.299   7.306  0.1670 -0.1105  0.0149
 1120YOPC   C1B16275  11.182   3.871   6.495 -0.2553 -0.1889 -0.0677
 1120YOPC   C2B16276  11.196   3.951   6.827  0.0945 -0.2351  0.0590
 1120YOPC   D3B16277  10.907   3.944   7.153  0.2682 -0.5229  0.0763
 1120YOPC   C4B16278  10.547   3.940   7.388  0.0603 -0.0030 -0.1857
 1121YOPC   NC316279  12.047  11.399   5.975 -0.0593 -0.1120 -0.0901
 1121YOPC   PO416280  11.982  10.989   5.987  0.0495 -0.1000 -0.0557
 1121YOPC   GL116281  12.023  10.726   6.349 -0.0411  0.2746  0.1718
 1121YOPC   GL216282  12.083  10.506   6.404  0.1170  0.2447 -0.1378
 1121YOPC   C1A16283  11.847  10.856   6.798  0.0405  0.0464  0.1562
 1121YOPC   D2A16284  12.007  10.845   7.280  0.0056 -0.2922 -0.0010
 1121YOPC   C3A16285  11.806  11.023   7.671 -0.3363 -0.2110  0.1850
 1121YOPC   C4A16286  11.706  11.119   8.068  0.0014  0.3095 -0.1947
 1121YOPC   C1B16287  11.716  10.359   6.683 -0.0746  0.0614  0.0135
 1121YOPC   C2B16288  11.590  10.195   7.103 -0.1653 -0.1835  0.0018
 1121YOPC   D3B16289  11.216  10.278   7.328 -0.0687 -0.1324 -0.4291
 1121YOPC   C4B16290  10.801  10.269   7.588  0.0426 -0.2186  0.0757
 1122YOPC   NC316291   0.788  15.725   5.514 -0.2752  0.2031  0.1218
 1122YOPC   PO416292   0.427  15.563   5.783  0.1787 -0.0391  0.1346
 1122YOPC   GL116293   0.514  15.843   6.003 -0.0620 -0.0630 -0.0251
 1122YOPC   GL216294   0.718  16.052   5.908  0.1307  0.0123  0.0433
 1122YOPC   C1A16295   0.798  15.862   6.375  0.0090  0.0462  0.1417
 1122YOPC   D2A16296   0.742  15.823   6.821 -0.0458 -0.1698  0.0220
 1122YOPC   C3A16297   0.754  16.115   7.149 -0.0807  0.1965  0.2519
 1122YOPC   C4A16298   0.948  16.117   7.537  0.0086 -0.5013 -0.2350
 1122YOPC   C1B16299   0.786  16.308   6.277  0.0357 -0.1486 -0.0354
 1122YOPC   C2B16300   0.646  16.350   6.710 -0.1823 -0.0456 -0.0679
 1122YOPC   D3B16301   0.334  16.111   6.841 -0.0349  0.0017 -0.4180
 1122YOPC   C4B16302  -0.080  16.176   6.847 -0.1361  0.1706 -0.2043
 1123YOPC   NC316303  16.504  16.101   6.017 -0.4154 -0.0878 -0.1869
 1123YOPC   PO416304  16.597  16.638   5.976 -0.0505  0.0062 -0.0984
 1123YOPC   GL116305  16.622  16.392   6.386 -0.1459 -0.1839 -0.0498
 1123YOPC   GL216306  16.666  15.969   6.441  0.1695 -0.2801 -0.2046
 1123YOPC   C1A16307  16.596  16.511   6.737  0.1224 -0.2170  0.1700
 1123YOPC   D2A16308  16.492  16.485   7.097 -0.1691 -0.0550  0.0290
 1123YOPC   C3A16309  16.521  16.556   7.495 -0.1973  0.0156 -0.2357
 1123YOPC   C4A16310  16.536  16.832   7.829  0.1552 -0.0350  0.1937
 1123YOPC   C1B16311  16.683  16.057   6.880 -0.1350 -0.3348 -0.0507
 1123YOPC   C2B16312  16.810  16.111   7.273 -0.2596  0.2498 -0.1455
 1123YOPC   D3B16313  16.573  16.066   7.654  0.2192 -0.0422 -0.4001
 1123YOPC   C4B16314  16.571  15.930   8.063 -0.1181  0.0210 -0.1676
 1124YOPC   NC316315  17.141  14.878   5.726 -0.1910 -0.1676 -0.2519
 1124YOPC   PO416316  16.787  14.820   6.056 -0.0968 -0.2168  0.1963
 1124YOPC   GL116317  17.040  15.014   6.364 -0.1141 -0.0398 -0.1259
 1124YOPC   GL216318  16.872  15.259   6.377 -0.2994 -0.0896 -0.2237
 1124YOPC   C1A16319  17.334  15.232   6.605 -0.0675  0.3510 -0.4000
 1124YOPC   D2A16320  17.486  15.580   6.843  0.0930  0.0576  0.0980
 1124YOPC   C3A16321  17.654  15.660   7.261  0.2481 -0.0641  0.0674
 1124YOPC   C4A16322  17.867  15.439   7.655 -0.2990  0.0927 -0.0934
 1124YOPC   C1B16323  16.932  15.615   6.722 -0.1411  0.1079 -0.2921
 1124YOPC   C2B16324  17.103  15.779   7.092 -0.2412 -0.1967 -0.3315
 1124YOPC   D3B16325  17.121  15.855   7.513 -0.1735  0.0428 -0.0139
 1124YOPC   C4B16326  17.441  16.026   7.678 -0.0778  0.0256  0.2398
 1125YOPC   NC316327   3.596   8.351   5.815 -0.1550  0.0058 -0.1927
 1125YOPC   PO416328   3.859   8.449   6.188  0.0693 -0.1357 -0.3244
 1125YOPC   GL116329   3.855   8.545   6.573 -0.2642 -0.1118  0.0548
 1125YOPC   GL216330   4.029   8.856   6.530 -0.0700  0.0705  0.0791
 1125YOPC   C1A16331   3.906   8.408   6.991 -0.4452 -0.1031  0.1733
 1125YOPC   D2A16332   3.894   8.415   7.411 -0.0738 -0.0301 -0.0288
 1125YOPC   C3A16333   3.595   8.734   7.703  0.4165  0.3071  0.1974
 1125YOPC   C4A16334   3.513   8.866   8.072 -0.0206 -0.3041  0.0425
 1125YOPC   C1B16335   4.325   8.780   6.860  0.1001  0.3262 -0.1455
 1125YOPC   C2B16336   4.390   8.622   7.328 -0.0600  0.0832  0.0975
 1125YOPC   D3B16337   4.372   8.832   7.726  0.0096  0.1126 -0.0064
 1125YOPC   C4B16338   4.016   8.750   8.044  0.2541  0.0197 -0.1246
 1126YOPC   NC316339  11.917   9.162   5.335 -0.0255  0.0148 -0.2761
 1126YOPC   PO416340  12.043   9.582   5.309  0.2771  0.1153 -0.2297
 1126YOPC   GL116341  11.987   9.450   5.729 -0.2204  0.2102  0.0510
 1126YOPC   GL216342  12.271   9.181   5.805  0.0605  0.1559  0.3882
 1126YOPC   C1A16343  12.228   9.578   6.046  0.0600 -0.2331  0.1933
 1126YOPC   D2A16344  12.310   9.365   6.426  0.2186  0.1178 -0.0777
 1126YOPC   C3A16345  12.389   9.428   6.876  0.1196 -0.0510 -0.3265
 1126YOPC   C4A16346  12.416   9.586   7.280  0.4314  0.0677  0.2465
 1126YOPC   C1B16347  12.024   9.011   6.195  0.1810  0.1671  0.2198
 1126YOPC   C2B16348  11.815   8.829   6.591 -0.0608  0.3317  0.1319
 1126YOPC   D3B16349  11.843   8.702   6.993 -0.1695 -0.1527  0.1365
 1126YOPC   C4B16350  11.524   8.683   7.281  0.3423  0.1359  0.1958
 1127YOPC   NC316351   7.623  12.744   5.936 -0.0917  0.1270  0.0918
 1127YOPC   PO416352   7.180  12.885   5.939  0.1277  0.0293 -0.0316
 1127YOPC   GL116353   7.236  12.904   6.294  0.0542  0.0828 -0.0891
 1127YOPC   GL216354   7.391  12.761   6.522  0.0026 -0.3150 -0.2949
 1127YOPC   C1A16355   7.221  13.215   6.728 -0.0275  0.1909 -0.3974
 1127YOPC   D2A16356   7.238  13.246   7.208 -0.1162  0.1066  0.4389
 1127YOPC   C3A16357   7.443  13.459   7.446  0.0576 -0.0903  0.0618
 1127YOPC   C4A16358   7.629  13.648   7.826  0.0990  0.1192  0.1090
 1127YOPC   C1B16359   7.410  12.797   6.920 -0.0088 -0.0731  0.0179
 1127YOPC   C2B16360   7.402  12.791   7.386  0.1098 -0.4470 -0.0201
 1127YOPC   D3B16361   7.090  12.680   7.703 -0.3017 -0.1605  0.0689
 1127YOPC   C4B16362   6.738  12.358   7.972  0.0147  0.1747  0.1051
 1128YOPC   NC316363   8.667  11.845   6.235 -0.0012  0.0765 -0.0891
 1128YOPC   PO416364   9.067  11.769   6.267  0.0618  0.1876 -0.0270
 1128YOPC   GL116365   9.029  11.734   6.645  0.0883 -0.0036 -0.1492
 1128YOPC   GL216366   8.678  11.625   6.681 -0.2065  0.2210  0.1049
 1128YOPC   C1A16367   9.257  11.783   7.022  0.1932  0.3841 -0.3900
 1128YOPC   D2A16368   9.233  11.695   7.356 -0.0811 -0.0275  0.1600
 1128YOPC   C3A16369   9.242  11.896   7.707 -0.0297 -0.0186  0.0577
 1128YOPC   C4A16370   9.441  12.068   8.183 -0.0431  0.1332  0.1443
 1128YOPC   C1B16371   8.736  11.726   7.197 -0.1587  0.0357  0.0807
 1128YOPC   C2B16372   8.719  11.877   7.653  0.0397  0.1304  0.1481
 1128YOPC   D3B16373   8.763  12.283   7.910 -0.2818  0.2514  0.3050
 1128YOPC   C4B16374   8.669  12.636   7.886 -0.1807  0.0718  0.1240
 1129YOPC   NC316375  14.008  15.785   5.749 -0.1522 -0.2050  0.0302
 1129YOPC   PO416376  13.780  15.451   5.883 -0.0887 -0.1701  0.1568
 1129YOPC   GL116377  13.846  15.453   6.388  0.0461 -0.1190 -0.1759
 1129YOPC   GL216378  13.959  15.160   6.363  0.3420 -0.1433  0.1881
 1129YOPC   C1A16379  14.083  15.702   6.710 -0.2754 -0.4382 -0.0613
 1129YOPC   D2A16380  14.057  15.910   7.071  0.0122 -0.0528 -0.1324
 1129YOPC   C3A16381  14.483  16.235   7.141 -0.1514  0.0782  0.4022
 1129YOPC   C4A16382  14.856  16.490   7.169  0.0369  0.0587  0.0417
 1129YOPC   C1B16383  14.162  14.850   6.587 -0.3391  0.0480  0.4181
 1129YOPC   C2B16384  14.614  14.665   6.748 -0.0062  0.2294  0.0241
 1129YOPC   D3B16385  14.347  14.339   6.991 -0.1425  0.0001 -0.1004
 1129YOPC   C4B16386  14.215  14.019   7.188  0.0116 -0.4688  0.0029
 1130YOPC   NC316387  15.571  11.075   5.771  0.1329  0.0352 -0.0734
 1130YOPC   PO416388  15.953  10.905   5.861 -0.2432  0.1462  0.1151
 1130YOPC   GL116389  15.838  11.159   6.250  0.0916 -0.1736  0.1731
 1130YOPC   GL216390  15.919  11.438   6.330  0.0533 -0.1678 -0.0850
 1130YOPC   C1A16391  15.779  10.959   6.729  0.4024 -0.2400  0.1997
 1130YOPC   D2A16392  15.457  10.883   6.883  0.2150  0.0513  0.2058
 1130YOPC   C3A16393  15.330  10.430   7.004  0.0592 -0.1715 -0.1145
 1130YOPC   C4A16394  15.355  10.019   7.112 -0.0111  0.1409  0.2043
 1130YOPC   C1B16395  16.133  11.304   6.627  0.1759  0.0907 -0.4122
 1130YOPC   C2B16396  16.586  11.184   6.770 -0.1773  0.0100  0.2279
 1130YOPC   D3B16397  16.862  11.124   7.097 -0.0032  0.0618 -0.2130
 1130YOPC   C4B16398  16.889  10.780   7.329 -0.3096 -0.1364  0.1109
 1131YOPC   NC316399   9.348   0.716   5.823 -0.1602 -0.1127  0.0597
 1131YOPC   PO416400   9.812   0.891   5.784 -0.5027 -0.0263  0.1382
 1131YOPC   GL116401   9.666   0.825   6.184  0.1000 -0.1322  0.0316
 1131YOPC   GL216402   9.718   1.025   6.376  0.0295  0.3581  0.0868
 1131YOPC   C1A16403   9.648   0.527   6.580 -0.0077  0.0483 -0.1146
 1131YOPC   D2A16404   9.506   0.517   6.987  0.0399 -0.1083  0.1506
 1131YOPC   C3A16405   9.279   0.718   7.163  0.0788  0.2163 -0.1618
 1131YOPC   C4A16406   9.160   0.750   7.618 -0.0421 -0.0464 -0.0468
 1131YOPC   C1B16407   9.763   0.973   6.888 -0.1063  0.0619 -0.4350
 1131YOPC   C2B16408   9.527   1.126   7.316 -0.0242  0.0838 -0.2710
 1131YOPC   D3B16409   9.093   1.366   7.460 -0.1510 -0.1276 -0.1206
 1131YOPC   C4B16410   8.599   1.601   7.536 -0.0027  0.1561 -0.0695
 1132YOPC   NC316411   7.048   5.141   6.296  0.1279  0.0544  0.2419
 1132YOPC   PO416412   6.909   4.840   6.222  0.2080  0.1013 -0.1687
 1132YOPC   GL116413   6.794   4.945   6.662 -0.1849  0.1469  0.2365
 1132YOPC   GL216414   6.744   5.332   6.806 -0.0856  0.2937  0.0258
 1132YOPC   C1A16415   6.886   4.906   7.071 -0.0599 -0.0515 -0.4114
 1132YOPC   D2A16416   6.609   4.640   7.289  0.6364  0.0253 -0.1105
 1132YOPC   C3A16417   6.415   4.652   7.616 -0.0248  0.0950 -0.0730
 1132YOPC   C4A16418   6.198   4.578   8.013 -0.1578  0.5194  0.1395
 1132YOPC   C1B16419   6.823   5.409   7.272 -0.1324  0.0372  0.2016
 1132YOPC   C2B16420   6.787   5.393   7.720 -0.0496  0.1912  0.2541
 1132YOPC   D3B16421   7.039   5.206   7.986 -0.0775 -0.1452 -0.0905
 1132YOPC   C4B16422   7.318   5.080   8.417  0.0726 -0.0558  0.0613
 1133YOPC   NC316423   0.864  12.404   5.492 -0.0048  0.2156 -0.1005
 1133YOPC   PO416424   0.865  12.503   5.883  0.1849 -0.1637 -0.0255
 1133YOPC   GL116425   0.978  12.281   6.218  0.0425  0.1030  0.0476
 1133YOPC   GL216426   0.875  11.972   6.311  0.1457 -0.0597 -0.1745
 1133YOPC   C1A16427   0.973  12.348   6.669 -0.2233 -0.0095 -0.0307
 1133YOPC   D2A16428   1.247  12.573   6.928  0.2750 -0.0865 -0.0428
 1133YOPC   C3A16429   1.339  12.532   7.431  0.0351  0.0553  0.1506
 1133YOPC   C4A16430   1.463  12.576   7.775 -0.4206 -0.0850  0.1110
 1133YOPC   C1B16431   0.769  11.747   6.729  0.2610 -0.2794 -0.2055
 1133YOPC   C2B16432   0.724  11.417   7.022 -0.0024  0.0765  0.1194
 1133YOPC   D3B16433   0.767  11.487   7.456 -0.0343 -0.1609  0.0542
 1133YOPC   C4B16434   1.003  11.332   7.833  0.2789  0.0156  0.1329
 1134YOPC   NC316435   7.054  10.395   6.013 -0.1884 -0.0598 -0.0991
 1134YOPC   PO416436   7.395  10.615   6.195  0.0513 -0.0588  0.0591
 1134YOPC   GL116437   7.499  10.654   6.604  0.0431  0.5429  0.0590
 1134YOPC   GL216438   7.747  10.542   6.779 -0.0567  0.1135 -0.2623
 1134YOPC   C1A16439   7.418  10.854   7.005  0.1703 -0.0781  0.0700
 1134YOPC   D2A16440   7.341  11.239   7.294 -0.0102 -0.1257 -0.1571
 1134YOPC   C3A16441   7.104  11.135   7.680  0.1612 -0.1319 -0.1177
 1134YOPC   C4A16442   7.078  11.344   8.093  0.2653 -0.0465  0.0571
 1134YOPC   C1B16443   7.822  10.655   7.200  0.3573 -0.1871  0.0303
 1134YOPC   C2B16444   8.080  10.846   7.560 -0.1317 -0.1832  0.0032
 1134YOPC   D3B16445   7.910  10.641   7.939 -0.0891  0.0278  0.0461
 1134YOPC   C4B16446   7.820  10.457   8.234  0.1298  0.4095 -0.0889
 1135YOPC   NC316447  10.065   6.622   5.351  0.0453  0.1724  0.0714
 1135YOPC   PO416448  10.262   6.117   5.292 -0.0143 -0.0036 -0.0744
 1135YOPC   GL116449  10.343   6.197   5.714  0.0040 -0.0771  0.1640
 1135YOPC   GL216450  10.440   6.590   5.835 -0.2173  0.0468  0.3607
 1135YOPC   C1A16451  10.053   6.290   6.045  0.1742 -0.2555  0.1864
 1135YOPC   D2A16452  10.089   6.227   6.501 -0.0770 -0.1176 -0.0353
 1135YOPC   C3A16453   9.777   6.046   6.767  0.2760 -0.1950 -0.0047
 1135YOPC   C4A16454   9.562   5.911   7.083  0.2197 -0.0316 -0.0633
 1135YOPC   C1B16455  10.428   6.573   6.264  0.1291  0.0191 -0.1009
 1135YOPC   C2B16456  10.229   6.670   6.690 -0.2530 -0.1756  0.0517
 1135YOPC   D3B16457  10.195   6.384   7.015 -0.2977 -0.0596  0.0308
 1135YOPC   C4B16458  10.174   6.250   7.445 -0.1862  0.0503  0.0729
 1136YOPC   NC316459  14.940  17.955   5.960 -0.0249  0.0831  0.0887
 1136YOPC   PO416460  14.661  18.253   6.106  0.0928  0.3127 -0.1133
 1136YOPC   GL116461  14.313  18.248   6.412 -0.2542 -0.0898  0.2178
 1136YOPC   GL216462  14.227  18.633   6.360 -0.1067  0.1551 -0.3379
 1136YOPC   C1A16463  14.167  18.119   6.849 -0.1603  0.1456  0.1297
 1136YOPC   D2A16464  14.121  18.067   7.244 -0.0919 -0.0839 -0.0220
 1136YOPC   C3A16465  14.286  17.610   7.508 -0.1899 -0.1403 -0.2138
 1136YOPC   C4A16466  14.364  17.626   7.858 -0.2705  0.2837  0.1003
 1136YOPC   C1B16467  14.097  18.647   6.751  0.0891  0.1449  0.0893
 1136YOPC   C2B16468  14.084  18.578   7.149 -0.1675  0.0194 -0.0876
 1136YOPC   D3B16469  14.034  18.545   7.585 -0.0580 -0.1942  0.0427
 1136YOPC   C4B16470  14.277  18.580   7.958  0.0600  0.1413 -0.1074
 1137YOPC   NC316471  11.649   8.433   5.574 -0.2994  0.0038  0.0889
 1137YOPC   PO416472  11.330   8.240   5.449 -0.1965  0.2098  0.1866
 1137YOPC   GL116473  11.225   8.055   5.838  0.1518  0.0707 -0.1562
 1137YOPC   GL216474  11.491   8.070   5.904 -0.2564  0.3900 -0.2046
 1137YOPC   C1A16475  10.877   8.077   6.123 -0.1575  0.2945  0.0076
 1137YOPC   D2A16476  10.520   8.256   6.434 -0.0758 -0.1155 -0.1203
 1137YOPC   C3A16477  10.563   8.268   6.878  0.0821 -0.0981 -0.1272
 1137YOPC   C4A16478  10.204   8.250   7.254  0.0466 -0.0353 -0.0544
 1137YOPC   C1B16479  11.298   7.969   6.323 -0.2102  0.1251  0.2394
 1137YOPC   C2B16480  10.991   8.114   6.658  0.0399  0.1831  0.2122
 1137YOPC   D3B16481  10.968   7.989   7.045 -0.1424  0.1693 -0.0710
 1137YOPC   C4B16482  10.827   8.224   7.345 -0.0729  0.1141 -0.2243
 1138YOPC   NC316483   5.078  15.595   5.844 -0.0535  0.2812 -0.2696
 1138YOPC   PO416484   4.695  15.613   6.076 -0.0430  0.0803  0.1817
 1138YOPC   GL116485   5.082  15.597   6.395 -0.0664  0.3076 -0.0518
 1138YOPC   GL216486   5.256  15.758   6.300 -0.1101 -0.0606 -0.0909
 1138YOPC   C1A16487   5.067  15.798   6.760  0.1632 -0.1614  0.0892
 1138YOPC   D2A16488   4.860  16.129   7.022  0.0395  0.0668  0.2007
 1138YOPC   C3A16489   4.861  16.086   7.531 -0.1663 -0.2479 -0.2167
 1138YOPC   C4A16490   4.671  15.866   7.865 -0.0695 -0.0803  0.0159
 1138YOPC   C1B16491   5.539  15.763   6.614  0.2388  0.1671 -0.0542
 1138YOPC   C2B16492   5.820  15.831   6.894 -0.0070  0.0323 -0.3210
 1138YOPC   D3B16493   5.724  15.752   7.298 -0.1853  0.1078 -0.4025
 1138YOPC   C4B16494   5.558  15.899   7.671  0.0371  0.0943 -0.3906
 1139YOPC   NC316495   9.160  15.597   5.865  0.1420  0.1926  0.0259
 1139YOPC   PO416496   9.540  15.706   5.996 -0.0876  0.1342  0.0468
 1139YOPC   GL116497   9.687  15.984   6.310  0.1407  0.1347  0.0776
 1139YOPC   GL216498   9.604  16.339   6.286 -0.0377  0.1004 -0.3363
 1139YOPC   C1A16499   9.882  16.095   6.585  0.1314 -0.4019 -0.1357
 1139YOPC   D2A16500   9.843  16.032   7.035  0.1841 -0.1532  0.0863
 1139YOPC   C3A16501   9.644  16.280   7.324 -0.1879 -0.1592 -0.2359
 1139YOPC   C4A16502   9.639  16.638   7.515  0.4118  0.1791  0.1248
 1139YOPC   C1B16503   9.596  16.504   6.737  0.0584 -0.1406 -0.1611
 1139YOPC   C2B16504   9.717  16.821   7.073 -0.0915 -0.1420  0.1351
 1139YOPC   D3B16505   9.420  17.043   7.296  0.2628  0.0426 -0.2686
 1139YOPC   C4B16506   9.324  17.474   7.408  0.0916  0.0743 -0.1660
 1140YOPC   NC316507   5.419   5.366   6.281  0.1827  0.2310 -0.0084
 1140YOPC   PO416508   5.892   5.254   6.327  0.2801 -0.2120 -0.1507
 1140YOPC   GL116509   5.744   5.221   6.675  0.0511  0.0575 -0.0521
 1140YOPC   GL216510   5.484   4.993   6.602 -0.1009  0.1843 -0.2506
 1140YOPC   C1A16511   5.896   5.439   7.033 -0.2478 -0.0049 -0.2176
 1140YOPC   D2A16512   5.944   5.624   7.438 -0.3858 -0.1969  0.2295
 1140YOPC   C3A16513   5.534   5.643   7.719  0.0323 -0.0157 -0.0928
 1140YOPC   C4A16514   5.307   5.717   8.040  0.1355 -0.1037 -0.1792
 1140YOPC   C1B16515   5.520   5.014   7.057 -0.0463 -0.0165  0.0744
 1140YOPC   C2B16516   5.618   5.136   7.475 -0.0480 -0.1829 -0.0373
 1140YOPC   D3B16517   5.513   5.124   7.879 -0.1458 -0.0465  0.1885
 1140YOPC   C4B16518   5.224   5.025   8.279  0.1764  0.0458 -0.1860
 1141YOPC   NC316519   4.310   8.700   6.079  0.1248 -0.3542 -0.2505
 1141YOPC   PO416520   4.716   8.731   5.909  0.0622  0.1733  0.2379
 1141YOPC   GL116521   4.813   8.424   6.244 -0.0286  0.1026  0.2125
 1141YOPC   GL216522   4.652   8.495   6.503 -0.1100 -0.1715 -0.2911
 1141YOPC   C1A16523   4.962   8.131   6.538  0.2900  0.2715 -0.0395
 1141YOPC   D2A16524   4.722   7.923   6.862  0.2814 -0.2848  0.2036
 1141YOPC   C3A16525   4.865   7.916   7.285  0.3293 -0.1267  0.1582
 1141YOPC   C4A16526   4.716   7.745   7.691  0.1662  0.0986  0.0262
 1141YOPC   C1B16527   4.737   8.453   6.923 -0.1254 -0.0112  0.0463
 1141YOPC   C2B16528   4.883   8.409   7.370  0.2309 -0.1607  0.2312
 1141YOPC   D3B16529   4.664   8.317   7.758 -0.1364 -0.2044  0.3589
 1141YOPC   C4B16530   4.573   8.198   8.157 -0.1323  0.0355 -0.3433
 1142YOPC   NC316531  12.250   0.885   5.289  0.1198 -0.0456  0.0314
 1142YOPC   PO416532  12.424   0.696   5.597 -0.4568 -0.1688  0.0971
 1142YOPC   GL116533  12.339   0.838   6.043  0.1010  0.1351 -0.1651
 1142YOPC   GL216534  12.025   0.765   6.105 -0.0625 -0.0417 -0.0287
 1142YOPC   C1A16535  12.566   1.215   6.208 -0.0184 -0.0559 -0.1888
 1142YOPC   D2A16536  12.385   1.422   6.508  0.0577  0.0179  0.1761
 1142YOPC   C3A16537  12.491   1.557   6.951  0.0500  0.3129 -0.0640
 1142YOPC   C4A16538  12.391   1.444   7.328 -0.3065 -0.0202  0.2392
 1142YOPC   C1B16539  11.982   0.535   6.477  0.2809  0.0251  0.0795
 1142YOPC   C2B16540  12.229   0.644   6.861 -0.1348  0.1147 -0.0496
 1142YOPC   D3B16541  12.223   1.039   7.080  0.0394  0.0306 -0.2977
 1142YOPC   C4B16542  11.911   1.276   7.338  0.1825  0.0332 -0.4074
 1143YOPC   NC316543  14.389   4.904   5.373 -0.0211 -0.4174 -0.3638
 1143YOPC   PO416544  14.017   4.692   5.585  0.2779 -0.0140 -0.0839
 1143YOPC   GL116545  14.093   4.995   5.917  0.3385  0.1466  0.2543
 1143YOPC   GL216546  13.841   5.119   5.946  0.1636  0.0991  0.4770
 1143YOPC   C1A16547  14.086   5.090   6.355 -0.2761 -0.1868 -0.2518
 1143YOPC   D2A16548  14.081   5.327   6.610 -0.0934  0.0649 -0.1382
 1143YOPC   C3A16549  13.846   5.434   6.998 -0.1656  0.0664 -0.2271
 1143YOPC   C4A16550  13.512   5.485   7.333 -0.0917 -0.2513 -0.0479
 1143YOPC   C1B16551  13.944   5.519   6.145  0.4298 -0.0440  0.1520
 1143YOPC   C2B16552  13.872   5.898   6.181 -0.1025 -0.1089 -0.0356
 1143YOPC   D3B16553  13.486   5.905   6.415 -0.2461  0.3043 -0.0841
 1143YOPC   C4B16554  13.106   6.043   6.517 -0.0142 -0.0276  0.0118
 1144YOPC   NC316555   8.320  15.056   5.810 -0.1093  0.0609  0.0463
 1144YOPC   PO416556   8.581  14.781   6.057  0.3301  0.0247  0.4113
 1144YOPC   GL116557   8.919  14.866   6.467 -0.1993  0.1560 -0.1546
 1144YOPC   GL216558   8.795  14.668   6.575 -0.0515 -0.2363  0.1045
 1144YOPC   C1A16559   8.988  15.118   6.864 -0.1034  0.0248 -0.1137
 1144YOPC   D2A16560   9.379  15.162   7.087 -0.0795  0.1357  0.0635
 1144YOPC   C3A16561   9.430  15.280   7.541  0.0425 -0.1514  0.0722
 1144YOPC   C4A16562   9.504  15.447   7.965 -0.1561 -0.2229 -0.3166
 1144YOPC   C1B16563   8.687  14.751   7.019  0.2479 -0.2767  0.0195
 1144YOPC   C2B16564   8.715  14.838   7.464 -0.2333  0.1062  0.1382
 1144YOPC   D3B16565   8.915  15.256   7.459 -0.1887  0.0253 -0.0282
 1144YOPC   C4B16566   9.046  15.523   7.145 -0.1137 -0.0247  0.2147
 1145YOPC   NC316567  13.165  13.756   5.841  0.1404  0.2591  0.3094
 1145YOPC   PO416568  13.016  13.340   5.590 -0.0316 -0.1486  0.0285
 1145YOPC   GL116569  13.144  13.352   6.096  0.1146 -0.2855 -0.1015
 1145YOPC   GL216570  13.446  13.285   6.212  0.2737  0.1887  0.2284
 1145YOPC   C1A16571  12.978  13.208   6.427  0.3040 -0.6347  0.0916
 1145YOPC   D2A16572  12.624  12.959   6.425 -0.0076  0.3026  0.3308
 1145YOPC   C3A16573  12.206  13.020   6.594 -0.1627  0.2945 -0.1232
 1145YOPC   C4A16574  11.858  12.838   6.691  0.2376 -0.0364 -0.1388
 1145YOPC   C1B16575  13.380  13.019   6.584 -0.3420  0.1735 -0.1190
 1145YOPC   C2B16576  13.271  12.884   6.867  0.1625  0.0254 -0.0517
 1145YOPC   D3B16577  12.883  12.935   6.890  0.0973  0.0277 -0.0827
 1145YOPC   C4B16578  12.609  12.975   7.285 -0.0116  0.1047 -0.2153
 1146ERGO   ROH16579  12.181  18.323   6.288  0.1973  0.0940 -0.0383
 1146ERGO    R116580  12.208  18.401   6.559  0.2211 -0.0305 -0.0036
 1146ERGO    R216581  11.996  18.493   6.710  0.2859  0.1607 -0.0230
 1146ERGO    R316582  12.072  18.295   6.880  0.0207  0.0109 -0.0740
 1146ERGO    R416583  11.952  18.500   7.053  0.1323  0.0480 -0.0401
 1146ERGO    R516584  12.150  18.411   7.074  0.0399 -0.1490  0.0145
 1146ERGO    C116585  11.999  18.318   7.412 -0.2064 -0.1583 -0.0977
 1146ERGO    C216586  12.002  18.242   7.666 -0.4451  0.0069  0.2196
 1147ERGO   ROH16587   2.453  11.429   6.526  0.0400 -0.1088 -0.0358
 1147ERGO    R116588   2.539  11.335   6.779  0.0167 -0.2171 -0.0681
 1147ERGO    R216589   2.749  11.158   6.808  0.2526  0.0513 -0.1060
 1147ERGO    R316590   2.845  11.349   6.976 -0.1186  0.0397  0.1316
 1147ERGO    R416591   2.974  11.101   7.064  0.3167  0.1547 -0.1386
 1147ERGO    R516592   2.860  11.240   7.189  0.0403 -0.1863  0.0099
 1147ERGO    C116593   3.195  11.248   7.371  0.0056  0.2040  0.0655
 1147ERGO    C216594   3.459  11.061   7.406 -0.1926 -0.0111  0.0690
 1148ERGO   ROH16595   4.552   2.222   6.485 -0.0176  0.3724 -0.0532
 1148ERGO    R116596   4.457   2.209   6.752  0.0054  0.2124 -0.0520
 1148ERGO    R216597   4.617   2.263   6.970  0.0342  0.0459 -0.0301
 1148ERGO    R316598   4.419   2.439   7.031  0.0658  0.0366  0.1031
 1148ERGO    R416599   4.556   2.391   7.286  0.1776 -0.0314  0.0300
 1148ERGO    R516600   4.342   2.370   7.247  0.1599 -0.0151  0.1202
 1148ERGO    C116601   4.334   2.631   7.526  0.2907 -0.0850  0.1901
 1148ERGO    C216602   4.475   2.706   7.875  0.1724  0.1326 -0.1256
 1149ERGO   ROH16603   4.762  13.921   6.863  0.1179 -0.0997 -0.0650
 1149ERGO    R116604   4.800  14.171   6.991 -0.0134 -0.1392  0.0505
 1149ERGO    R216605   4.891  14.193   7.251  0.0463 -0.2136  0.0300
 1149ERGO    R316606   5.079  14.353   7.137 -0.0930 -0.0218  0.0602
 1149ERGO    R416607   5.081  14.426   7.421  0.1739 -0.4152  0.1712
 1149ERGO    R516608   5.057  14.562   7.253 -0.0200 -0.1798  0.3766
 1149ERGO    C116609   5.368  14.712   7.414  0.1173 -0.3526  0.2818
 1149ERGO    C216610   5.534  14.920   7.657  0.0699  0.0282  0.2564
 1150ERGO   ROH16611  15.832  10.667   6.341 -0.2161  0.1101  0.0077
 1150ERGO    R116612  15.777  10.474   6.541 -0.3679  0.2020  0.0547
 1150ERGO    R216613  15.976  10.334   6.672 -0.4846 -0.0988 -0.0918
 1150ERGO    R316614  15.853  10.430   6.894 -0.1743  0.0993  0.0036
 1150ERGO    R416615  16.022  10.210   6.991 -0.2735 -0.0343 -0.0943
 1150ERGO    R516616  15.808  10.234   7.026 -0.2264  0.1795  0.1149
 1150ERGO    C116617  15.932  10.228   7.386  0.1409  0.1893 -0.0063
 1150ERGO    C216618  16.127  10.226   7.531  0.1358  0.3840  0.0731
 1151ERGO   ROH16619   9.321  13.095   6.470  0.1268 -0.0157 -0.0611
 1151ERGO    R116620   9.432  13.079   6.730  0.1411  0.0910 -0.0628
 1151ERGO    R216621   9.612  13.266   6.827 -0.1186  0.3169 -0.0316
 1151ERGO    R316622   9.432  13.285   7.030 -0.1459  0.0409 -0.0223
 1151ERGO    R416623   9.684  13.383   7.144 -0.1772  0.0165  0.0986
 1151ERGO    R516624   9.557  13.226   7.226 -0.1327 -0.1222 -0.0711
 1151ERGO    C116625   9.557  13.469   7.519 -0.2372 -0.4175  0.1832
 1151ERGO    C216626   9.509  13.403   7.769  0.1644 -0.0012  0.0888
 1152ERGO   ROH16627   0.779   6.124   7.916 -0.0643  0.0762 -0.0202
 1152ERGO    R116628   0.994   6.203   8.081 -0.1048  0.2185 -0.0348
 1152ERGO    R216629   1.245   6.088   8.064 -0.1502  0.0667  0.2525
 1152ERGO    R316630   1.326   6.346   8.033 -0.0133 -0.0120 -0.0964
 1152ERGO    R416631   1.574   6.195   8.072 -0.0922 -0.0901  0.0679
 1152ERGO    R516632   1.509   6.369   8.185  0.0172  0.0936 -0.1519
 1152ERGO    C116633   1.841   6.498   8.048  0.0700 -0.2552 -0.3670
 1152ERGO    C216634   2.192   6.518   8.004  0.0024 -0.1907 -0.4090
 1153ERGO   ROH16635   0.994  12.907   6.347 -0.1592  0.0152 -0.0830
 1153ERGO    R116636   0.723  12.869   6.419 -0.1341 -0.0623 -0.0321
 1153ERGO    R216637   0.574  12.654   6.331 -0.1096 -0.0572 -0.0704
 1153ERGO    R316638   0.529  12.617   6.596 -0.0468 -0.1604 -0.0723
 1153ERGO    R416639   0.275  12.548   6.468 -0.0316 -0.2722 -0.0600
 1153ERGO    R516640   0.304  12.691   6.630 -0.0894 -0.2981 -0.0196
 1153ERGO    C116641   0.059  12.452   6.797  0.0728 -0.4942 -0.0556
 1153ERGO    C216642  -0.038  12.139   6.826 -0.1606  0.0995 -0.1681
 1154ERGO   ROH16643   8.949  14.108   6.606 -0.2265 -0.3268  0.0371
 1154ERGO    R116644   9.029  14.116   6.877 -0.1006 -0.3711  0.0019
 1154ERGO    R216645   8.927  14.299   7.058  0.1913 -0.2141  0.0144
 1154ERGO    R316646   8.868  14.076   7.202 -0.0126 -0.1216  0.0786
 1154ERGO    R416647   8.916  14.284   7.403  0.1208 -0.0931  0.0180
 1154ERGO    R516648   9.013  14.089   7.392 -0.0338 -0.1756  0.0982
 1154ERGO    C116649   8.855  14.066   7.739 -0.1117  0.0642  0.0802
 1154ERGO    C216650   8.912  14.038   8.079  0.1470  0.1967 -0.0520
 1155ERGO   ROH16651   7.068   2.192   7.702 -0.0344  0.1166 -0.1703
 1155ERGO    R116652   7.314   2.172   7.840 -0.0969 -0.0192 -0.0769
 1155ERGO    R216653   7.503   1.979   7.781 -0.0507  0.0655 -0.2139
 1155ERGO    R316654   7.668   2.194   7.756 -0.0590  0.1147  0.1112
 1155ERGO    R416655   7.834   1.988   7.881 -0.0717 -0.0463 -0.1329
 1155ERGO    R516656   7.801   2.190   7.955 -0.0995 -0.1451  0.1366
 1155ERGO    C116657   8.181   2.194   7.916 -0.0917 -0.0652  0.2195
 1155ERGO    C216658   8.548   2.075   7.758  0.1562 -0.1511  0.1792
 1156ERGO   ROH16659   9.500   9.013   5.947  0.0260  0.0357 -0.0594
 1156ERGO    R116660   9.673   8.994   6.170  0.0041 -0.0885 -0.0530
 1156ERGO    R216661   9.585   9.029   6.430  0.0220 -0.0066 -0.0588
 1156ERGO    R316662   9.699   8.785   6.467 -0.1688 -0.0955 -0.0415
 1156ERGO    R416663   9.630   8.876   6.737  0.1652  0.1094 -0.0202
 1156ERGO    R516664   9.825   8.808   6.669  0.0424 -0.1070 -0.1693
 1156ERGO    C116665   9.762   8.558   6.950  0.0693  0.0936  0.0185
 1156ERGO    C216666   9.682   8.291   7.229  0.1753 -0.1914  0.0070
 1157ERGO   ROH16667  17.421  15.676   6.286  0.1590  0.0055  0.0478
 1157ERGO    R116668  17.382  15.921   6.423  0.0431  0.0593 -0.0814
 1157ERGO    R216669  17.145  16.062   6.410 -0.0498 -0.1024 -0.0930
 1157ERGO    R316670  17.158  16.047   6.681  0.0401  0.0656 -0.0858
 1157ERGO    R416671  17.051  16.315   6.626 -0.4195 -0.1305 -0.2131
 1157ERGO    R516672  17.224  16.267   6.749 -0.3042  0.2216 -0.2231
 1157ERGO    C116673  17.008  16.447   7.007 -0.5502  0.0109 -0.2763
 1157ERGO    C216674  16.915  16.755   7.104 -0.0344  0.0923  0.2462
 1158ERGO   ROH16675   0.828  10.481   6.555  0.1824  0.0538  0.1975
 1158ERGO    R116676   0.910  10.467   6.826  0.0230  0.1321  0.2519
 1158ERGO    R216677   0.816  10.641   7.019 -0.2490  0.0644  0.1921
 1158ERGO    R316678   0.749  10.410   7.147 -0.1397  0.0092  0.1489
 1158ERGO    R416679   0.730  10.618   7.353 -0.2701 -0.0439  0.1788
 1158ERGO    R516680   0.845  10.434   7.365 -0.1768  0.0192  0.1596
 1158ERGO    C116681   0.617  10.389   7.668 -0.1798 -0.1588  0.1307
 1158ERGO    C216682   0.502  10.392   7.974  0.0553 -0.0772  0.0243
 1159ERGO   ROH16683   8.298  12.976   6.257 -0.0871  0.0977 -0.0322
 1159ERGO    R116684   8.268  13.109   6.505 -0.1159  0.0178  0.0056
 1159ERGO    R216685   8.195  12.978   6.736  0.1406 -0.1052  0.0102
 1159ERGO    R316686   8.421  13.093   6.835  0.0606  0.1282 -0.0666
 1159ERGO    R416687   8.241  13.067   7.067  0.2184 -0.2445  0.0390
 1159ERGO    R516688   8.340  13.249   6.998 -0.0534 -0.0659  0.0776
 1159ERGO    C116689   8.479  13.227   7.353  0.1887 -0.1063 -0.0163
 1159ERGO    C216690   8.634  13.106   7.720  0.1760 -0.2309  0.1370
 1160ERGO   ROH16691   8.030   8.149   6.515 -0.0952 -0.1372  0.0381
 1160ERGO    R116692   8.070   7.967   6.729 -0.0746 -0.1877 -0.0072
 1160ERGO    R216693   8.321   7.897   6.821 -0.0626 -0.2143 -0.0491
 1160ERGO    R316694   8.221   7.978   7.060 -0.0375 -0.2641 -0.0226
 1160ERGO    R416695   8.414   7.769   7.128  0.0186 -0.2231 -0.0778
 1160ERGO    R516696   8.205   7.777   7.189  0.0311 -0.2777 -0.0402
 1160ERGO    C116697   8.374   7.770   7.531  0.0894 -0.2750 -0.0697
 1160ERGO    C216698   8.289   7.566   7.757 -0.2011  0.1083  0.1188
 1161ERGO   ROH16699  16.024   5.136   6.037  0.2138 -0.0010 -0.2349
 1161ERGO    R116700  16.176   5.193   6.269  0.0891  0.0498 -0.1622
 1161ERGO    R216701  16.361   5.016   6.373 -0.0552  0.0096  0.0566
 1161ERGO    R316702  16.528   5.230   6.352  0.0538 -0.0757  0.0430
 1161ERGO    R416703  16.593   5.110   6.612 -0.0790 -0.0303  0.0920
 1161ERGO    R516704  16.540   5.318   6.575  0.0331 -0.0170  0.0175
 1161ERGO    C116705  16.885   5.364   6.731  0.0095 -0.1337  0.0999
 1161ERGO    C216706  17.149   5.265   6.952  0.2359  0.2073  0.0452
 1162ERGO   ROH16707  12.218   8.626   5.991 -0.1413  0.0228 -0.0316
 1162ERGO    R116708  12.194   8.522   6.253  0.0036 -0.1262 -0.0760
 1162ERGO    R216709  12.311   8.283   6.329  0.2935 -0.0293 -0.1945
 1162ERGO    R316710  12.421   8.436   6.525  0.1316  0.0150 -0.1372
 1162ERGO    R416711  12.499   8.161   6.592  0.2379  0.0534 -0.1165
 1162ERGO    R516712  12.398   8.303   6.723  0.1104 -0.0040 -0.1543
 1162ERGO    C116713  12.711   8.234   6.930  0.0538  0.1431 -0.0173
 1162ERGO    C216714  13.014   8.148   7.163  0.1520 -0.1238  0.0516
 1163ERGO   ROH16715   8.063  16.307   6.675  0.0091  0.1601  0.0008
 1163ERGO    R116716   7.996  16.330   6.949  0.0099  0.1381  0.0024
 1163ERGO    R216717   8.150  16.220   7.150  0.0137  0.1310 -0.0089
 1163ERGO    R316718   8.147  16.474   7.248  0.0044  0.1227  0.0140
 1163ERGO    R416719   8.236  16.308   7.473 -0.1604  0.0750  0.0545
 1163ERGO    R516720   8.070  16.449   7.473 -0.1372  0.1098 -0.0313
 1163ERGO    C116721   8.284  16.597   7.753 -0.2704  0.0345  0.1128
 1163ERGO    C216722   8.327  16.650   8.158  0.0041 -0.2823 -0.1001
 1164ERGO   ROH16723   9.524  12.270   6.507 -0.0014  0.2042 -0.1063
 1164ERGO    R116724   9.444  12.190   6.767  0.0524  0.0854 -0.1266
 1164ERGO    R216725   9.615  12.064   6.943  0.0956  0.0321 -0.2120
 1164ERGO    R316726   9.542  12.266   7.109  0.1001 -0.0487 -0.1088
 1164ERGO    R416727   9.643  12.057   7.287  0.3020 -0.0618 -0.2280
 1164ERGO    R516728   9.449  12.156   7.300  0.2605 -0.1511 -0.0852
 1164ERGO    C116729   9.590  12.243   7.644  0.4264 -0.1922 -0.1405
 1164ERGO    C216730   9.776  12.354   7.937 -0.1233  0.1912 -0.0988
 1165ERGO   ROH16731  13.327  18.290   6.342  0.1349  0.0576  0.0779
 1165ERGO    R116732  13.152  18.311   6.563  0.0771 -0.1325  0.0521
 1165ERGO    R216733  13.203  18.189   6.806  0.2580  0.0540  0.1106
 1165ERGO    R316734  13.169  18.441   6.902 -0.1636  0.0479 -0.0017
 1165ERGO    R416735  13.150  18.268   7.138  0.1793  0.1163  0.0834
 1165ERGO    R516736  13.004  18.417   7.074 -0.0964 -0.1611  0.0371
 1165ERGO    C116737  13.087  18.550   7.422 -0.2622  0.1467 -0.0378
 1165ERGO    C216738  12.927  18.655   7.740 -0.2399  0.3748 -0.1084
 1166ERGO   ROH16739  11.480   7.592   6.040  0.2964 -0.0395  0.0039
 1166ERGO    R116740  11.528   7.411   6.253  0.2531 -0.0315  0.0211
 1166ERGO    R216741  11.753   7.423   6.411  0.2212 -0.0249  0.0685
 1166ERGO    R316742  11.572   7.432   6.613  0.1784 -0.0169  0.0293
 1166ERGO    R416743  11.823   7.350   6.742  0.1676  0.0614  0.0987
 1166ERGO    R516744  11.632   7.247   6.754  0.1862  0.0263  0.0818
 1166ERGO    C116745  11.694   7.316   7.124  0.0960  0.1192  0.0794
 1166ERGO    C216746  11.718   7.223   7.521  0.1843 -0.0624  0.1032
 1167ERGO   ROH16747  17.200  17.356   6.536  0.1192 -0.0883 -0.0494
 1167ERGO    R116748  17.217  17.423   6.811  0.1050 -0.1610 -0.0302
 1167ERGO    R216749  17.062  17.299   7.004  0.0469 -0.1694 -0.0767
 1167ERGO    R316750  17.303  17.251   7.119  0.0228 -0.2634 -0.0652
 1167ERGO    R416751  17.126  17.313   7.343  0.0985  0.0273 -0.0934
 1167ERGO    R516752  17.316  17.408   7.299  0.1608 -0.1460 -0.1804
 1167ERGO    C116753  17.389  17.276   7.649  0.1058  0.0537 -0.0923
 1167ERGO    C216754  17.435  16.998   7.838 -0.0157 -0.2087  0.2342
 1168ERGO   ROH16755  17.309   1.646   6.181  0.1108  0.0888 -0.1014
 1168ERGO    R116756  17.338   1.699   6.457  0.0755  0.0659 -0.0948
 1168ERGO    R216757  17.495   1.906   6.554  0.1399 -0.0092 -0.0584
 1168ERGO    R316758  17.266   1.976   6.683  0.1466  0.0872 -0.0945
 1168ERGO    R416759  17.481   2.045   6.870  0.1619  0.0199 -0.0689
 1168ERGO    R516760  17.307   1.920   6.912  0.1027  0.0837 -0.0814
 1168ERGO    C116761  17.258   2.192   7.175  0.1811  0.1274 -0.1089
 1168ERGO    C216762  17.118   2.244   7.431  0.0565 -0.1114 -0.1723
 1169ERGO   ROH16763   8.375  16.641   6.530 -0.1704  0.3383  0.0579
 1169ERGO    R116764   8.455  16.467   6.739 -0.1519  0.2002 -0.0628
 1169ERGO    R216765   8.700  16.490   6.866 -0.1553  0.1360 -0.0492
 1169ERGO    R316766   8.546  16.500   7.090 -0.1530 -0.0367 -0.0378
 1169ERGO    R416767   8.796  16.375   7.177  0.0263  0.2953 -0.0443
 1169ERGO    R516768   8.595  16.296   7.205  0.1251  0.0347 -0.0181
 1169ERGO    C116769   8.707  16.318   7.569  0.1343  0.2260 -0.0308
 1169ERGO    C216770   8.824  16.268   7.862  0.0690 -0.0299  0.1044
 1170ERGO   ROH16771  14.282   6.494   5.840  0.0115 -0.1430 -0.1033
 1170ERGO    R116772  14.116   6.482   6.069  0.0238 -0.0733 -0.0911
 1170ERGO    R216773  14.135   6.279   6.256 -0.0223 -0.0597 -0.0752
 1170ERGO    R316774  14.163   6.486   6.430  0.0479 -0.0530 -0.0936
 1170ERGO    R416775  14.064   6.264   6.594 -0.0083 -0.0170 -0.0700
 1170ERGO    R516776  13.978   6.463   6.579  0.0471  0.0098 -0.0814
 1170ERGO    C116777  14.049   6.450   6.954  0.0657  0.0141 -0.0843
 1170ERGO    C216778  14.168   6.517   7.195 -0.1368 -0.1870 -0.1941
 1171ERGO   ROH16779   1.791   7.744   6.348 -0.0251  0.0956 -0.0238
 1171ERGO    R116780   1.920   7.767   6.599  0.0088  0.1122 -0.0425
 1171ERGO    R216781   1.791   7.862   6.824 -0.0231 -0.0721  0.0184
 1171ERGO    R316782   1.876   7.627   6.932  0.1917 -0.0422 -0.0812
 1171ERGO    R416783   1.878   7.817   7.156 -0.1863 -0.1788  0.0481
 1171ERGO    R516784   2.044   7.692   7.090  0.0124  0.0636  0.0714
 1171ERGO    C116785   2.009   7.571   7.450 -0.0798 -0.2129 -0.0283
 1171ERGO    C216786   2.085   7.287   7.605 -0.2529  0.0761 -0.1783
 1172ERGO   ROH16787  13.247   9.757   5.741 -0.0273 -0.2212 -0.0796
 1172ERGO    R116788  13.267   9.686   6.014 -0.0606 -0.1184 -0.0500
 1172ERGO    R216789  13.234   9.869   6.218  0.0985 -0.0024 -0.1259
 1172ERGO    R316790  13.048   9.690   6.305 -0.0350  0.1786 -0.0328
 1172ERGO    R416791  13.166   9.802   6.551  0.1338  0.1287 -0.0916
 1172ERGO    R516792  13.148   9.591   6.499 -0.0675  0.1318 -0.0409
 1172ERGO    C116793  12.951   9.596   6.826  0.0290  0.3750  0.0158
 1172ERGO    C216794  12.906   9.588   7.139  0.5116 -0.1993  0.1627
 1173ERGO   ROH16795  15.386   6.615   5.765 -0.3030  0.2287 -0.0805
 1173ERGO    R116796  15.533   6.600   6.007 -0.2269  0.2917 -0.1228
 1173ERGO    R216797  15.484   6.768   6.221 -0.3891  0.1249 -0.0287
 1173ERGO    R316798  15.460   6.534   6.357 -0.0627  0.0229 -0.1362
 1173ERGO    R416799  15.574   6.721   6.552 -0.5678  0.1822  0.0290
 1173ERGO    R516800  15.654   6.526   6.497 -0.1523  0.3421  0.0188
 1173ERGO    C116801  15.603   6.474   6.872 -0.3655  0.1197 -0.0382
 1173ERGO    C216802  15.533   6.324   7.112  0.1247 -0.0474 -0.2445
 1174ERGO   ROH16803   7.817  13.056   6.349  0.1426  0.0753 -0.0025
 1174ERGO    R116804   7.748  13.217   6.571  0.2904  0.1925 -0.0414
 1174ERGO    R216805   7.738  13.119   6.829 -0.0481  0.1957 -0.0547
 1174ERGO    R316806   7.908  13.325   6.879  0.2930 -0.1035  0.0655
 1174ERGO    R416807   7.806  13.246   7.143 -0.2771  0.2478 -0.0235
 1174ERGO    R516808   7.803  13.446   7.057  0.2493  0.2164 -0.1649
 1174ERGO    C116809   8.005  13.513   7.374 -0.0903 -0.0027  0.1075
 1174ERGO    C216810   8.100  13.562   7.745  0.0067 -0.1462 -0.0476
 1175ERGO   ROH16811   1.223   2.535   5.904 -0.0351 -0.0039  0.0286
 1175ERGO    R116812   1.397   2.470   6.118 -0.0469  0.0137  0.0433
 1175ERGO    R216813   1.630   2.608   6.168 -0.0221 -0.0189  0.0099
 1175ERGO    R316814   1.523   2.636   6.416 -0.0144  0.0589  0.0051
 1175ERGO    R416815   1.812   2.632   6.461 -0.0124 -0.0749  0.0086
 1175ERGO    R516816   1.665   2.504   6.558 -0.0771  0.0043  0.0205
 1175ERGO    C116817   1.817   2.671   6.865  0.0006 -0.0344  0.0034
 1175ERGO    C216818   1.744   2.841   7.129  0.1009 -0.1579 -0.1240
 1176ERGO   ROH16819  16.754   3.631   5.913  0.0969  0.1461 -0.1239
 1176ERGO    R116820  16.619   3.614   6.162  0.1118  0.0771 -0.1213
 1176ERGO    R216821  16.659   3.404   6.339  0.2076  0.0882 -0.1341
 1176ERGO    R316822  16.714   3.605   6.513  0.1242  0.1031 -0.1232
 1176ERGO    R416823  16.655   3.375   6.683  0.4066  0.0121 -0.1362
 1176ERGO    R516824  16.562   3.571   6.694  0.2417 -0.0659 -0.0512
 1176ERGO    C116825  16.704   3.546   7.047  0.4443 -0.0183 -0.1272
 1176ERGO    C216826  16.747   3.736   7.363 -0.0355 -0.0513  0.0230
 1177ERGO   ROH16827   7.355   5.288   6.727  0.3276  0.1091 -0.0692
 1177ERGO    R116828   7.232   5.288   6.982  0.1756 -0.0171 -0.1398
 1177ERGO    R216829   7.311   5.119   7.185  0.1109 -0.0613 -0.1486
 1177ERGO    R316830   7.336   5.351   7.325 -0.0460 -0.0986 -0.0566
 1177ERGO    R416831   7.390   5.140   7.521  0.1656 -0.1353 -0.1570
 1177ERGO    R516832   7.245   5.301   7.541  0.0407 -0.2609 -0.0578
 1177ERGO    C116833   7.460   5.369   7.848  0.0502 -0.2135 -0.0755
 1177ERGO    C216834   7.608   5.322   8.134 -0.2424 -0.3262 -0.1491
 1178ERGO   ROH16835  11.607   5.002   5.880  0.1739  0.1092 -0.0180
 1178ERGO    R116836  11.588   4.833   6.106  0.1616 -0.1222 -0.1898
 1178ERGO    R216837  11.771   4.632   6.158  0.3630  0.0592 -0.1985
 1178ERGO    R316838  11.791   4.757   6.398 -0.0287 -0.1315 -0.0569
 1178ERGO    R416839  11.892   4.486   6.446  0.4194 -0.0136 -0.2581
 1178ERGO    R516840  11.735   4.588   6.558  0.1525 -0.3957 -0.2611
 1178ERGO    C116841  11.982   4.519   6.840  0.0843 -0.2349 -0.1598
 1178ERGO    C216842  12.075   4.656   7.094  0.3201 -0.0186  0.1098
 1179ERGO   ROH16843  16.352  17.731   6.284  0.3432 -0.0698 -0.0059
 1179ERGO    R116844  16.323  17.935   6.477  0.2433  0.0768 -0.1748
 1179ERGO    R216845  16.245  17.884   6.738  0.0518  0.2810 -0.1953
 1179ERGO    R316846  16.473  18.019   6.798  0.0318  0.2866 -0.1258
 1179ERGO    R416847  16.312  18.033   7.042  0.0331  0.1002 -0.1000
 1179ERGO    R516848  16.400  18.201   6.935 -0.0024  0.1897 -0.0046
 1179ERGO    C116849  16.565  18.247   7.276  0.0033  0.0003  0.0209
 1179ERGO    C216850  16.726  18.479   7.496  0.0753 -0.0766  0.0485
 1180ERGO   ROH16851   2.442   8.525   6.423  0.2289  0.0588  0.0147
 1180ERGO    R116852   2.450   8.670   6.666  0.1293 -0.0657  0.0924
 1180ERGO    R216853   2.239   8.825   6.754  0.1303 -0.0446  0.0397
 1180ERGO    R316854   2.263   8.673   6.979 -0.0572 -0.1592 -0.0143
 1180ERGO    R416855   2.194   8.942   7.076  0.3113 -0.0811  0.0800
 1180ERGO    R516856   2.364   8.821   7.138  0.1599 -0.3409  0.0278
 1180ERGO    C116857   2.190   8.868   7.474  0.2407 -0.2098  0.0528
 1180ERGO    C216858   2.093   8.707   7.753 -0.1054 -0.0870 -0.1058
 1181ERGO   ROH16859   7.331  12.197   6.529  0.0215  0.0110  0.0591
 1181ERGO    R116860   7.392  12.314   6.779 -0.1021 -0.0194  0.1047
 1181ERGO    R216861   7.204  12.340   6.980 -0.1776 -0.1374  0.0559
 1181ERGO    R316862   7.390  12.207   7.127 -0.1697 -0.0987  0.0793
 1181ERGO    R416863   7.200  12.312   7.325 -0.1506 -0.0484  0.0631
 1181ERGO    R516864   7.416  12.340   7.325 -0.1541 -0.0503  0.0415
 1181ERGO    C116865   7.372  12.170   7.663 -0.1273  0.0398  0.0894
 1181ERGO    C216866   7.263  12.199   7.969 -0.0592 -0.1291  0.3324
 1182ERGO   ROH16867   6.269   5.093   6.635  0.1298 -0.1089  0.0121
 1182ERGO    R116868   6.221   5.085   6.914 -0.1060 -0.0021 -0.0234
 1182ERGO    R216869   6.421   5.037   7.098 -0.3288 -0.3386  0.1401
 1182ERGO    R316870   6.332   5.270   7.207 -0.0107 -0.1681  0.0460
 1182ERGO    R416871   6.389   5.098   7.437 -0.1657 -0.1224  0.1186
 1182ERGO    R516872   6.202   5.202   7.396 -0.0486  0.0913  0.1163
 1182ERGO    C116873   6.287   5.352   7.736  0.2280  0.1636  0.0177
 1182ERGO    C216874   6.359   5.401   8.156 -0.1383 -0.3200  0.1101
 1183ERGO   ROH16875   2.921  17.195   6.332 -0.1395 -0.1655  0.1120
 1183ERGO    R116876   2.841  17.431   6.465 -0.0543 -0.0647 -0.0122
 1183ERGO    R216877   2.759  17.433   6.729 -0.1870  0.0826 -0.0498
 1183ERGO    R316878   2.952  17.622   6.754 -0.0743 -0.0356 -0.0249
 1183ERGO    R416879   2.881  17.553   7.029 -0.1838  0.0483 -0.0378
 1183ERGO    R516880   2.884  17.753   6.943 -0.0363  0.0324 -0.0613
 1183ERGO    C116881   3.133  17.800   7.228 -0.0761 -0.0828 -0.0074
 1183ERGO    C216882   3.324  17.994   7.455  0.1233 -0.0437 -0.2314
 1184ERGO   ROH16883   5.370  17.382   6.283  0.4299  0.1499  0.0575
 1184ERGO    R116884   5.239  17.419   6.532  0.2147  0.0931 -0.0446
 1184ERGO    R216885   5.175  17.209   6.699  0.0860  0.0569 -0.1395
 1184ERGO    R316886   5.314  17.354   6.882 -0.0795  0.0316  0.0097
 1184ERGO    R416887   5.159  17.163   7.041  0.0659 -0.2536 -0.1796
 1184ERGO    R516888   5.162  17.379   7.066 -0.1385 -0.2669  0.0078
 1184ERGO    C116889   5.280  17.272   7.412 -0.1011 -0.4584 -0.0630
 1184ERGO    C216890   5.283  17.316   7.685 -0.0577 -0.2422 -0.0637
 1185ERGO   ROH16891  10.778   4.183   6.173 -0.1370  0.0075 -0.0181
 1185ERGO    R116892  10.719   4.123   6.444 -0.2890 -0.0931 -0.0726
 1185ERGO    R216893  10.790   4.290   6.652  0.0401 -0.4015  0.0707
 1185ERGO    R316894  10.526   4.275   6.712 -0.0095  0.0965  0.0278
 1185ERGO    R416895  10.656   4.332   6.968  0.1156 -0.5114  0.1184
 1185ERGO    R516896  10.519   4.168   6.926 -0.2479 -0.1719 -0.1046
 1185ERGO    C116897  10.330   4.341   7.208  0.1131 -0.1079  0.1059
 1185ERGO    C216898  10.302   4.555   7.449  0.4807  0.1040 -0.2387
 1186ERGO   ROH16899  12.962  16.079   6.635  0.0715  0.2957 -0.0212
 1186ERGO    R116900  13.100  16.095   6.881  0.1253  0.0744 -0.0352
 1186ERGO    R216901  13.158  16.335   7.004  0.3077 -0.0274  0.0815
 1186ERGO    R316902  13.030  16.221   7.215  0.2679 -0.0525  0.0441
 1186ERGO    R416903  13.118  16.483   7.314  0.1608 -0.0215  0.0602
 1186ERGO    R516904  13.158  16.290   7.406  0.1842 -0.0058  0.0840
 1186ERGO    C116905  12.974  16.463   7.692  0.0378 -0.0415  0.0125
 1186ERGO    C216906  12.760  16.354   8.018  0.1140  0.0174  0.1545
 1187ERGO   ROH16907   3.067  10.130   6.370  0.1014  0.1750 -0.0602
 1187ERGO    R116908   3.227  10.141   6.604  0.2256 -0.1108 -0.1300
 1187ERGO    R216909   3.119  10.177   6.856  0.4041  0.2197 -0.1020
 1187ERGO    R316910   3.256   9.949   6.912 -0.0840 -0.0862 -0.0806
 1187ERGO    R416911   3.176  10.054   7.174  0.3116  0.2365 -0.0765
 1187ERGO    R516912   3.378  10.000   7.112  0.1640 -0.2664 -0.1786
 1187ERGO    C116913   3.339   9.768   7.411 -0.2006 -0.0409 -0.0414
 1187ERGO    C216914   3.360   9.570   7.695  0.3113 -0.2603 -0.0836
 1188ERGO   ROH16915   5.458   4.534   6.350 -0.2008 -0.1447 -0.1260
 1188ERGO    R116916   5.589   4.477   6.595 -0.0771 -0.0149 -0.1603
 1188ERGO    R216917   5.475   4.530   6.841  0.0168  0.0509 -0.1278
 1188ERGO    R316918   5.527   4.267   6.885  0.1052  0.0812 -0.0510
 1188ERGO    R416919   5.553   4.394   7.149  0.0537  0.1600 -0.0886
 1188ERGO    R516920   5.701   4.268   7.050  0.0981  0.1838 -0.0465
 1188ERGO    C116921   5.647   4.068   7.370  0.1581  0.2520  0.0063
 1188ERGO    C216922   5.557   3.974   7.583 -0.2007  0.1986  0.0258
 1189ERGO   ROH16923  17.972   3.023   6.089 -0.0127 -0.1673  0.1945
 1189ERGO    R116924  17.941   3.068   6.367  0.1484 -0.2042  0.2205
 1189ERGO    R216925  18.155   3.082   6.541  0.2797  0.1308  0.0438
 1189ERGO    R316926  18.044   3.321   6.607 -0.0350 -0.0308  0.1192
 1189ERGO    R416927  18.233   3.265   6.823  0.1408  0.2090  0.0320
 1189ERGO    R516928  18.022   3.313   6.845  0.0774 -0.0935  0.1275
 1189ERGO    C116929  18.175   3.596   7.050 -0.2356  0.1027  0.0960
 1189ERGO    C216930  18.079   3.910   7.271  0.0735 -0.3492 -0.0359
 1190ERGO   ROH16931  14.056   1.020   6.070 -0.1981  0.0048 -0.0506
 1190ERGO    R116932  13.954   1.214   6.249 -0.1544 -0.0011 -0.0186
 1190ERGO    R216933  13.828   1.145   6.486 -0.1204 -0.0100 -0.0011
 1190ERGO    R316934  14.014   1.311   6.595 -0.0891 -0.0323 -0.0214
 1190ERGO    R416935  13.814   1.274   6.806  0.0598 -0.2101  0.0891
 1190ERGO    R516936  13.886   1.464   6.728 -0.0388 -0.1446  0.1579
 1190ERGO    C116937  13.980   1.504   7.095  0.1943 -0.3476  0.1225
 1190ERGO    C216938  13.831   1.518   7.351  0.0126  0.2618 -0.3513
 1191ERGO   ROH16939   7.230  10.173   6.434 -0.0338  0.0635  0.1223
 1191ERGO    R116940   7.127  10.194   6.697  0.0274  0.0386  0.1498
 1191ERGO    R216941   7.283  10.158   6.922  0.0825  0.0184  0.1140
 1191ERGO    R316942   7.187  10.403   6.989  0.0972  0.0122  0.1530
 1191ERGO    R416943   7.364  10.330   7.211 -0.0936 -0.1304  0.2536
 1191ERGO    R516944   7.156  10.393   7.226 -0.0860 -0.0843  0.1234
 1191ERGO    C116945   7.322  10.660   7.441 -0.1824 -0.2228  0.3715
 1191ERGO    C216946   7.573  10.856   7.587 -0.2784 -0.1610  0.0224
 1192ERGO   ROH16947  15.950   0.883   6.140 -0.0976  0.2172 -0.0143
 1192ERGO    R116948  15.911   1.019   6.386 -0.1325  0.1098  0.0401
 1192ERGO    R216949  15.659   1.063   6.492 -0.1447  0.0161  0.0510
 1192ERGO    R316950  15.766   0.941   6.710 -0.1269 -0.0515  0.0048
 1192ERGO    R416951  15.553   1.112   6.817  0.0465  0.1071  0.1015
 1192ERGO    R516952  15.761   1.109   6.881  0.0765 -0.0402  0.0010
 1192ERGO    C116953  15.591   1.025   7.211  0.1747  0.0966  0.0875
 1192ERGO    C216954  15.604   0.993   7.517 -0.1058 -0.3374  0.2414
 1193ERGO   ROH16955   8.349   2.337   6.016 -0.0896  0.0267  0.0332
 1193ERGO    R116956   8.406   2.279   6.288 -0.1303 -0.0361  0.0290
 1193ERGO    R216957   8.588   2.425   6.436 -0.1163 -0.0992  0.0781
 1193ERGO    R316958   8.378   2.454   6.606 -0.1307 -0.0899  0.0580
 1193ERGO    R416959   8.611   2.432   6.781 -0.1836 -0.3982  0.0911
 1193ERGO    R516960   8.431   2.312   6.791 -0.2704 -0.2792 -0.0459
 1193ERGO    C116961   8.427   2.463   7.141 -0.2364 -0.5637  0.0799
 1193ERGO    C216962   8.452   2.495   7.491  0.0903  0.0529  0.0229
 1194ERGO   ROH16963  15.251  16.940   6.257  0.0816 -0.1959  0.0502
 1194ERGO    R116964  15.238  16.883   6.534  0.0622 -0.1712  0.0548
 1194ERGO    R216965  15.462  16.874   6.695  0.0597 -0.2197  0.0604
 1194ERGO    R316966  15.323  17.054   6.844  0.1050 -0.1692  0.0410
 1194ERGO    R416967  15.441  16.871   7.040 -0.1327 -0.3083  0.0487
 1194ERGO    R516968  15.230  16.925   7.023 -0.0835 -0.1566 -0.0490
 1194ERGO    C116969  15.298  17.038   7.381 -0.2021 -0.3125  0.0237
 1194ERGO    C216970  15.403  17.013   7.662  0.2388  0.1440  0.3426
 1195ERGO   ROH16971   1.426  15.960   6.354  0.2170  0.0325  0.1916
 1195ERGO    R116972   1.247  15.850   6.545  0.1016  0.0033  0.0692
 1195ERGO    R216973   1.235  15.579   6.599  0.0461 -0.0132  0.0002
 1195ERGO    R316974   1.274  15.662   6.855 -0.0821 -0.0726  0.0387
 1195ERGO    R416975   1.245  15.371   6.874  0.1227 -0.0923 -0.0624
 1195ERGO    R516976   1.132  15.520   6.985 -0.0118 -0.2146 -0.0439
 1195ERGO    C116977   1.288  15.327   7.275  0.0469 -0.1941 -0.0628
 1195ERGO    C216978   1.270  15.160   7.670 -0.4190  0.1495  0.1737
 1196ERGO   ROH16979   4.501   5.066   6.709  0.1125  0.1789  0.0744
 1196ERGO    R116980   4.472   4.844   6.883 -0.1647  0.1618  0.0110
 1196ERGO    R216981   4.682   4.744   7.033 -0.2671 -0.1913 -0.0732
 1196ERGO    R316982   4.510   4.782   7.240 -0.1636 -0.0054 -0.0177
 1196ERGO    R416983   4.687   4.565   7.328 -0.1889 -0.0017  0.0427
 1196ERGO    R516984   4.469   4.561   7.323 -0.1931  0.0597  0.1442
 1196ERGO    C116985   4.528   4.495   7.695 -0.0462  0.2831  0.1622
 1196ERGO    C216986   4.747   4.276   8.022  0.0152 -0.0856  0.0635
 1197ERGO   ROH16987   3.075   9.263   6.409  0.0528 -0.2285 -0.0269
 1197ERGO    R116988   3.191   9.110   6.617 -0.0112 -0.1228  0.0890
 1197ERGO    R216989   3.424   8.966   6.583 -0.0825 -0.2719  0.1914
 1197ERGO    R316990   3.506   9.109   6.799 -0.0012 -0.1368  0.0677
 1197ERGO    R416991   3.608   8.838   6.846 -0.0977 -0.1334  0.2689
 1197ERGO    R516992   3.485   8.956   6.982 -0.0322  0.0170  0.1897
 1197ERGO    C116993   3.791   8.897   7.203 -0.0302  0.0744  0.1979
 1197ERGO    C216994   3.991   8.911   7.430 -0.2755  0.1517  0.1711
 1198ERGO   ROH16995   6.037   0.138   6.348 -0.1813  0.0012  0.0509
 1198ERGO    R116996   6.122   0.375   6.477 -0.1006 -0.0128  0.0237
 1198ERGO    R216997   6.060   0.627   6.381 -0.0659 -0.0025  0.0284
 1198ERGO    R316998   5.964   0.663   6.632 -0.0027  0.0283  0.0482
 1198ERGO    R416999   6.050   0.930   6.546  0.0182  0.0104  0.0103
 1198ERGO    R517000   6.109   0.827   6.729  0.0448  0.0130  0.0036
 1198ERGO    C117001   5.953   1.141   6.878  0.1265  0.0468  0.0184
 1198ERGO    C217002   5.758   1.395   6.966  0.0302  0.0298 -0.0108
 1199ERGO   ROH17003   3.517   3.509   6.263 -0.1948 -0.2888 -0.0959
 1199ERGO    R117004   3.519   3.620   6.523  0.0548 -0.3283 -0.0779
 1199ERGO    R217005   3.288   3.692   6.656  0.2035  0.1202 -0.0423
 1199ERGO    R317006   3.386   3.529   6.850 -0.0991 -0.1161 -0.0805
 1199ERGO    R417007   3.203   3.710   6.990  0.1076  0.0793 -0.0644
 1199ERGO    R517008   3.412   3.672   7.040  0.0374 -0.2435 -0.0032
 1199ERGO    C117009   3.247   3.568   7.367 -0.2325 -0.1664 -0.1131
 1199ERGO    C217010   3.211   3.492   7.676 -0.1308 -0.0124 -0.0174
 1200ERGO   ROH17011   5.741   3.025   6.415  0.2332  0.2343 -0.0881
 1200ERGO    R117012   5.955   3.063   6.596  0.1593  0.2735 -0.0074
 1200ERGO    R217013   5.931   3.215   6.826 -0.0101  0.1146  0.0855
 1200ERGO    R317014   6.022   2.989   6.946  0.1166  0.1000 -0.0357
 1200ERGO    R417015   6.005   3.187   7.162  0.0951 -0.0015  0.0526
 1200ERGO    R517016   6.180   3.067   7.108  0.1284  0.0936 -0.0463
 1200ERGO    C117017   6.134   2.958   7.471  0.2752 -0.0827 -0.0802
 1200ERGO    C217018   6.233   2.822   7.798 -0.6856  0.1644 -0.0135
 1201ERGO   ROH17019  12.453  12.138   6.367 -0.0368  0.0223  0.0570
 1201ERGO    R117020  12.521  12.077   6.635 -0.0730  0.0919  0.0835
 1201ERGO    R217021  12.386  12.185   6.851 -0.1211  0.1322  0.0427
 1201ERGO    R317022  12.355  11.924   6.921 -0.1070  0.1441  0.0889
 1201ERGO    R417023  12.272  12.074   7.158 -0.1328  0.1656  0.0495
 1201ERGO    R517024  12.420  11.915   7.151 -0.1269  0.1814  0.0894
 1201ERGO    C117025  12.177  11.764   7.402 -0.1265  0.1964  0.0970
 1201ERGO    C217026  11.904  11.569   7.574  0.4899 -0.0064  0.1037
 1202ERGO   ROH17027  13.532   7.270   5.673  0.3003  0.1866 -0.0521
 1202ERGO    R117028  13.581   7.231   5.949  0.3259  0.0743 -0.0721
 1202ERGO    R217029  13.783   7.362   6.085  0.1400  0.2601  0.0310
 1202ERGO    R317030  13.580   7.436   6.250  0.0215 -0.1161  0.0613
 1202ERGO    R417031  13.819   7.439   6.420  0.0321  0.2458  0.0460
 1202ERGO    R517032  13.633   7.332   6.459  0.2090 -0.0774  0.0343
 1202ERGO    C117033  13.649   7.553   6.770 -0.1421 -0.1158  0.0831
 1202ERGO    C217034  13.645   7.581   7.145  0.0526 -0.2495  0.1857
 1203ERGO   ROH17035   6.452   6.216   6.649 -0.1412 -0.0116 -0.0245
 1203ERGO    R117036   6.617   6.142   6.867 -0.1497 -0.0995 -0.0486
 1203ERGO    R217037   6.762   6.325   7.013 -0.0367 -0.1775 -0.0670
 1203ERGO    R317038   6.631   6.213   7.223 -0.0634 -0.1140 -0.0483
 1203ERGO    R417039   6.834   6.386   7.346 -0.0369 -0.1202 -0.0766
 1203ERGO    R517040   6.803   6.174   7.386 -0.0733 -0.1091 -0.0344
 1203ERGO    C117041   6.753   6.316   7.737 -0.0621 -0.0272 -0.0645
 1203ERGO    C217042   6.559   6.555   7.932 -0.2546  0.1263 -0.0682
 1204ERGO   ROH17043   2.550  15.932   6.392  0.0051  0.0176 -0.0285
 1204ERGO    R117044   2.691  15.926   6.637 -0.1086 -0.1181  0.0337
 1204ERGO    R217045   2.685  16.136   6.817  0.0739 -0.0811 -0.0114
 1204ERGO    R317046   2.607  15.942   6.991 -0.2428  0.0462 -0.0023
 1204ERGO    R417047   2.715  16.154   7.161  0.2374 -0.1575 -0.0196
 1204ERGO    R517048   2.774  15.945   7.162 -0.1628 -0.2856 -0.0608
 1204ERGO    C117049   2.660  15.983   7.524  0.0352 -0.0826 -0.0159
 1204ERGO    C217050   2.620  16.185   7.836  0.2474  0.2335  0.5868
 1205ERGO   ROH17051  16.740  12.977   6.037  0.2320 -0.1661  0.0405
 1205ERGO    R117052  16.659  13.090   6.284  0.1073 -0.0798 -0.0399
 1205ERGO    R217053  16.426  13.016   6.412  0.1515 -0.1870 -0.0340
 1205ERGO    R317054  16.593  12.969   6.621  0.1547  0.0744  0.0278
 1205ERGO    R417055  16.342  13.056   6.745 -0.0276 -0.2594 -0.0680
 1205ERGO    R517056  16.540  13.140   6.779 -0.1475  0.0299 -0.0109
 1205ERGO    C117057  16.451  13.035   7.135 -0.1287 -0.0559 -0.0297
 1205ERGO    C217058  16.342  13.137   7.314 -0.4117  0.0306  0.1349
 1206ERGO   ROH17059   2.133   2.826   6.224 -0.0846 -0.0916  0.0962
 1206ERGO    R117060   2.205   2.845   6.497  0.0841  0.0569  0.0441
 1206ERGO    R217061   2.271   3.085   6.617 -0.2049  0.1865 -0.0367
 1206ERGO    R317062   2.077   3.014   6.793  0.0254 -0.1025  0.1094
 1206ERGO    R417063   2.252   3.194   6.944 -0.1188  0.1372 -0.0153
 1206ERGO    R517064   2.191   2.993   7.002  0.2117  0.0468  0.0229
 1206ERGO    C117065   2.057   3.190   7.300  0.1475 -0.1628  0.1344
 1206ERGO    C217066   2.005   3.404   7.616 -0.1095  0.0665  0.0969
 1207ERGO   ROH17067   4.089   1.451   6.476 -0.1824  0.0804  0.0580
 1207ERGO    R117068   4.078   1.350   6.741  0.1068 -0.0535  0.0238
 1207ERGO    R217069   4.294   1.362   6.913  0.1632  0.2752 -0.0559
 1207ERGO    R317070   4.115   1.486   7.076 -0.0118 -0.1175  0.0620
 1207ERGO    R417071   4.338   1.417   7.252  0.1220  0.1160 -0.0242
 1207ERGO    R517072   4.129   1.367   7.283  0.2058 -0.2370 -0.0226
 1207ERGO    C117073   4.196   1.566   7.601 -0.0663 -0.3453  0.1048
 1207ERGO    C217074   4.113   1.681   8.057 -0.0990  0.2954  0.3241
 1208ERGO   ROH17075  18.305  13.550   6.607  0.2069  0.0462  0.2047
 1208ERGO    R117076  18.239  13.672   6.854  0.1498  0.0493  0.1889
 1208ERGO    R217077  18.258  13.539   7.096  0.1115  0.0560  0.2009
 1208ERGO    R317078  18.412  13.753   7.163  0.0855  0.0681  0.2185
 1208ERGO    R417079  18.419  13.578   7.399  0.1543  0.0343  0.1803
 1208ERGO    R517080  18.365  13.789   7.395  0.1198  0.0203  0.2289
 1208ERGO    C117081  18.658  13.802   7.639  0.1548  0.0332  0.1848
 1208ERGO    C217082  18.861  13.689   7.890 -0.1856  0.1763 -0.2790
 1209ERGO   ROH17083  13.726   4.648   6.013  0.1122 -0.1428  0.0975
 1209ERGO    R117084  13.656   4.775   6.257 -0.0712 -0.1940  0.0749
 1209ERGO    R217085  13.598   4.633   6.487 -0.0113 -0.2408  0.0701
 1209ERGO    R317086  13.792   4.791   6.594 -0.1778 -0.0630  0.1098
 1209ERGO    R417087  13.616   4.726   6.820 -0.1826 -0.1714  0.0597
 1209ERGO    R517088  13.676   4.925   6.756 -0.3316 -0.1358  0.0537
 1209ERGO    C117089  13.808   4.929   7.114 -0.4386  0.0360  0.0909
 1209ERGO    C217090  13.855   5.105   7.418 -0.0241 -0.0782  0.1923
 1210ERGO   ROH17091   1.302  12.033   6.573 -0.0039 -0.2252  0.0584
 1210ERGO    R117092   1.208  11.936   6.822  0.0432 -0.1789  0.0942
 1210ERGO    R217093   1.229  12.082   7.056 -0.0444 -0.0743  0.0361
 1210ERGO    R317094   0.961  12.038   7.069 -0.0209 -0.2187  0.0471
 1210ERGO    R417095   1.043  12.079   7.348 -0.0724  0.0965  0.0216
 1210ERGO    R517096   0.932  11.909   7.269  0.0345 -0.0469  0.1696
 1210ERGO    C117097   0.684  12.035   7.530 -0.0667  0.0606  0.0233
 1210ERGO    C217098   0.487  12.062   7.810  0.0938  0.0640  0.0790
 1211ERGO   ROH17099   1.659  12.838   6.757 -0.0622 -0.1532  0.0456
 1211ERGO    R117100   1.629  13.013   6.977  0.3845 -0.0250  0.0151
 1211ERGO    R217101   1.437  12.975   7.173  0.0445  0.6642 -0.1501
 1211ERGO    R317102   1.652  12.990   7.340 -0.0167 -0.1248  0.0389
 1211ERGO    R417103   1.419  13.005   7.517 -0.1493  0.7119 -0.1634
 1211ERGO    R517104   1.585  13.146   7.509  0.3930  0.1266 -0.0180
 1211ERGO    C117105   1.610  13.036   7.873 -0.3195 -0.0011  0.0060
 1211ERGO    C217106   1.391  13.213   8.167 -0.0269 -0.0817 -0.0197
 1212ERGO   ROH17107  16.878   9.007   6.108 -0.4619  0.1628  0.0496
 1212ERGO    R117108  16.977   8.932   6.362 -0.3511  0.0586 -0.0234
 1212ERGO    R217109  16.989   9.108   6.574 -0.1495  0.0069  0.0092
 1212ERGO    R317110  16.848   8.914   6.701 -0.1691  0.0415  0.0469
 1212ERGO    R417111  16.938   9.092   6.916 -0.1252  0.0585  0.0162
 1212ERGO    R517112  16.968   8.876   6.905 -0.1566  0.0502  0.0427
 1212ERGO    C117113  16.776   8.900   7.234 -0.1293  0.1210  0.0556
 1212ERGO    C217114  16.842   8.838   7.602  0.1989 -0.0455  0.2347
 1213ERGO   ROH17115  12.833   3.107   5.691  0.0885  0.0290  0.0494
 1213ERGO    R117116  12.722   3.240   5.916 -0.1261 -0.0782  0.0091
 1213ERGO    R217117  12.519   3.129   6.069  0.0547 -0.3666  0.0508
 1213ERGO    R317118  12.693   3.175   6.273 -0.0088 -0.0127  0.0302
 1213ERGO    R417119  12.436   3.129   6.404  0.0907 -0.5106  0.0603
 1213ERGO    R517120  12.566   3.301   6.432 -0.2401 -0.2486  0.0365
 1213ERGO    C117121  12.551   3.173   6.791  0.0522 -0.2623  0.0465
 1213ERGO    C217122  12.501   3.067   7.148 -0.1787  0.3170  0.1861
 1214ERGO   ROH17123   3.532   4.685   6.226 -0.0826  0.1218 -0.0378
 1214ERGO    R117124   3.447   4.689   6.497 -0.0209 -0.0593 -0.0150
 1214ERGO    R217125   3.580   4.549   6.696  0.1717  0.0039 -0.0963
 1214ERGO    R317126   3.587   4.793   6.816 -0.0480 -0.0274 -0.0136
 1214ERGO    R417127   3.553   4.603   7.036  0.2910 -0.1493 -0.0617
 1214ERGO    R517128   3.429   4.777   6.994  0.0643 -0.2766  0.0675
 1214ERGO    C117129   3.545   4.863   7.347  0.1542 -0.2678  0.0361
 1214ERGO    C217130   3.555   5.123   7.578 -0.2685  0.0982  0.0013
 1215ERGO   ROH17131  10.646   7.298   6.140  0.1763 -0.0526  0.0302
 1215ERGO    R117132  10.588   7.160   6.380  0.2140 -0.0385  0.0476
 1215ERGO    R217133  10.699   7.232   6.623  0.0392  0.1515  0.0754
 1215ERGO    R317134  10.440   7.242   6.702 -0.0083 -0.0885 -0.0404
 1215ERGO    R417135  10.593   7.280   6.949 -0.1534 -0.0117  0.0387
 1215ERGO    R517136  10.437   7.132   6.915 -0.0124 -0.1385 -0.0667
 1215ERGO    C117137  10.288   7.318   7.212 -0.3102 -0.3321 -0.0913
 1215ERGO    C217138  10.330   7.311   7.548  0.0499 -0.3055  0.1145
 1216ERGO   ROH17139  11.312  17.960   6.387 -0.1838 -0.0320 -0.0976
 1216ERGO    R117140  11.236  18.138   6.594 -0.1493 -0.0775 -0.0459
 1216ERGO    R217141  11.007  18.101   6.745 -0.1246 -0.1062 -0.0225
 1216ERGO    R317142  11.181  18.118   6.953 -0.0976 -0.1549 -0.0405
 1216ERGO    R417143  10.930  18.230   7.056 -0.0652 -0.0690 -0.0229
 1216ERGO    R517144  11.126  18.326   7.059 -0.0282 -0.1282 -0.0455
 1216ERGO    C117145  11.048  18.321   7.433 -0.0053 -0.0928 -0.0401
 1216ERGO    C217146  10.860  18.310   7.675  0.0843  0.1524  0.2374
 1217ERGO   ROH17147  16.142  16.587   6.354 -0.0057 -0.2113  0.0818
 1217ERGO    R117148  16.084  16.585   6.631 -0.0332 -0.1202  0.0791
 1217ERGO    R217149  16.175  16.780   6.804  0.0286 -0.1049  0.0437
 1217ERGO    R317150  15.912  16.802   6.867  0.0272  0.0096  0.0025
 1217ERGO    R417151  16.052  16.955   7.076  0.0569 -0.1094  0.0571
 1217ERGO    R517152  15.908  16.794   7.107 -0.0250 -0.0421 -0.0045
 1217ERGO    C117153  15.734  17.077   7.293  0.0719 -0.0043  0.0262
 1217ERGO    C217154  15.766  17.360   7.489  0.0001  0.2726 -0.0716
 1218ERGO   ROH17155   3.097  13.239   6.696 -0.2154 -0.0462 -0.1113
 1218ERGO    R117156   2.997  13.359   6.932 -0.1248 -0.1663 -0.0107
 1218ERGO    R217157   3.029  13.245   7.182  0.1847 -0.1740 -0.0512
 1218ERGO    R317158   3.136  13.487   7.243  0.0236 -0.0864 -0.1085
 1218ERGO    R417159   3.090  13.360   7.502  0.3621 -0.1750 -0.0835
 1218ERGO    R517160   3.020  13.556   7.440  0.1307 -0.2234  0.0065
 1218ERGO    C117161   3.226  13.654   7.746  0.3142 -0.0933 -0.1561
 1218ERGO    C217162   3.290  13.666   8.153  0.0509 -0.0694 -0.2612
 1219ERGO   ROH17163   1.993  11.361   6.746  0.1204  0.2184  0.2089
 1219ERGO    R117164   2.003  11.319   7.026  0.1304  0.2183  0.2083
 1219ERGO    R217165   2.026  11.526   7.207 -0.1281  0.2383  0.2190
 1219ERGO    R317166   1.804  11.414   7.315 -0.0178 -0.0181  0.1871
 1219ERGO    R417167   1.920  11.574   7.532 -0.2424  0.1491  0.1956
 1219ERGO    R517168   1.868  11.362   7.541  0.0070  0.0806  0.2056
 1219ERGO    C117169   1.650  11.496   7.824 -0.2055 -0.1437  0.1522
 1219ERGO    C217170   1.419  11.550   8.066  0.0286 -0.0364 -0.3237
 1220ERGO   ROH17171   6.120  10.620   6.491 -0.2447  0.0134  0.0264
 1220ERGO    R117172   6.200  10.539   6.750 -0.0300  0.0843 -0.0156
 1220ERGO    R217173   6.365  10.693   6.910 -0.1216  0.2599 -0.0839
 1220ERGO    R317174   6.163  10.665   7.090 -0.0094  0.0231  0.0086
 1220ERGO    R417175   6.400  10.715   7.253  0.0078  0.2668 -0.0973
 1220ERGO    R517176   6.262  10.548   7.273  0.1998  0.1150 -0.0463
 1220ERGO    C117177   6.231  10.700   7.622  0.1884  0.0485 -0.0183
 1220ERGO    C217178   6.134  10.646   7.922 -0.0962  0.1443  0.0342
 1221ERGO   ROH17179   3.204  14.727   6.377 -0.0068  0.1946  0.0525
 1221ERGO    R117180   3.314  14.850   6.608 -0.0177  0.0717  0.1235
 1221ERGO    R217181   3.225  15.094   6.704  0.1537  0.1440  0.0977
 1221ERGO    R317182   3.192  14.954   6.935 -0.0983  0.1511  0.0691
 1221ERGO    R417183   3.244  15.229   7.021  0.2415  0.0775  0.1212
 1221ERGO    R517184   3.351  15.050   7.086 -0.0104 -0.0772  0.1281
 1221ERGO    C117185   3.225  15.176   7.423  0.0561  0.0453  0.1080
 1221ERGO    C217186   3.206  15.221   7.717  0.0161 -0.0439  0.0228
 1222ERGO   ROH17187   8.051  18.294   6.171  0.0759  0.2297 -0.1980
 1222ERGO    R117188   8.099  18.405   6.426  0.1120  0.0190 -0.1100
 1222ERGO    R217189   8.100  18.678   6.472  0.2649 -0.0088  0.0877
 1222ERGO    R317190   7.917  18.614   6.662  0.2044 -0.0437  0.0167
 1222ERGO    R417191   8.075  18.828   6.783  0.2163 -0.1314  0.1428
 1222ERGO    R517192   8.035  18.632   6.869  0.1521 -0.1536  0.0534
 1222ERGO    C117193   7.888  18.855   7.142  0.1312 -0.2357  0.1081
 1222ERGO    C217194   7.851  19.031   7.514 -0.0448 -0.2624 -0.0879
 1223ERGO   ROH17195   8.097   0.942   6.210  0.1084 -0.1408  0.2024
 1223ERGO    R117196   8.086   0.843   6.475  0.0971 -0.0928  0.2200
 1223ERGO    R217197   8.247   0.942   6.677 -0.0475  0.0761  0.2536
 1223ERGO    R317198   8.009   0.977   6.805 -0.1188 -0.0825  0.1672
 1223ERGO    R417199   8.212   1.031   7.009 -0.2256 -0.0280  0.2642
 1223ERGO    R517200   8.047   0.890   7.025 -0.1598 -0.1212  0.1605
 1223ERGO    C117201   7.969   1.116   7.322 -0.3961 -0.2375  0.1894
 1223ERGO    C217202   8.085   1.376   7.586  0.3100  0.2439 -0.0130
 1224ERGO   ROH17203  17.076   8.579   5.956 -0.1364  0.0109 -0.0285
 1224ERGO    R117204  17.000   8.473   6.208 -0.0559 -0.0581 -0.0333
 1224ERGO    R217205  17.179   8.346   6.376  0.0308  0.0189 -0.0680
 1224ERGO    R317206  17.089   8.529   6.556 -0.0512 -0.0470 -0.0353
 1224ERGO    R417207  17.170   8.299   6.718  0.2656  0.0455 -0.0549
 1224ERGO    R517208  16.977   8.399   6.722  0.1649 -0.1426  0.0420
 1224ERGO    C117209  17.080   8.443   7.086  0.3250 -0.0009 -0.0166
 1224ERGO    C217210  17.175   8.513   7.370 -0.2215  0.0316  0.0823
 1225ERGO   ROH17211  10.309   3.059   5.908 -0.1207  0.1077 -0.0711
 1225ERGO    R117212  10.290   3.044   6.190 -0.0350  0.0439 -0.0680
 1225ERGO    R217213  10.389   3.241   6.357 -0.0746  0.0560 -0.0567
 1225ERGO    R317214  10.136   3.240   6.455 -0.0471 -0.0750  0.0133
 1225ERGO    R417215  10.301   3.341   6.675 -0.0555  0.1461 -0.0798
 1225ERGO    R517216  10.161   3.174   6.684  0.0632  0.0515  0.0384
 1225ERGO    C117217  10.011   3.398   6.953 -0.0187  0.0757 -0.0276
 1225ERGO    C217218  10.014   3.305   7.248  0.6320 -0.2916 -0.0466
 1226ERGO   ROH17219  17.028  10.248   6.435  0.0105 -0.0327 -0.0268
 1226ERGO    R117220  16.999  10.080   6.661  0.0682 -0.1523 -0.1076
 1226ERGO    R217221  17.202   9.917   6.753  0.2473  0.1396  0.0228
 1226ERGO    R317222  17.155  10.046   6.988 -0.1732 -0.0036  0.0267
 1226ERGO    R417223  17.337   9.827   7.058  0.1634  0.2916  0.1063
 1226ERGO    R517224  17.145   9.871   7.151  0.0030 -0.0736 -0.0335
 1226ERGO    C117225  17.372   9.896   7.456 -0.2804  0.2458  0.1587
 1226ERGO    C217226  17.404  10.007   7.832  0.2195 -0.1677  0.1350
 1227ERGO   ROH17227   0.556   1.768   6.161  0.0329  0.3280  0.0756
 1227ERGO    R117228   0.468   1.602   6.374 -0.1001  0.1702 -0.0991
 1227ERGO    R217229   0.636   1.524   6.580 -0.1638 -0.1811 -0.1779
 1227ERGO    R317230   0.440   1.630   6.736 -0.0812 -0.1900 -0.0657
 1227ERGO    R417231   0.599   1.468   6.919  0.1906  0.0254 -0.1009
 1227ERGO    R517232   0.384   1.456   6.890  0.1652 -0.1216  0.1082
 1227ERGO    C117233   0.395   1.536   7.263  0.4745  0.1374  0.0491
 1227ERGO    C217234   0.227   1.586   7.428 -0.1300 -0.1464 -0.0392
 1228ERGO   ROH17235  18.293   4.126   7.705 -0.1922 -0.0339 -0.1174
 1228ERGO    R117236  18.526   4.084   7.550 -0.0945 -0.0128  0.0198
 1228ERGO    R217237  18.538   3.893   7.350  0.0200  0.0317 -0.0201
 1228ERGO    R317238  18.615   4.104   7.198  0.1298  0.0644  0.0806
 1228ERGO    R417239  18.596   3.880   7.010 -0.1748  0.2098 -0.0619
 1228ERGO    R517240  18.769   4.010   7.039 -0.0410  0.0325 -0.0654
 1228ERGO    C117241  18.703   4.070   6.668 -0.1852  0.3442  0.0083
 1228ERGO    C217242  18.743   4.143   6.452 -0.1235 -0.0200  0.1268
 1229ERGO   ROH17243  12.490  11.325   6.225  0.0725 -0.1613  0.0091
 1229ERGO    R117244  12.500  11.281   6.504  0.1228 -0.0529  0.0255
 1229ERGO    R217245  12.313  11.127   6.636  0.0264  0.1662  0.1518
 1229ERGO    R317246  12.532  10.994   6.725 -0.0612  0.0078  0.1337
 1229ERGO    R417247  12.338  10.971   6.944 -0.0697  0.1244  0.1386
 1229ERGO    R517248  12.543  11.045   6.959 -0.0174 -0.0172  0.1370
 1229ERGO    C117249  12.560  10.755   7.206 -0.2078 -0.0487  0.1139
 1229ERGO    C217250  12.690  10.623   7.590  0.0360  0.1154  0.0721
 1230ERGO   ROH17251   3.810   0.159   6.373  0.1015  0.1099  0.0641
 1230ERGO    R117252   3.666   0.012   6.567 -0.0196  0.0514 -0.0681
 1230ERGO    R217253   3.695   0.056   6.838 -0.0722 -0.1351 -0.0312
 1230ERGO    R317254   3.425   0.086   6.830 -0.0566 -0.0048 -0.0860
 1230ERGO    R417255   3.487   0.052   7.114 -0.1199  0.0822 -0.0619
 1230ERGO    R517256   3.343  -0.063   6.998 -0.1582  0.1050 -0.0368
 1230ERGO    C117257   3.113   0.078   7.267 -0.1329  0.3310 -0.1314
 1230ERGO    C217258   3.164   0.309   7.464 -0.0403  0.2232 -0.0384
 1231ERGO   ROH17259   5.625   5.714   6.613 -0.1470 -0.0849 -0.1399
 1231ERGO    R117260   5.442   5.671   6.824 -0.1646 -0.0948 -0.1570
 1231ERGO    R217261   5.340   5.422   6.884 -0.0562 -0.1227 -0.0842
 1231ERGO    R317262   5.435   5.478   7.133 -0.1270  0.0142 -0.0872
 1231ERGO    R417263   5.183   5.335   7.179 -0.1147 -0.0062 -0.0806
 1231ERGO    R517264   5.239   5.530   7.261 -0.1678  0.0434 -0.1607
 1231ERGO    C117265   5.181   5.337   7.585 -0.2152  0.1901 -0.0813
 1231ERGO    C217266   5.027   5.340   7.953  0.0541  0.0351 -0.3085
 1232ERGO   ROH17267   3.762   1.009   6.481  0.2851  0.0582 -0.0275
 1232ERGO    R117268   3.664   1.161   6.699  0.3451  0.1741 -0.0824
 1232ERGO    R217269   3.569   1.045   6.931  0.2229  0.2908 -0.0771
 1232ERGO    R317270   3.752   1.209   7.049  0.3090  0.1974 -0.0759
 1232ERGO    R417271   3.591   1.105   7.271  0.2079  0.3357 -0.0826
 1232ERGO    R517272   3.631   1.315   7.226  0.3467  0.3050 -0.1122
 1232ERGO    C117273   3.775   1.294   7.579  0.2801  0.2741 -0.0848
 1232ERGO    C217274   3.905   1.227   7.835  0.1329  0.2017  0.2229
 1233ERGO   ROH17275   4.663   6.922   6.649  0.0755  0.0919  0.0433
 1233ERGO    R117276   4.751   6.946   6.917  0.0242  0.0294  0.0670
 1233ERGO    R217277   4.588   7.040   7.120  0.0253  0.1170  0.0340
 1233ERGO    R317278   4.659   6.806   7.240 -0.1395  0.0680  0.0362
 1233ERGO    R417279   4.551   6.970   7.456  0.0033  0.1475  0.0374
 1233ERGO    R517280   4.745   6.872   7.453 -0.0741  0.0045  0.0256
 1233ERGO    C117281   4.596   6.711   7.765 -0.1643  0.1193  0.0415
 1233ERGO    C217282   4.489   6.735   8.179  0.0881 -0.1683  0.0142
 1234ERGO   ROH17283   8.236  13.960   6.123  0.1222  0.2090 -0.0570
 1234ERGO    R117284   8.360  13.952   6.377  0.0219  0.1245 -0.0088
 1234ERGO    R217285   8.504  14.164   6.480  0.1016  0.0438  0.0633
 1234ERGO    R317286   8.334  14.137   6.690  0.0008  0.1194 -0.0093
 1234ERGO    R417287   8.565  14.279   6.800  0.1013 -0.1688  0.1396
 1234ERGO    R517288   8.477  14.095   6.877 -0.1112 -0.1122  0.0230
 1234ERGO    C117289   8.441  14.319   7.184  0.0064 -0.2217  0.1159
 1234ERGO    C217290   8.446  14.383   7.576 -0.0638  0.0204 -0.1063
 1235ERGO   ROH17291   6.780  18.034   6.330 -0.0937  0.1842 -0.0222
 1235ERGO    R117292   6.949  17.964   6.546 -0.0286  0.2449 -0.0534
 1235ERGO    R217293   7.121  18.145   6.666 -0.2357  0.3672  0.0599
 1235ERGO    R317294   6.991  18.067   6.892 -0.1647  0.0926  0.0107
 1235ERGO    R417295   7.262  18.132   6.981 -0.1818  0.1525  0.0289
 1235ERGO    R517296   7.155  17.946   7.016 -0.0818  0.0613 -0.1245
 1235ERGO    C117297   7.223  18.052   7.376 -0.0839 -0.2302 -0.0353
 1235ERGO    C217298   7.413  18.163   7.664 -0.0800 -0.0873  0.2004
 1236ERGO   ROH17299  16.577  12.178   6.557 -0.0419  0.1565 -0.1269
 1236ERGO    R117300  16.358  12.086   6.710  0.0212  0.0924 -0.0758
 1236ERGO    R217301  16.390  11.937   6.941  0.1208  0.1584 -0.0501
 1236ERGO    R317302  16.235  12.132   7.050  0.0468  0.1110 -0.0680
 1236ERGO    R417303  16.248  11.924   7.256  0.1147  0.1220 -0.0538
 1236ERGO    R517304  16.067  12.013   7.173  0.0834  0.0544 -0.0678
 1236ERGO    C117305  16.020  12.099   7.541  0.0419  0.0562 -0.0727
 1236ERGO    C217306  15.939  12.191   7.896 -0.1792  0.2040 -0.3519
 1237ERGO   ROH17307   3.052   6.832   6.570  0.1654 -0.1722  0.1113
 1237ERGO    R117308   2.999   6.862   6.846  0.1819 -0.2646  0.1263
 1237ERGO    R217309   3.186   6.804   7.041  0.2832 -0.0957  0.0915
 1237ERGO    R317310   3.133   7.058   7.122  0.0288 -0.1582  0.1233
 1237ERGO    R417311   3.293   6.942   7.339  0.4452  0.0929 -0.0518
 1237ERGO    R517312   3.098   7.039   7.358  0.3353 -0.1755  0.1659
 1237ERGO    C117313   3.304   7.261   7.589  0.3007  0.1441 -0.1054
 1237ERGO    C217314   3.505   7.415   7.768 -0.2384 -0.0007 -0.2856
 1238ERGO   ROH17315  16.303   6.703   5.512 -0.0837  0.0293  0.0339
 1238ERGO    R117316  16.155   6.852   5.701 -0.0894 -0.0971  0.1292
 1238ERGO    R217317  15.987   7.060   5.629  0.0064  0.0269  0.2717
 1238ERGO    R317318  15.804   6.918   5.770 -0.0889 -0.0400  0.0849
 1238ERGO    R417319  15.664   7.163   5.693 -0.0093  0.0420  0.1721
 1238ERGO    R517320  15.683   7.083   5.894 -0.1238 -0.0975  0.1339
 1238ERGO    C117321  15.303   7.089   5.862 -0.1079 -0.0121 -0.0612
 1238ERGO    C217322  14.983   7.088   5.882 -0.2342 -0.1932 -0.4938
 1239ERGO   ROH17323   9.851  14.571   6.439  0.2173 -0.0251  0.0805
 1239ERGO    R117324   9.910  14.709   6.680  0.1364 -0.0105  0.0922
 1239ERGO    R217325   9.734  14.719   6.892  0.1007 -0.0680  0.0619
 1239ERGO    R317326   9.947  14.622   7.031  0.1071 -0.0023  0.0985
 1239ERGO    R417327   9.743  14.679   7.235  0.1427  0.1948  0.0935
 1239ERGO    R517328   9.949  14.751   7.233  0.1610  0.1569  0.0019
 1239ERGO    C117329   9.948  14.565   7.566  0.1731  0.4093  0.1463
 1239ERGO    C217330   9.778  14.382   7.876 -0.1261  0.1311 -0.2364
 1240ERGO   ROH17331   0.125   7.926   6.514  0.2608 -0.0076  0.0964
 1240ERGO    R117332  -0.061   7.772   6.662  0.2872 -0.2315 -0.0982
 1240ERGO    R217333   0.007   7.531   6.779  0.5411 -0.0203  0.2077
 1240ERGO    R317334  -0.091   7.650   7.004 -0.0657 -0.0063 -0.0445
 1240ERGO    R417335  -0.100   7.363   7.062  0.5194  0.0150  0.2203
 1240ERGO    R517336  -0.266   7.504   7.077  0.1564 -0.3416 -0.1607
 1240ERGO    C117337  -0.254   7.377   7.436 -0.0631  0.0486 -0.0091
 1240ERGO    C217338  -0.404   7.152   7.737  0.2052  0.3158  0.0348
 1241ERGO   ROH17339   4.461  10.536   6.253 -0.1832  0.2387 -0.1101
 1241ERGO    R117340   4.543  10.720   6.451  0.2143  0.0652 -0.1039
 1241ERGO    R217341   4.371  10.817   6.644  0.3882  0.4956 -0.1550
 1241ERGO    R317342   4.562  10.726   6.815  0.1393  0.0423 -0.0992
 1241ERGO    R417343   4.378  10.880   6.984  0.3767  0.3728 -0.1310
 1241ERGO    R517344   4.594  10.907   6.970  0.4481 -0.0653 -0.0293
 1241ERGO    C117345   4.562  10.831   7.342  0.1363 -0.1242 -0.0645
 1241ERGO    C217346   4.289  10.878   7.712 -0.1423  0.1489  0.1492
 1242ERGO   ROH17347  17.435  12.543   6.609  0.1724 -0.0583  0.0341
 1242ERGO    R117348  17.374  12.393   6.841  0.1821 -0.0965  0.0129
 1242ERGO    R217349  17.497  12.440   7.085  0.0572 -0.0094  0.0635
 1242ERGO    R317350  17.241  12.462   7.173  0.0057 -0.1791 -0.0407
 1242ERGO    R417351  17.401  12.439   7.417 -0.0504  0.2080  0.0347
 1242ERGO    R517352  17.230  12.316   7.362  0.0890 -0.0129  0.0927
 1242ERGO    C117353  17.105  12.458   7.693 -0.1614  0.1753 -0.0798
 1242ERGO    C217354  16.996  12.728   7.871  0.3018 -0.0527 -0.0470
 1243ERGO   ROH17355  13.151  17.075   6.325 -0.0563  0.2633 -0.1304
 1243ERGO    R117356  13.198  17.306   6.483 -0.0618  0.2060 -0.0448
 1243ERGO    R217357  13.090  17.553   6.422 -0.0376  0.2334  0.0268
 1243ERGO    R317358  12.996  17.538   6.677 -0.0713  0.1527  0.0104
 1243ERGO    R417359  12.999  17.825   6.615  0.0967  0.1869  0.1574
 1243ERGO    R517360  13.092  17.728   6.786  0.0263  0.0439  0.1186
 1243ERGO    C117361  12.858  17.969   6.966  0.1434  0.0841  0.2181
 1243ERGO    C217362  12.621  18.118   6.943  0.2918  0.0680  0.1556
 1244ERGO   ROH17363   5.121  12.598   6.555 -0.1041  0.1335 -0.0876
 1244ERGO    R117364   5.271  12.617   6.794 -0.0818 -0.1317 -0.0764
 1244ERGO    R217365   5.274  12.844   6.950  0.3243 -0.1179 -0.0826
 1244ERGO    R317366   5.202  12.671   7.147 -0.0148  0.0139 -0.0868
 1244ERGO    R417367   5.287  12.913   7.289  0.4118 -0.1447 -0.0811
 1244ERGO    R517368   5.360  12.710   7.322  0.0371 -0.2779 -0.0707
 1244ERGO    C117369   5.226  12.790   7.671  0.1443 -0.0366 -0.0843
 1244ERGO    C217370   5.307  13.050   8.000 -0.0461 -0.2053 -0.2877
 1245ERGO   ROH17371   6.278  17.619   6.548  0.0409 -0.1871  0.0159
 1245ERGO    R117372   6.388  17.629   6.809  0.0960 -0.1568 -0.0087
 1245ERGO    R217373   6.638  17.736   6.861  0.0049  0.0732 -0.0398
 1245ERGO    R317374   6.500  17.888   7.039 -0.1006 -0.1142  0.0413
 1245ERGO    R417375   6.752  17.827   7.174  0.1132  0.3045 -0.1436
 1245ERGO    R517376   6.552  17.792   7.252  0.2211 -0.0024  0.0198
 1245ERGO    C117377   6.689  18.022   7.524  0.0773  0.2632 -0.1280
 1245ERGO    C217378   6.878  18.176   7.792  0.2417 -0.1504 -0.1272
 1246ERGO   ROH17379  10.308  13.797   6.148 -0.0029 -0.1328 -0.0655
 1246ERGO    R117380  10.188  13.813   6.404 -0.0500 -0.1119 -0.0882
 1246ERGO    R217381  10.050  13.601   6.517 -0.0702 -0.1048 -0.0938
 1246ERGO    R317382  10.223  13.642   6.723 -0.1062 -0.0852 -0.0682
 1246ERGO    R417383   9.987  13.518   6.847 -0.1737  0.0387 -0.0768
 1246ERGO    R517384  10.083  13.705   6.907 -0.1275  0.0286 -0.1243
 1246ERGO    C117385  10.113  13.507   7.232 -0.2677  0.1406 -0.0428
 1246ERGO    C217386  10.065  13.472   7.556  0.4931 -0.1224  0.1001
 1247ERGO   ROH17387   9.107  11.279   6.410  0.1084 -0.2117  0.1044
 1247ERGO    R117388   8.997  11.196   6.657  0.1011 -0.2075  0.1034
 1247ERGO    R217389   9.152  11.160   6.883  0.0753 -0.0711  0.1475
 1247ERGO    R317390   8.971  11.331   6.994 -0.0370 -0.1353  0.0635
 1247ERGO    R417391   9.077  11.178   7.220  0.1616  0.1407  0.1559
 1247ERGO    R517392   8.867  11.204   7.168  0.1249 -0.0820  0.1986
 1247ERGO    C117393   8.865  11.350   7.520  0.1064  0.2039  0.0818
 1247ERGO    C217394   8.730  11.345   7.899  0.1193 -0.1062 -0.0495
 1248ERGO   ROH17395   6.603   1.715   6.645  0.1191 -0.0247 -0.1281
 1248ERGO    R117396   6.391   1.692   6.832  0.1784  0.0919 -0.0457
 1248ERGO    R217397   6.299   1.448   6.923  0.0482  0.1413 -0.0472
 1248ERGO    R317398   6.348   1.557   7.167  0.2214  0.0699 -0.0486
 1248ERGO    R417399   6.183   1.321   7.223  0.1272  0.1408 -0.0165
 1248ERGO    R517400   6.145   1.525   7.289  0.2618  0.1495  0.0429
 1248ERGO    C117401   6.163   1.349   7.626  0.3358  0.0734  0.0001
 1248ERGO    C217402   6.321   1.290   7.822 -0.2310 -0.1377  0.3463
 1249ERGO   ROH17403   1.915   5.837   6.266  0.0280  0.0066 -0.0264
 1249ERGO    R117404   1.893   5.988   6.505  0.1324 -0.0009 -0.0112
 1249ERGO    R217405   2.107   6.123   6.616  0.1657  0.0589 -0.1410
 1249ERGO    R317406   1.938   6.336   6.603  0.0967  0.0111 -0.0392
 1249ERGO    R417407   2.132   6.408   6.810  0.1152  0.0095 -0.0615
 1249ERGO    R517408   1.915   6.408   6.830  0.1217 -0.0636 -0.0144
 1249ERGO    C117409   1.987   6.774   6.910  0.0210 -0.0641  0.0804
 1249ERGO    C217410   2.094   7.190   7.119  0.0015 -0.0407  0.2245
 1250ERGO   ROH17411  10.821  15.048   6.411  0.3263  0.2446  0.0892
 1250ERGO    R117412  10.920  15.001   6.673  0.1831  0.1698  0.1315
 1250ERGO    R217413  10.777  15.069   6.900  0.0255  0.0362  0.0749
 1250ERGO    R317414  10.818  14.808   6.964  0.0644  0.0224 -0.0061
 1250ERGO    R417415  10.793  14.944   7.222  0.0167 -0.0640  0.0363
 1250ERGO    R517416  10.956  14.815   7.158  0.0453 -0.0159  0.0093
 1250ERGO    C117417  10.840  14.626   7.469  0.0482 -0.1354 -0.0622
 1250ERGO    C217418  10.590  14.429   7.750  0.2947  0.1602 -0.0114
 1251ERGO   ROH17419  12.174  17.243   6.290 -0.0268 -0.1041 -0.0606
 1251ERGO    R117420  12.064  17.364   6.521  0.1925  0.0218 -0.0192
 1251ERGO    R217421  11.842  17.261   6.652 -0.0338  0.4060 -0.0865
 1251ERGO    R317422  12.008  17.269   6.868 -0.0317 -0.0205 -0.0652
 1251ERGO    R417423  11.738  17.274   6.982 -0.0444  0.5196 -0.0940
 1251ERGO    R517424  11.899  17.416   7.022  0.2625  0.1690 -0.0289
 1251ERGO    C117425  11.832  17.289   7.376 -0.0485  0.1853 -0.0785
 1251ERGO    C217426  11.651  17.249   7.545 -0.2916 -0.0535  0.2622
 1252ERGO   ROH17427   3.841  16.652   6.142 -0.1585 -0.0403 -0.0276
 1252ERGO    R117428   3.857  16.542   6.402 -0.1822 -0.0239 -0.0189
 1252ERGO    R217429   3.711  16.641   6.615 -0.1994 -0.0100 -0.0382
 1252ERGO    R317430   3.629  16.382   6.636 -0.2034 -0.0074 -0.0272
 1252ERGO    R417431   3.702  16.460   6.910 -0.0416 -0.0429 -0.0532
 1252ERGO    R517432   3.776  16.287   6.800 -0.1132 -0.0353 -0.1204
 1252ERGO    C117433   3.620  16.113   7.101  0.0465 -0.0597 -0.0516
 1252ERGO    C217434   3.746  15.990   7.462 -0.0061 -0.1881 -0.1134
 1253ERGO   ROH17435   8.415  15.065   6.389 -0.1961  0.1804  0.0085
 1253ERGO    R117436   8.512  15.104   6.652 -0.0577  0.1821 -0.0404
 1253ERGO    R217437   8.536  15.355   6.767 -0.2107  0.1741  0.0271
 1253ERGO    R317438   8.384  15.244   6.963  0.0127 -0.0342  0.0862
 1253ERGO    R417439   8.550  15.442   7.101 -0.1284  0.0986  0.0430
 1253ERGO    R517440   8.530  15.231   7.152  0.1223  0.0704  0.0032
 1253ERGO    C117441   8.415  15.389   7.479  0.1293 -0.1410  0.1077
 1253ERGO    C217442   8.557  15.385   7.771 -0.1562 -0.1222  0.1311
 1254ERGO   ROH17443  10.634  16.415   6.253  0.0340 -0.0587 -0.1163
 1254ERGO    R117444  10.458  16.543   6.435  0.0684 -0.0995 -0.0529
 1254ERGO    R217445  10.283  16.402   6.597  0.0336 -0.1398 -0.1198
 1254ERGO    R317446  10.405  16.542   6.795  0.0788 -0.2626 -0.0491
 1254ERGO    R417447  10.131  16.497   6.892  0.0177 -0.1143 -0.1355
 1254ERGO    R517448  10.234  16.689   6.877  0.1487 -0.1686 -0.0607
 1254ERGO    C117449  10.157  16.684   7.251  0.0510 -0.2148 -0.0783
 1254ERGO    C217450  10.012  16.921   7.465 -0.0867 -0.3334  0.0385
 1255ERGO   ROH17451   8.153   5.637   6.223  0.0008  0.0711 -0.0873
 1255ERGO    R117452   8.223   5.418   6.388 -0.0138  0.0957 -0.0489
 1255ERGO    R217453   8.369   5.447   6.620 -0.1228  0.1424  0.0122
 1255ERGO    R317454   8.159   5.315   6.731 -0.1349  0.0908 -0.0716
 1255ERGO    R417455   8.380   5.275   6.920 -0.1973  0.1577  0.0242
 1255ERGO    R517456   8.257   5.119   6.829 -0.1197  0.1197 -0.0237
 1255ERGO    C117457   8.190   5.050   7.198 -0.2519  0.1182 -0.0475
 1255ERGO    C217458   8.395   4.983   7.499 -0.0997 -0.0919  0.1173
 1256ERGO   ROH17459   9.790   5.663   5.903 -0.2283 -0.1160  0.1062
 1256ERGO    R117460   9.893   5.568   6.149  0.0045 -0.1597 -0.0062
 1256ERGO    R217461  10.150   5.626   6.235  0.0035  0.0285 -0.1263
 1256ERGO    R317462  10.020   5.714   6.457  0.0499 -0.2146  0.0017
 1256ERGO    R417463  10.305   5.737   6.523  0.0800  0.2287 -0.2429
 1256ERGO    R517464  10.153   5.634   6.640  0.3415 -0.0374 -0.1242
 1256ERGO    C117465  10.274   5.886   6.899  0.1680  0.1170 -0.1906
 1256ERGO    C217466  10.103   5.883   7.166  0.0380  0.1107 -0.2469
 1257ERGO   ROH17467   0.020   5.010   5.948  0.0041 -0.1350 -0.1231
 1257ERGO    R117468  -0.109   5.083   6.190  0.1305 -0.0077 -0.0931
 1257ERGO    R217469  -0.249   4.902   6.344 -0.0183  0.1304 -0.0647
 1257ERGO    R317470  -0.084   4.991   6.541  0.1164 -0.0375 -0.0999
 1257ERGO    R417471  -0.247   4.783   6.669  0.1042 -0.0456 -0.1284
 1257ERGO    R517472  -0.219   4.988   6.738  0.2163 -0.0924 -0.0312
 1257ERGO    C117473  -0.090   4.797   7.042  0.3021 -0.3055 -0.1986
 1257ERGO    C217474   0.072   4.565   7.252 -0.0096  0.1843 -0.0552
 1258ERGO   ROH17475   4.301   9.741   6.618 -0.1784  0.2605 -0.0722
 1258ERGO    R117476   4.350   9.680   6.890 -0.1242  0.0611 -0.1266
 1258ERGO    R217477   4.484   9.852   7.059 -0.1588 -0.0318 -0.0104
 1258ERGO    R317478   4.262   9.821   7.213 -0.1272 -0.2231  0.0012
 1258ERGO    R417479   4.480   9.864   7.405 -0.1690  0.1284 -0.0143
 1258ERGO    R517480   4.338   9.698   7.404  0.0236 -0.0459  0.0622
 1258ERGO    C117481   4.269   9.841   7.750 -0.1452  0.0422 -0.0055
 1258ERGO    C217482   4.202   9.971   8.011 -0.1548 -0.0362  0.1108
 1259ERGO   ROH17483   2.409  10.928   6.651  0.0600 -0.0406  0.0187
 1259ERGO    R117484   2.317  10.975   6.915  0.1454 -0.2187  0.0817
 1259ERGO    R217485   2.483  10.959   7.135  0.3217  0.0634 -0.0282
 1259ERGO    R317486   2.390  11.210   7.182 -0.0984 -0.0970  0.0455
 1259ERGO    R417487   2.460  11.105   7.447  0.5691  0.0998 -0.0257
 1259ERGO    R517488   2.269  11.191   7.388  0.2821 -0.2898  0.2674
 1259ERGO    C117489   2.360  11.426   7.673  0.3189 -0.0294  0.0450
 1259ERGO    C217490   2.333  11.552   8.022  0.0188 -0.2709  0.1271
 1260ERGO   ROH17491   1.601  15.221   6.471  0.1044  0.1591 -0.1304
 1260ERGO    R117492   1.736  15.308   6.704  0.0112 -0.1008  0.0258
 1260ERGO    R217493   1.681  15.550   6.827  0.2891 -0.0134  0.0006
 1260ERGO    R317494   1.644  15.393   7.046 -0.2124  0.0050 -0.0613
 1260ERGO    R417495   1.666  15.665   7.152  0.1404 -0.0616  0.0105
 1260ERGO    R517496   1.782  15.492   7.214 -0.2222 -0.2712  0.1059
 1260ERGO    C117497   1.622  15.585   7.547 -0.4170 -0.0722 -0.0418
 1260ERGO    C217498   1.727  15.698   7.852 -0.0257  0.0029  0.0646
 1261ERGO   ROH17499  15.248  12.227   6.174 -0.0161 -0.1129  0.0340
 1261ERGO    R117500  15.181  12.347   6.422  0.0064 -0.0432  0.0088
 1261ERGO    R217501  15.071  12.204   6.631 -0.1436  0.0457  0.0058
 1261ERGO    R317502  15.281  12.307   6.769 -0.0972 -0.0845  0.0307
 1261ERGO    R417503  15.088  12.231   6.975 -0.1592  0.0694  0.0034
 1261ERGO    R517504  15.180  12.426   6.951 -0.0297 -0.0048  0.0045
 1261ERGO    C117505  15.295  12.344   7.305 -0.1247 -0.0393  0.0255
 1261ERGO    C217506  15.534  12.130   7.535  0.2331  0.1293  0.1303
 1262ERGO   ROH17507   3.259   1.986   6.528  0.1646  0.0419 -0.0787
 1262ERGO    R117508   3.335   2.124   6.763 -0.0874  0.1082 -0.0316
 1262ERGO    R217509   3.157   2.179   6.968 -0.1958 -0.2892 -0.0047
 1262ERGO    R317510   3.345   2.053   7.120  0.0458 -0.0016 -0.0576
 1262ERGO    R417511   3.166   2.182   7.314  0.0026 -0.1457 -0.0103
 1262ERGO    R517512   3.383   2.203   7.303 -0.0294  0.1147 -0.1396
 1262ERGO    C117513   3.347   2.066   7.657  0.3448  0.2078 -0.0632
 1262ERGO    C217514   3.270   1.967   8.000  0.0858  0.1223  0.3384
 1263ERGO   ROH17515  11.556  16.140   6.417  0.1212 -0.2707  0.1934
 1263ERGO    R117516  11.475  16.157   6.687  0.0439 -0.0721  0.1583
 1263ERGO    R217517  11.593  16.331   6.867  0.0183  0.0280  0.0710
 1263ERGO    R317518  11.336  16.412   6.906  0.0205  0.1002 -0.0525
 1263ERGO    R417519  11.461  16.432   7.170 -0.0959  0.0532  0.0146
 1263ERGO    R517520  11.278  16.325   7.121 -0.1069  0.1047 -0.0805
 1263ERGO    C117521  11.143  16.568   7.383 -0.1603  0.1356 -0.1342
 1263ERGO    C217522  11.097  16.837   7.547  0.0499  0.0929 -0.2320
 1264ERGO   ROH17523  12.565  16.276   6.610  0.0351  0.2986 -0.0977
 1264ERGO    R117524  12.659  16.303   6.875  0.1250  0.0983 -0.1076
 1264ERGO    R217525  12.705  16.549   6.993  0.1854  0.0111  0.0559
 1264ERGO    R317526  12.539  16.451   7.185  0.2399 -0.1135  0.0407
 1264ERGO    R417527  12.654  16.695   7.301 -0.0454  0.0396  0.0065
 1264ERGO    R517528  12.655  16.496   7.390  0.1434  0.0622  0.0579
 1264ERGO    C117529  12.470  16.690   7.662 -0.1289 -0.0607 -0.0365
 1264ERGO    C217530  12.566  16.849   7.960  0.2470  0.0759 -0.1495
 1265ERGO   ROH17531   9.527   7.620   5.845 -0.1582  0.0725 -0.0301
 1265ERGO    R117532   9.363   7.613   6.075 -0.1256  0.0190 -0.0081
 1265ERGO    R217533   9.116   7.489   6.079 -0.1260  0.0171 -0.0012
 1265ERGO    R317534   9.221   7.356   6.291 -0.0941 -0.0315 -0.0476
 1265ERGO    R417535   8.932   7.342   6.332 -0.0819  0.1446  0.1054
 1265ERGO    R517536   9.079   7.415   6.475  0.0365  0.0661  0.0233
 1265ERGO    C117537   8.924   7.133   6.678 -0.0264  0.1731  0.1237
 1265ERGO    C217538   8.770   6.803   6.588 -0.0912  0.1111 -0.0258
 1266ERGO   ROH17539   4.462  14.900   6.159 -0.0967 -0.0005 -0.1452
 1266ERGO    R117540   4.533  14.722   6.367  0.0106  0.0284 -0.1578
 1266ERGO    R217541   4.716  14.788   6.563 -0.1954  0.2127 -0.0289
 1266ERGO    R317542   4.513  14.720   6.730 -0.2088 -0.1087 -0.1676
 1266ERGO    R417543   4.753  14.715   6.899 -0.3167  0.4069  0.0294
 1266ERGO    R517544   4.608  14.554   6.875 -0.0019  0.1164 -0.0323
 1266ERGO    C117545   4.584  14.608   7.251 -0.3998  0.2183 -0.0670
 1266ERGO    C217546   4.588  14.608   7.634  0.2044 -0.1683 -0.1167
 1267ERGO   ROH17547  17.993  14.515   6.373 -0.0271 -0.0370 -0.0536
 1267ERGO    R117548  18.161  14.617   6.576  0.1241 -0.1611 -0.1144
 1267ERGO    R217549  18.074  14.802   6.762  0.3903  0.0757 -0.2186
 1267ERGO    R317550  18.165  14.617   6.940  0.1254  0.0419 -0.1136
 1267ERGO    R417551  18.195  14.874   7.078  0.0573  0.0306 -0.0771
 1267ERGO    R517552  18.350  14.724   7.048  0.0424 -0.0230  0.0988
 1267ERGO    C117553  18.350  14.743   7.429 -0.3851 -0.0272  0.1039
 1267ERGO    C217554  18.322  14.976   7.659  0.2511 -0.0018  0.1429
 1268ERGO   ROH17555   7.140  16.697   6.387 -0.0361  0.1099  0.0499
 1268ERGO    R117556   7.181  16.909   6.569 -0.0575  0.0520  0.1224
 1268ERGO    R217557   7.056  16.920   6.816  0.0185 -0.0950  0.1667
 1268ERGO    R317558   7.311  16.947   6.907  0.0385 -0.0348  0.0958
 1268ERGO    R417559   7.143  16.977   7.146  0.0989 -0.1223  0.1508
 1268ERGO    R517560   7.296  17.116   7.076  0.0384 -0.0654  0.1274
 1268ERGO    C117561   7.433  17.034   7.423  0.1644 -0.0814  0.0750
 1268ERGO    C217562   7.478  17.174   7.741  0.1605 -0.0892  0.2221
 1269ERGO   ROH17563  14.488   9.948   5.893 -0.1960  0.0775 -0.1166
 1269ERGO    R117564  14.388   9.821   6.125 -0.0265  0.0168 -0.0745
 1269ERGO    R217565  14.507   9.849   6.372  0.1239 -0.0034 -0.1418
 1269ERGO    R317566  14.258   9.926   6.448  0.1549 -0.0643  0.0257
 1269ERGO    R417567  14.384   9.826   6.695  0.3855  0.0847 -0.0329
 1269ERGO    R517568  14.192   9.763   6.611  0.3422 -0.0200  0.1469
 1269ERGO    C117569  14.078   9.886   6.954  0.5669  0.0789  0.1878
 1269ERGO    C217570  14.000   9.693   7.318 -0.2867 -0.5286 -0.2303
 1270ERGO   ROH17571  10.317  10.819   6.734  0.1482 -0.1846 -0.1063
 1270ERGO    R117572  10.247  10.796   7.008  0.0797 -0.1063 -0.1163
 1270ERGO    R217573  10.378  10.625   7.181  0.0357 -0.0600 -0.0332
 1270ERGO    R317574  10.411  10.851   7.328  0.0014 -0.0170 -0.0921
 1270ERGO    R417575  10.494  10.634   7.506 -0.0889  0.0346  0.0091
 1270ERGO    R517576  10.346  10.787   7.550 -0.0892  0.0619 -0.0970
 1270ERGO    C117577  10.592  10.851   7.834 -0.1938  0.1299 -0.0217
 1270ERGO    C217578  10.780  10.690   7.987  0.1445 -0.0814 -0.2388
 1271ERGO   ROH17579   3.520   6.656   6.646 -0.2825 -0.1815  0.0159
 1271ERGO    R117580   3.545   6.535   6.901 -0.0564 -0.2052 -0.0137
 1271ERGO    R217581   3.786   6.515   7.034  0.0097  0.1020 -0.0684
 1271ERGO    R317582   3.649   6.638   7.234 -0.1242 -0.1262 -0.0187
 1271ERGO    R417583   3.831   6.454   7.371  0.0007 -0.0432 -0.0939
 1271ERGO    R517584   3.615   6.466   7.398 -0.0080 -0.2396 -0.1194
 1271ERGO    C117585   3.728   6.534   7.755 -0.1303 -0.3420 -0.0621
 1271ERGO    C217586   3.708   6.350   8.124 -0.0079  0.0772  0.2871
 1272ERGO   ROH17587   7.757  11.043   6.509  0.0352 -0.1154 -0.0944
 1272ERGO    R117588   7.849  11.061   6.776  0.0704 -0.0740 -0.1089
 1272ERGO    R217589   7.960  11.292   6.880  0.0339 -0.0392 -0.1423
 1272ERGO    R317590   7.769  11.260   7.070  0.0677 -0.0690 -0.1136
 1272ERGO    R417591   7.987  11.400   7.207  0.0406  0.0114 -0.1598
 1272ERGO    R517592   7.892  11.215   7.271  0.1035 -0.0060 -0.1229
 1272ERGO    C117593   7.822  11.433   7.576  0.0762  0.0130 -0.1429
 1272ERGO    C217594   7.826  11.531   7.911 -0.2350 -0.0787 -0.2374
 1273ERGO   ROH17595   0.658   9.577   6.314 -0.3048 -0.2894 -0.0225
 1273ERGO    R117596   0.492   9.498   6.529 -0.2105 -0.3462  0.0312
 1273ERGO    R217597   0.575   9.319   6.723 -0.0256 -0.1889  0.1049
 1273ERGO    R317598   0.502   9.520   6.891 -0.1870 -0.1764  0.0203
 1273ERGO    R417599   0.504   9.281   7.059 -0.0169 -0.1034  0.1160
 1273ERGO    R517600   0.339   9.421   7.036 -0.1197 -0.2380  0.0502
 1273ERGO    C117601   0.394   9.447   7.413 -0.1634 -0.0420  0.0430
 1273ERGO    C217602   0.267   9.434   7.668  0.1408 -0.0342 -0.1123
 1274ERGO   ROH17603  14.761   8.596   5.848 -0.0856  0.2557  0.3980
 1274ERGO    R117604  14.681   8.405   6.040 -0.2250  0.0375  0.1281
 1274ERGO    R217605  14.569   8.161   5.970  0.1141 -0.0171 -0.2384
 1274ERGO    R317606  14.770   8.062   6.125 -0.0439  0.0549  0.0205
 1274ERGO    R417607  14.543   7.886   6.178 -0.0141 -0.1456 -0.4209
 1274ERGO    R517608  14.661   7.992   6.326 -0.3129 -0.1269 -0.1756
 1274ERGO    C117609  14.715   7.633   6.444 -0.2372 -0.1527 -0.2841
 1274ERGO    C217610  14.961   7.469   6.729  0.2862 -0.0735 -0.0524
 1275ERGO   ROH17611   2.305  12.288   6.275 -0.0592 -0.1376  0.0074
 1275ERGO    R117612   2.438  12.225   6.517 -0.0517 -0.1538 -0.0004
 1275ERGO    R217613   2.526  12.420   6.693  0.0276 -0.1607 -0.0273
 1275ERGO    R317614   2.378  12.278   6.872  0.0008 -0.0988 -0.0009
 1275ERGO    R417615   2.545  12.455   7.036 -0.0102 -0.0701 -0.0344
 1275ERGO    R517616   2.528  12.238   7.055 -0.0264 -0.0590  0.0257
 1275ERGO    C117617   2.417  12.343   7.404 -0.0575  0.0407 -0.0138
 1275ERGO    C217618   2.387  12.424   7.621  0.1030  0.0424  0.2558
 1276ERGO   ROH17619  13.478   0.337   6.584 -0.0960  0.0695 -0.0125
 1276ERGO    R117620  13.589   0.360   6.843 -0.0412  0.1647 -0.0443
 1276ERGO    R217621  13.473   0.514   7.041 -0.1770 -0.0183  0.0167
 1276ERGO    R317622  13.483   0.282   7.183  0.1662 -0.0318 -0.0213
 1276ERGO    R417623  13.459   0.493   7.386 -0.4728 -0.1012  0.0028
 1276ERGO    R517624  13.612   0.338   7.378 -0.1309  0.2094  0.1184
 1276ERGO    C117625  13.461   0.263   7.720 -0.3229 -0.1621 -0.0410
 1276ERGO    C217626  13.527   0.323   7.995  0.0397 -0.3102 -0.2697
 1277ERGO   ROH17627   4.063  13.320   6.840  0.1135 -0.0526  0.0297
 1277ERGO    R117628   4.024  13.345   7.119  0.1075  0.0860  0.0177
 1277ERGO    R217629   3.967  13.128   7.281 -0.0527  0.1852  0.1028
 1277ERGO    R317630   4.183  13.217   7.421 -0.0008  0.0974  0.0788
 1277ERGO    R417631   4.033  13.053   7.612  0.0531  0.0226  0.0457
 1277ERGO    R517632   4.098  13.259   7.641  0.0791 -0.0012  0.1255
 1277ERGO    C117633   4.274  13.093   7.935  0.1634 -0.1543 -0.0100
 1277ERGO    C217634   4.348  13.179   8.319 -0.0085 -0.0517 -0.1886
 1278ERGO   ROH17635  14.704  17.829   6.408 -0.0053 -0.2295 -0.0795
 1278ERGO    R117636  14.582  17.845   6.663 -0.0279 -0.1002 -0.0961
 1278ERGO    R217637  14.645  17.670   6.868 -0.1102 -0.0615 -0.0324
 1278ERGO    R317638  14.693  17.900   7.005 -0.0367 -0.0269 -0.1037
 1278ERGO    R417639  14.711  17.689   7.207 -0.0224  0.0194 -0.0544
 1278ERGO    R517640  14.587  17.867   7.217  0.0074  0.0470 -0.0684
 1278ERGO    C117641  14.795  17.917   7.532  0.0977  0.0988 -0.1341
 1278ERGO    C217642  14.963  18.053   7.700 -0.0108 -0.2204  0.4540
 1279ERGO   ROH17643   7.798   6.500   6.505 -0.0063  0.1041  0.1823
 1279ERGO    R117644   7.851   6.550   6.778 -0.1445  0.1621  0.2005
 1279ERGO    R217645   7.668   6.495   6.978 -0.1238 -0.1115  0.1554
 1279ERGO    R317646   7.874   6.353   7.084  0.0557  0.1686  0.1892
 1279ERGO    R417647   7.723   6.448   7.316 -0.1414 -0.0850  0.1609
 1279ERGO    R517648   7.936   6.475   7.280 -0.1704  0.2274  0.2226
 1279ERGO    C117649   7.948   6.288   7.612  0.0167  0.1935  0.1959
 1279ERGO    C217650   7.699   6.311   7.828  0.2411  0.4521 -0.2241
 1280ERGO   ROH17651   7.746  17.993   6.403  0.0921 -0.0263 -0.0986
 1280ERGO    R117652   7.632  18.120   6.629  0.0544 -0.1316 -0.0562
 1280ERGO    R217653   7.668  18.026   6.886  0.2122 -0.1160 -0.0659
 1280ERGO    R317654   7.753  18.280   6.932  0.0174 -0.0465 -0.0875
 1280ERGO    R417655   7.688  18.174   7.198 -0.0131 -0.0275 -0.0928
 1280ERGO    R517656   7.613  18.359   7.110 -0.1052 -0.1018 -0.1626
 1280ERGO    C117657   7.780  18.499   7.423 -0.3273  0.0892 -0.1288
 1280ERGO    C217658   7.789  18.431   7.821 -0.3736 -0.1113  0.2395
 1281ERGO   ROH17659   4.384   1.796   6.503 -0.0310  0.0144 -0.0897
 1281ERGO    R117660   4.297   1.763   6.770 -0.0429 -0.0845 -0.1056
 1281ERGO    R217661   4.468   1.784   6.986 -0.0466 -0.1936 -0.0920
 1281ERGO    R317662   4.286   1.967   7.072 -0.0272 -0.2061 -0.0223
 1281ERGO    R417663   4.435   1.891   7.313  0.1123 -0.1451 -0.0904
 1281ERGO    R517664   4.218   1.886   7.287  0.0992 -0.1805  0.0272
 1281ERGO    C117665   4.245   2.124   7.584  0.2230 -0.1286 -0.0241
 1281ERGO    C217666   4.180   2.241   7.920  0.1339  0.0477  0.2912
 1282ERGO   ROH17667   1.232   4.387   6.164 -0.1046 -0.0995 -0.0389
 1282ERGO    R117668   1.322   4.458   6.423 -0.0708 -0.2832  0.0012
 1282ERGO    R217669   1.222   4.676   6.561  0.2077 -0.1596  0.0177
 1282ERGO    R317670   1.174   4.491   6.754 -0.1190 -0.1354 -0.0348
 1282ERGO    R417671   1.157   4.748   6.893  0.0950 -0.1382 -0.0086
 1282ERGO    R517672   1.282   4.579   6.949 -0.1323 -0.2897  0.0414
 1282ERGO    C117673   1.075   4.617   7.267 -0.2772 -0.1031 -0.0733
 1282ERGO    C217674   0.853   4.867   7.490  0.3789  0.0504 -0.1394
 1283ERGO   ROH17675  17.945  10.056   6.279 -0.2863 -0.1289  0.0709
 1283ERGO    R117676  18.113  10.068   6.507 -0.2103 -0.2982  0.0252
 1283ERGO    R217677  18.154  10.301   6.650  0.1259 -0.3173 -0.0339
 1283ERGO    R317678  18.073  10.149   6.860 -0.0191 -0.1748  0.0211
 1283ERGO    R417679  18.174  10.396   6.982  0.2899 -0.2517 -0.0602
 1283ERGO    R517680  18.235  10.192   7.031  0.0651 -0.3170 -0.0172
 1283ERGO    C117681  18.110  10.307   7.372  0.2494 -0.0799 -0.0239
 1283ERGO    C217682  18.104  10.509   7.551  0.2222  0.0885  0.0298
 1284ERGO   ROH17683  12.499   6.203   6.015 -0.3746 -0.1407 -0.0325
 1284ERGO    R117684  12.615   6.266   6.266 -0.2248 -0.2543 -0.0706
 1284ERGO    R217685  12.557   6.500   6.402  0.1074 -0.1567 -0.0803
 1284ERGO    R317686  12.495   6.328   6.603 -0.0587 -0.0586 -0.0472
 1284ERGO    R417687  12.632   6.550   6.736  0.2212 -0.2034 -0.0993
 1284ERGO    R517688  12.682   6.339   6.752 -0.0225 -0.2591 -0.0804
 1284ERGO    C117689  12.618   6.418   7.119  0.1314 -0.1385 -0.0793
 1284ERGO    C217690  12.856   6.348   7.365  0.0212  0.0997  0.1447
 1285ERGO   ROH17691  14.260   2.862   6.049 -0.0964  0.0237 -0.0437
 1285ERGO    R117692  14.265   3.077   6.233 -0.0723  0.0154 -0.0327
 1285ERGO    R217693  14.035   3.199   6.327 -0.0624  0.0707 -0.0603
 1285ERGO    R317694  14.142   3.140   6.570 -0.1111  0.0259 -0.0509
 1285ERGO    R417695  13.960   3.363   6.622 -0.0911  0.0255 -0.0432
 1285ERGO    R517696  14.170   3.353   6.676 -0.1088 -0.0010 -0.0096
 1285ERGO    C117697  14.016   3.404   7.021 -0.1534 -0.0430 -0.0247
 1285ERGO    C217698  13.763   3.295   7.249 -0.1454  0.1294 -0.0689
 1286ERGO   ROH17699  10.403   1.681   6.268 -0.0573 -0.1670  0.1494
 1286ERGO    R117700  10.539   1.546   6.476  0.0996 -0.1957  0.0316
 1286ERGO    R217701  10.814   1.555   6.504  0.1084  0.0010 -0.0280
 1286ERGO    R317702  10.753   1.637   6.755  0.0938 -0.2028  0.0356
 1286ERGO    R417703  11.039   1.577   6.766  0.1364  0.0263 -0.0558
 1286ERGO    R517704  10.885   1.499   6.898  0.2316 -0.1773 -0.0743
 1286ERGO    C117705  11.112   1.668   7.154  0.1389 -0.1504 -0.0123
 1286ERGO    C217706  11.231   1.841   7.407  0.1369 -0.1022 -0.2147
 1287ERGO   ROH17707  12.254  15.322   6.544 -0.0662 -0.1678 -0.0053
 1287ERGO    R117708  12.207  15.291   6.822  0.1539 -0.0329  0.0486
 1287ERGO    R217709  12.337  15.443   7.012  0.0229  0.3340 -0.1483
 1287ERGO    R317710  12.084  15.499   7.094 -0.0269 -0.0222 -0.0391
 1287ERGO    R417711  12.248  15.529   7.335  0.0379  0.1965 -0.1060
 1287ERGO    R517712  12.070  15.405   7.314  0.1976 -0.0546 -0.0354
 1287ERGO    C117713  11.959  15.632   7.600 -0.0002 -0.2180  0.0212
 1287ERGO    C217714  11.953  15.844   7.878 -0.0466  0.4826  0.0170
 1288ERGO   ROH17715   1.265   8.568   6.468 -0.0180 -0.1339  0.1074
 1288ERGO    R117716   1.222   8.638   6.739 -0.0327 -0.0741  0.0891
 1288ERGO    R217717   1.058   8.491   6.906 -0.0228 -0.0479  0.1164
 1288ERGO    R317718   1.279   8.486   7.064 -0.0295  0.0094  0.1291
 1288ERGO    R417719   1.056   8.429   7.246 -0.0144 -0.2440  0.0821
 1288ERGO    R517720   1.207   8.584   7.270 -0.1163 -0.1531  0.1816
 1288ERGO    C117721   1.262   8.387   7.592 -0.0158 -0.3043  0.0740
 1288ERGO    C217722   1.174   8.125   7.862 -0.3026  0.3203  0.1238
 1289ERGO   ROH17723   1.593  16.805   6.227 -0.0391  0.0272  0.0811
 1289ERGO    R117724   1.473  16.767   6.480 -0.0903  0.0125  0.0552
 1289ERGO    R217725   1.263  16.591   6.520 -0.0332 -0.0665  0.0241
 1289ERGO    R317726   1.427  16.490   6.712 -0.0409  0.0238  0.0778
 1289ERGO    R417727   1.176  16.340   6.741  0.0106 -0.0668  0.0400
 1289ERGO    R517728   1.282  16.449   6.898 -0.0686 -0.0043  0.0486
 1289ERGO    C117729   1.280  16.099   7.050  0.0289  0.0177  0.0999
 1289ERGO    C217730   1.337  15.914   7.321  0.0699 -0.0680 -0.2383
 1290ERGO   ROH17731   4.257  12.521   6.303 -0.0110 -0.1758  0.1702
 1290ERGO    R117732   4.437  12.443   6.507  0.1211 -0.0379  0.1098
 1290ERGO    R217733   4.639  12.608   6.598  0.0231  0.1257  0.0507
 1290ERGO    R317734   4.525  12.558   6.840  0.1354  0.0253  0.0828
 1290ERGO    R417735   4.807  12.613   6.901  0.1442  0.0504 -0.0153
 1290ERGO    R517736   4.693  12.438   6.961  0.2026  0.0146 -0.0264
 1290ERGO    C117737   4.797  12.570   7.303  0.3202 -0.0876 -0.0235
 1290ERGO    C217738   4.902  12.459   7.502 -0.1585 -0.0657 -0.0782
 1291ERGO   ROH17739   5.210  16.281   6.118 -0.0943  0.0311  0.0199
 1291ERGO    R117740   5.365  16.200   6.340 -0.1352  0.0238  0.0464
 1291ERGO    R217741   5.504  16.380   6.498 -0.1493  0.0177  0.0679
 1291ERGO    R317742   5.365  16.261   6.699 -0.1905  0.0280  0.0454
 1291ERGO    R417743   5.584  16.403   6.834 -0.0265 -0.2329  0.0576
 1291ERGO    R517744   5.534  16.192   6.855 -0.2018 -0.2022 -0.0421
 1291ERGO    C117745   5.500  16.304   7.218  0.0063 -0.3689  0.0305
 1291ERGO    C217746   5.277  16.378   7.464 -0.1339 -0.1107 -0.1965
 1292ERGO   ROH17747  11.110   8.977   6.167 -0.0009 -0.0918 -0.1441
 1292ERGO    R117748  11.157   8.900   6.435 -0.3156 -0.0486 -0.0734
 1292ERGO    R217749  11.387   8.969   6.571 -0.1908 -0.5401 -0.0179
 1292ERGO    R317750  11.210   9.069   6.753 -0.0340  0.0233 -0.1563
 1292ERGO    R417751  11.474   9.102   6.879  0.0019 -0.7049  0.0012
 1292ERGO    R517752  11.300   9.003   6.965 -0.3563 -0.1881 -0.0799
 1292ERGO    C117753  11.359   9.273   7.228  0.2611 -0.2720 -0.1176
 1292ERGO    C217754  11.376   9.439   7.647 -0.1573 -0.2113 -0.0034
 1293ERGO   ROH17755  12.077  10.114   6.057  0.0191  0.0695 -0.0333
 1293ERGO    R117756  11.979  10.028   6.308  0.0500 -0.1350 -0.0896
 1293ERGO    R217757  12.106   9.834   6.459  0.3644  0.1137 -0.0274
 1293ERGO    R317758  12.099  10.026   6.652 -0.1307  0.1040 -0.0214
 1293ERGO    R417759  12.063   9.774   6.796  0.4236 -0.0038 -0.0401
 1293ERGO    R517760  11.934   9.949   6.806  0.0021 -0.2953 -0.0638
 1293ERGO    C117761  12.031   9.918   7.174 -0.0067 -0.0815 -0.0419
 1293ERGO    C217762  12.082   9.918   7.552 -0.0595  0.3299 -0.0830
 1294ERGO   ROH17763  13.645  14.205   6.243 -0.3223 -0.0141 -0.2018
 1294ERGO    R117764  13.495  13.978   6.321 -0.1027 -0.0911  0.0013
 1294ERGO    R217765  13.613  13.748   6.419  0.1202  0.1083  0.1926
 1294ERGO    R317766  13.443  13.788   6.627  0.0912  0.1175  0.1693
 1294ERGO    R417767  13.506  13.502   6.636  0.1373  0.1188  0.2151
 1294ERGO    R517768  13.307  13.591   6.632  0.1189  0.0924  0.1795
 1294ERGO    C117769  13.284  13.396   6.958  0.1200  0.1335  0.2063
 1294ERGO    C217770  13.460  13.226   7.232  0.1389  0.1043 -0.0729
 1295ERGO   ROH17771   5.707  10.904   6.253 -0.0655  0.0446 -0.0557
 1295ERGO    R117772   5.595  10.812   6.496  0.0229  0.1064  0.0108
 1295ERGO    R217773   5.750  10.744   6.715  0.1154  0.0266 -0.0705
 1295ERGO    R317774   5.589  10.922   6.842  0.2812  0.1177  0.0127
 1295ERGO    R417775   5.628  10.705   7.036 -0.0185 -0.0643 -0.1328
 1295ERGO    R517776   5.437  10.785   6.968  0.0919  0.2005 -0.1276
 1295ERGO    C117777   5.406  10.849   7.343  0.0593 -0.0318 -0.0910
 1295ERGO    C217778   5.120  10.928   7.595 -0.1070  0.1125 -0.1084
 1296ERGO   ROH17779  11.071  10.054   6.095 -0.0724 -0.1978 -0.0717
 1296ERGO    R117780  10.978  10.001   6.357 -0.0213 -0.1355 -0.0396
 1296ERGO    R217781  10.710  10.009   6.425 -0.0053 -0.0164  0.0377
 1296ERGO    R317782  10.759   9.758   6.516 -0.0802 -0.0296  0.0388
 1296ERGO    R417783  10.528   9.850   6.671  0.0252  0.0737  0.1179
 1296ERGO    R517784  10.715   9.771   6.751  0.0161  0.0014  0.0510
 1296ERGO    C117785  10.468   9.521   6.901 -0.0271  0.1138  0.1657
 1296ERGO    C217786  10.252   9.288   7.086 -0.1998 -0.0629  0.2337
 1297ERGO   ROH17787  17.198   4.392   5.866  0.1205 -0.1964 -0.0719
 1297ERGO    R117788  17.322   4.324   6.111  0.0443 -0.2321 -0.0428
 1297ERGO    R217789  17.342   4.501   6.322  0.1177 -0.2100 -0.0676
 1297ERGO    R317790  17.222   4.300   6.460 -0.0227 -0.1186 -0.0537
 1297ERGO    R417791  17.265   4.510   6.659  0.2232 -0.1760 -0.0441
 1297ERGO    R517792  17.329   4.303   6.674  0.0430 -0.2356 -0.0842
 1297ERGO    C117793  17.109   4.327   6.984  0.1528 -0.0705 -0.0175
 1297ERGO    C217794  16.932   4.226   7.306 -0.1884 -0.0126  0.0264
 1298ERGO   ROH17795  11.544   3.332   5.710  0.3183 -0.0433  0.0620
 1298ERGO    R117796  11.447   3.260   5.967  0.2507  0.0075  0.0513
 1298ERGO    R217797  11.295   3.033   6.011  0.1043  0.0994  0.0306
 1298ERGO    R317798  11.488   2.980   6.195  0.0561 -0.0270  0.0451
 1298ERGO    R417799  11.283   2.776   6.242 -0.0477  0.0635 -0.0167
 1298ERGO    R517800  11.367   2.911   6.390 -0.0006 -0.0039  0.0176
 1298ERGO    C117801  11.457   2.576   6.549 -0.1814 -0.0761 -0.0306
 1298ERGO    C217802  11.365   2.471   6.773  0.1241  0.3040  0.0981
 1299ERGO   ROH17803   5.207   1.308   6.650 -0.0467 -0.2093 -0.0788
 1299ERGO    R117804   5.257   1.185   6.900  0.0979  0.1285  0.0666
 1299ERGO    R217805   5.281   1.328   7.135 -0.2848  0.4163 -0.0538
 1299ERGO    R317806   5.087   1.159   7.221  0.0076  0.1069  0.0157
 1299ERGO    R417807   5.207   1.263   7.467 -0.0669  0.2826 -0.0302
 1299ERGO    R517808   5.180   1.053   7.414  0.2402  0.2425 -0.0238
 1299ERGO    C117809   4.981   1.066   7.740  0.3343 -0.0856  0.0487
 1299ERGO    C217810   4.878   1.027   7.966 -0.0039  0.3302 -0.1131
 1300ERGO   ROH17811   6.675  16.743   6.362 -0.3085 -0.1805 -0.0947
 1300ERGO    R117812   6.646  16.824   6.632 -0.1399  0.0655 -0.1465
 1300ERGO    R217813   6.491  16.685   6.813 -0.2229  0.3604  0.0212
 1300ERGO    R317814   6.720  16.685   6.960 -0.1708  0.2499 -0.0607
 1300ERGO    R417815   6.506  16.685   7.159 -0.0939  0.2390  0.0160
 1300ERGO    R517816   6.672  16.825   7.147 -0.0631  0.1969  0.0049
 1300ERGO    C117817   6.729  16.685   7.497  0.0302  0.0642 -0.0638
 1300ERGO    C217818   6.557  16.588   7.843  0.3341  0.0845 -0.2517
 1301ERGO   ROH17819  10.467  15.432   6.189  0.0704 -0.1092  0.0389
 1301ERGO    R117820  10.538  15.372   6.457  0.1003 -0.0504  0.0447
 1301ERGO    R217821  10.733  15.513   6.594  0.0933  0.0016  0.0042
 1301ERGO    R317822  10.534  15.546   6.777  0.1026  0.0085  0.0125
 1301ERGO    R417823  10.778  15.628   6.916  0.1378 -0.1810  0.0639
 1301ERGO    R517824  10.633  15.480   6.985  0.0625 -0.1437 -0.0157
 1301ERGO    C117825  10.618  15.726   7.276  0.1724 -0.2810  0.1066
 1301ERGO    C217826  10.525  15.799   7.572  0.0047 -0.2894  0.1588
 1302ERGO   ROH17827   0.272   9.486   6.142 -0.0990  0.1675 -0.0197
 1302ERGO    R117828   0.107   9.337   6.318  0.1062 -0.0928 -0.0409
 1302ERGO    R217829   0.208   9.148   6.492  0.3982  0.1431  0.0578
 1302ERGO    R317830   0.074   9.295   6.678  0.0450 -0.0421 -0.0411
 1302ERGO    R417831   0.173   9.061   6.825  0.2794  0.1089  0.0371
 1302ERGO    R517832  -0.033   9.132   6.817  0.1795 -0.1925 -0.1141
 1302ERGO    C117833   0.027   9.149   7.193 -0.1213 -0.0848 -0.0679
 1302ERGO    C217834   0.287   8.999   7.410 -0.0913 -0.2251  0.2383
 1303ERGO   ROH17835   7.522   1.179   6.159  0.0462  0.0499  0.0115
 1303ERGO    R117836   7.714   1.209   6.364 -0.0129  0.0198  0.0722
 1303ERGO    R217837   7.776   1.454   6.476  0.0732  0.0282  0.0111
 1303ERGO    R317838   7.718   1.326   6.709 -0.0802  0.1362  0.0336
 1303ERGO    R417839   7.816   1.589   6.792  0.3881 -0.0188 -0.0060
 1303ERGO    R517840   7.890   1.396   6.860  0.0829 -0.1433 -0.0172
 1303ERGO    C117841   7.785   1.547   7.194  0.4274  0.0553  0.0052
 1303ERGO    C217842   7.601   1.606   7.466  0.1118 -0.0083 -0.0477
 1304ERGO   ROH17843   9.228   0.479   6.217 -0.1476  0.0474  0.0326
 1304ERGO    R117844   9.081   0.380   6.438 -0.0267  0.0397  0.1117
 1304ERGO    R217845   9.202   0.306   6.676  0.1109 -0.0051  0.0364
 1304ERGO    R317846   9.024   0.481   6.783  0.1989  0.0099  0.1573
 1304ERGO    R417847   9.066   0.281   6.993 -0.0010 -0.2133 -0.0271
 1304ERGO    R517848   8.874   0.344   6.910  0.0699 -0.0064 -0.0182
 1304ERGO    C117849   8.820   0.430   7.278  0.0166 -0.3206  0.0495
 1304ERGO    C217850   8.746   0.356   7.594  0.0091 -0.0522 -0.1404
 1305ERGO   ROH17851   8.288   9.059   6.322 -0.1806  0.1103 -0.0187
 1305ERGO    R117852   8.191   9.065   6.587 -0.0306  0.1426  0.0358
 1305ERGO    R217853   8.337   8.970   6.801  0.1016  0.1993 -0.0342
 1305ERGO    R317854   8.290   9.218   6.902  0.1263  0.2086 -0.0430
 1305ERGO    R417855   8.352   9.052   7.137  0.1383  0.2065 -0.0371
 1305ERGO    R517856   8.175   9.177   7.109  0.1395  0.2197 -0.0288
 1305ERGO    C117857   8.316   9.333   7.427  0.1829  0.2193 -0.0468
 1305ERGO    C217858   8.403   9.222   7.814 -0.0908 -0.2035  0.2032
 1306ERGO   ROH17859  16.338   0.606   6.280 -0.1037 -0.2505  0.1111
 1306ERGO    R117860  16.377   0.685   6.549 -0.0813 -0.1592  0.0806
 1306ERGO    R217861  16.238   0.895   6.663 -0.0795 -0.1293  0.0228
 1306ERGO    R317862  16.173   0.708   6.850 -0.0524 -0.0693  0.0944
 1306ERGO    R417863  16.149   0.964   6.990 -0.2811 -0.0031 -0.0563
 1306ERGO    R517864  16.267   0.792   7.053 -0.2016  0.1029  0.0959
 1306ERGO    C117865  16.036   0.829   7.355 -0.3728  0.1268 -0.0352
 1306ERGO    C217866  16.079   0.848   7.640 -0.1563  0.0006  0.1302
 1307ERGO   ROH17867   9.406   2.612   6.084  0.0789  0.0396 -0.0141
 1307ERGO    R117868   9.319   2.542   6.344  0.0896 -0.0176 -0.0255
 1307ERGO    R217869   9.098   2.382   6.388  0.0923 -0.0298 -0.0512
 1307ERGO    R317870   9.274   2.235   6.534  0.0999 -0.0595 -0.0906
 1307ERGO    R417871   9.052   2.290   6.718  0.2202  0.1089  0.0059
 1307ERGO    R517872   9.264   2.331   6.754  0.2579  0.0238 -0.1185
 1307ERGO    C117873   9.191   2.098   7.047  0.3015  0.1619  0.0022
 1307ERGO    C217874   9.033   1.884   7.221  0.0892  0.2739 -0.1987
 1308ERGO   ROH17875   5.060   2.331   6.288  0.2870  0.0394 -0.1611
 1308ERGO    R117876   4.993   2.474   6.523  0.2198  0.0142 -0.1626
 1308ERGO    R217877   4.970   2.352   6.769 -0.0330 -0.0491 -0.2047
 1308ERGO    R317878   5.148   2.543   6.845  0.0487 -0.1927 -0.0353
 1308ERGO    R417879   4.993   2.484   7.088 -0.3046  0.0268 -0.2153
 1308ERGO    R517880   5.025   2.681   6.998 -0.0108 -0.0341 -0.2312
 1308ERGO    C117881   5.174   2.739   7.345 -0.3862 -0.0639 -0.0623
 1308ERGO    C217882   5.286   2.839   7.736 -0.0695 -0.0113 -0.2459
 1309ERGO   ROH17883  14.931  11.154   6.123  0.1583 -0.0017  0.0454
 1309ERGO    R117884  14.910  11.231   6.394  0.1070 -0.0566  0.0570
 1309ERGO    R217885  14.872  11.047   6.598  0.1979 -0.1108  0.0264
 1309ERGO    R317886  15.093  11.166   6.702  0.1309 -0.0079  0.0529
 1309ERGO    R417887  14.949  11.060   6.934  0.2052 -0.1667  0.0270
 1309ERGO    R517888  15.017  11.265   6.906  0.0794 -0.1163  0.0869
 1309ERGO    C117889  15.201  11.179   7.228  0.1467 -0.1027  0.0522
 1309ERGO    C217890  15.180  11.110   7.539 -0.2207  0.1650 -0.2088
 1310ERGO   ROH17891   2.466   1.528   6.304  0.1957 -0.2010  0.1767
 1310ERGO    R117892   2.310   1.428   6.519  0.1652 -0.1691  0.1690
 1310ERGO    R217893   2.380   1.465   6.784 -0.0426  0.1545  0.1826
 1310ERGO    R317894   2.129   1.568   6.802 -0.1703 -0.0956 -0.0745
 1310ERGO    R417895   2.187   1.468   7.071 -0.1759  0.3248  0.0935
 1310ERGO    R517896   2.014   1.419   6.949 -0.0706 -0.0325  0.0722
 1310ERGO    C117897   1.840   1.567   7.255 -0.3734  0.1892 -0.1998
 1310ERGO    C217898   1.613   1.729   7.352  0.1299  0.0510 -0.4044
 1311ERGO   ROH17899  16.177  14.816   6.360  0.1013 -0.1442  0.0162
 1311ERGO    R117900  16.343  14.818   6.590 -0.0148  0.0114  0.1012
 1311ERGO    R217901  16.612  14.875   6.578  0.0164 -0.1142  0.1800
 1311ERGO    R317902  16.548  15.061   6.766 -0.0029  0.1002 -0.0337
 1311ERGO    R417903  16.830  14.999   6.816 -0.1184 -0.1689  0.3335
 1311ERGO    R517904  16.668  14.992   6.961 -0.2973  0.1161  0.1590
 1311ERGO    C117905  16.897  15.246   7.131 -0.2154  0.0006  0.2222
 1311ERGO    C217906  17.261  15.263   7.242 -0.0612 -0.1183 -0.2005
 1312ERGO   ROH17907  14.731   0.190   6.534  0.0532  0.0141 -0.1745
 1312ERGO    R117908  14.593   0.152   6.778 -0.0058  0.0844 -0.1974
 1312ERGO    R217909  14.674  -0.032   6.968 -0.1285  0.0490 -0.1856
 1312ERGO    R317910  14.669   0.184   7.133 -0.0515  0.0501 -0.1827
 1312ERGO    R417911  14.677  -0.047   7.313 -0.4647  0.0175 -0.1804
 1312ERGO    R517912  14.531   0.115   7.317 -0.3020  0.1786 -0.3109
 1312ERGO    C117913  14.673   0.147   7.669 -0.5882 -0.0001 -0.1747
 1312ERGO    C217914  14.891   0.190   7.871 -0.0386  0.2542 -0.0316
 1313ERGO   ROH17915   8.793  17.524   6.459  0.0430  0.2927 -0.0712
 1313ERGO    R117916   8.977  17.435   6.654 -0.0033  0.1837 -0.0750
 1313ERGO    R217917   9.165  17.239   6.604 -0.0705  0.1203 -0.1008
 1313ERGO    R317918   9.339  17.428   6.693 -0.0089  0.0403 -0.0530
 1313ERGO    R417919   9.435  17.178   6.811 -0.2045  0.0147  0.0434
 1313ERGO    R517920   9.389  17.362   6.917 -0.1539  0.0587 -0.0171
 1313ERGO    C117921   9.755  17.319   7.015 -0.2245 -0.1219  0.1723
 1313ERGO    C217922  10.134  17.163   7.053 -0.3452  0.1724 -0.2001
 1314ERGO   ROH17923  14.779   1.641   6.158  0.0563  0.2144  0.0511
 1314ERGO    R117924  14.934   1.573   6.385 -0.0546  0.0361  0.0750
 1314ERGO    R217925  15.061   1.762   6.540  0.0400 -0.1017  0.1626
 1314ERGO    R317926  14.925   1.642   6.742 -0.1004 -0.0611  0.0941
 1314ERGO    R417927  15.117   1.819   6.876  0.0652 -0.2999  0.1937
 1314ERGO    R517928  15.091   1.605   6.912 -0.1472 -0.2963  0.0967
 1314ERGO    C117929  15.022   1.740   7.262 -0.0520 -0.3771  0.1474
 1314ERGO    C217930  15.187   1.851   7.533  0.0775 -0.0095  0.0760
 1315ERGO   ROH17931   1.638   9.806   6.460 -0.0975 -0.4940 -0.0877
 1315ERGO    R117932   1.613   9.659   6.701 -0.1899 -0.3406 -0.0027
 1315ERGO    R217933   1.708   9.753   6.942  0.0246 -0.3324 -0.0878
 1315ERGO    R317934   1.453   9.707   7.024 -0.0078  0.0305  0.0383
 1315ERGO    R417935   1.615   9.685   7.268  0.0957 -0.2914 -0.0581
 1315ERGO    R517936   1.474   9.536   7.191 -0.1759 -0.0570 -0.0279
 1315ERGO    C117937   1.321   9.602   7.534  0.1066  0.0732  0.0777
 1315ERGO    C217938   1.169   9.659   7.761 -0.0434  0.0102  0.0383
 1316ERGO   ROH17939  14.834  16.917   6.130 -0.0485  0.0061  0.0224
 1316ERGO    R117940  14.758  17.058   6.364 -0.0561  0.0041  0.0211
 1316ERGO    R217941  14.761  16.943   6.615  0.0043  0.0235  0.0289
 1316ERGO    R317942  14.916  17.157   6.676 -0.0431  0.0682 -0.0052
 1316ERGO    R417943  14.813  17.065   6.934  0.1166 -0.0235  0.0289
 1316ERGO    R517944  14.800  17.267   6.854  0.0030 -0.0107  0.0754
 1316ERGO    C117945  14.989  17.337   7.177  0.1375 -0.0088 -0.0030
 1316ERGO    C217946  15.109  17.507   7.388  0.1669  0.2914 -0.2943
 1317ERGO   ROH17947   4.567  15.741   6.534  0.0761  0.0102 -0.0692
 1317ERGO    R117948   4.574  15.759   6.816  0.0961  0.1469 -0.0776
 1317ERGO    R217949   4.509  15.546   6.980 -0.1428  0.2997  0.0324
 1317ERGO    R317950   4.754  15.595   7.087 -0.0841  0.0810  0.0037
 1317ERGO    R417951   4.598  15.483   7.308 -0.1605  0.2302  0.0240
 1317ERGO    R517952   4.708  15.671   7.310  0.0108  0.1308  0.0061
 1317ERGO    C117953   4.880  15.492   7.600 -0.1158 -0.0155 -0.0078
 1317ERGO    C217954   5.132  15.436   7.836 -0.0568  0.0416 -0.1230
 1318ERGO   ROH17955   8.843  10.729   6.423  0.1098 -0.2208  0.0764
 1318ERGO    R117956   8.736  10.729   6.685 -0.0207  0.0177  0.0268
 1318ERGO    R217957   8.841  10.573   6.889 -0.3377 -0.0688  0.1340
 1318ERGO    R317958   8.856  10.812   7.019 -0.0620 -0.0401  0.0547
 1318ERGO    R417959   8.846  10.612   7.232 -0.1968  0.0433  0.1196
 1318ERGO    R517960   8.715  10.784   7.211 -0.0306  0.1649  0.1056
 1318ERGO    C117961   8.863  10.858   7.554  0.1441  0.1354  0.0367
 1318ERGO    C217962   8.985  10.863   7.929  0.2665  0.0640  0.0188
 1319ERGO   ROH17963   7.954  14.314   6.025 -0.3309  0.1003 -0.0390
 1319ERGO    R117964   8.064  14.327   6.285 -0.3047 -0.0313 -0.0424
 1319ERGO    R217965   8.214  14.543   6.372 -0.0818 -0.1845 -0.0306
 1319ERGO    R317966   8.033  14.545   6.575 -0.0746 -0.0199 -0.0255
 1319ERGO    R417967   8.264  14.691   6.680 -0.0482 -0.0067 -0.1204
 1319ERGO    R517968   8.165  14.521   6.773 -0.0801  0.0750 -0.0133
 1319ERGO    C117969   8.123  14.780   7.050 -0.0218  0.2513 -0.1679
 1319ERGO    C217970   8.229  14.841   7.387  0.1289  0.0063  0.0457
 1320ERGO   ROH17971   5.469   2.229   6.648  0.3085 -0.1381 -0.0592
 1320ERGO    R117972   5.546   2.210   6.920  0.2026 -0.0601 -0.0233
 1320ERGO    R217973   5.514   2.419   7.099  0.0124 -0.0518 -0.0636
 1320ERGO    R317974   5.381   2.232   7.244  0.0505 -0.1062 -0.0977
 1320ERGO    R417975   5.489   2.417   7.443 -0.0765 -0.0726 -0.0695
 1320ERGO    R517976   5.515   2.201   7.439  0.0098 -0.0586 -0.0651
 1320ERGO    C117977   5.348   2.241   7.780 -0.0925 -0.1358 -0.1049
 1320ERGO    C217978   5.176   2.322   8.065 -0.2883 -0.0979  0.0520
 1321ERGO   ROH17979   3.212  14.262   6.662  0.2455  0.0652  0.2804
 1321ERGO    R117980   3.142  14.490   6.815 -0.0417  0.0348  0.2010
 1321ERGO    R217981   2.949  14.483   7.013 -0.1091 -0.1122  0.1395
 1321ERGO    R317982   3.149  14.585   7.166 -0.2603  0.1266  0.1803
 1321ERGO    R417983   2.920  14.567   7.346 -0.2583 -0.1708  0.1412
 1321ERGO    R517984   3.040  14.744   7.307 -0.4745 -0.0200  0.1765
 1321ERGO    C117985   3.090  14.713   7.684 -0.4871  0.0191  0.1804
 1321ERGO    C217986   3.242  14.816   8.062  0.0743  0.0887  0.0944
 1322ERGO   ROH17987   7.732  15.489   6.536  0.1834  0.0424  0.2761
 1322ERGO    R117988   7.472  15.469   6.645  0.1140  0.0631  0.1164
 1322ERGO    R217989   7.423  15.472   6.917 -0.0500  0.0346  0.0868
 1322ERGO    R317990   7.255  15.675   6.852  0.0144  0.0647  0.0125
 1322ERGO    R417991   7.157  15.577   7.110 -0.0826  0.1113  0.0005
 1322ERGO    R517992   7.040  15.601   6.928 -0.0252  0.1165 -0.0401
 1322ERGO    C117993   6.843  15.829   7.161 -0.0411  0.1843 -0.1194
 1322ERGO    C217994   6.781  16.085   7.396  0.0603 -0.0569 -0.0107
 1323ERGO   ROH17995   5.925  15.604   6.395 -0.2099 -0.0116 -0.0284
 1323ERGO    R117996   5.917  15.382   6.570 -0.0165  0.0098  0.0088
 1323ERGO    R217997   6.094  15.351   6.780 -0.0425  0.2424  0.0634
 1323ERGO    R317998   5.867  15.327   6.927 -0.0591  0.0170  0.0050
 1323ERGO    R417999   6.083  15.329   7.124 -0.1007  0.2403  0.0617
 1323ERGO    R518000   5.927  15.179   7.105  0.0507  0.0775  0.0238
 1323ERGO    C118001   5.863  15.293   7.463 -0.1503  0.0275  0.0059
 1323ERGO    C218002   5.820  15.333   7.854 -0.0675  0.0350  0.2699
 1324ERGO   ROH18003  14.985   0.552   6.339 -0.0979  0.1279 -0.0878
 1324ERGO    R118004  14.862   0.684   6.557  0.0045  0.2032 -0.0753
 1324ERGO    R218005  14.605   0.627   6.640 -0.0136  0.3431 -0.0346
 1324ERGO    R318006  14.725   0.589   6.881  0.0022  0.2906 -0.0502
 1324ERGO    R418007  14.438   0.598   6.941 -0.0079  0.0620 -0.0555
 1324ERGO    R518008  14.594   0.719   7.034 -0.0937  0.1179  0.0181
 1324ERGO    C118009  14.454   0.546   7.343  0.0101 -0.1510 -0.0822
 1324ERGO    C218010  14.327   0.643   7.668  0.2569  0.1618 -0.0522
 1325ERGO   ROH18011  10.160  18.220   6.310 -0.0130  0.0019  0.1876
 1325ERGO    R118012   9.947  18.161   6.487  0.0117  0.0517  0.2351
 1325ERGO    R218013   9.865  17.903   6.541 -0.2041  0.0766  0.0517
 1325ERGO    R318014   9.905  17.979   6.799 -0.0119 -0.1756  0.1017
 1325ERGO    R418015   9.728  17.746   6.817 -0.2737  0.0095 -0.0211
 1325ERGO    R518016   9.694  17.942   6.906 -0.0140 -0.0180  0.1539
 1325ERGO    C118017   9.686  17.726   7.220 -0.1337 -0.2662 -0.0166
 1325ERGO    C218018   9.662  17.785   7.616  0.1163  0.0123  0.2012
 1326ERGO   ROH18019   5.771   6.943   6.610  0.1724  0.0275  0.0996
 1326ERGO    R118020   5.654   6.751   6.783 -0.0798  0.0748 -0.0152
 1326ERGO    R218021   5.795   6.631   6.988 -0.2530 -0.1880 -0.0512
 1326ERGO    R318022   5.588   6.722   7.139 -0.1768 -0.0265 -0.0400
 1326ERGO    R418023   5.766   6.588   7.330 -0.2085 -0.0722 -0.0316
 1326ERGO    R518024   5.553   6.549   7.302 -0.2401  0.0362  0.0187
 1326ERGO    C118025   5.555   6.647   7.671 -0.1112  0.1469 -0.0097
 1326ERGO    C218026   5.485   6.736   7.960  0.0654 -0.1576  0.1347
 1327ERGO   ROH18027  16.149  16.125   6.396  0.2707 -0.0142  0.0233
 1327ERGO    R118028  16.230  16.056   6.658  0.0863 -0.1069  0.0558
 1327ERGO    R218029  16.172  16.213   6.878  0.0468 -0.1207  0.0472
 1327ERGO    R318030  16.066  15.982   6.975 -0.1289 -0.0820 -0.0460
 1327ERGO    R418031  16.188  16.110   7.208  0.1748 -0.3623 -0.0305
 1327ERGO    R518032  16.224  15.907   7.138 -0.0828 -0.3602 -0.2040
 1327ERGO    C118033  16.098  15.834   7.490  0.0847 -0.4666 -0.1632
 1327ERGO    C218034  16.215  15.718   7.849 -0.1305 -0.0567  0.0885
 1328ERGO   ROH18035  10.708  17.413   6.257 -0.1216  0.2140  0.0807
 1328ERGO    R118036  10.807  17.412   6.522 -0.1665  0.0057  0.0997
 1328ERGO    R218037  10.927  17.633   6.637  0.0753 -0.1636  0.1867
 1328ERGO    R318038  10.740  17.593   6.830 -0.0168 -0.0122  0.1494
 1328ERGO    R418039  10.950  17.748   6.962  0.3189 -0.5495  0.3122
 1328ERGO    R518040  10.866  17.559   7.030 -0.0591 -0.4831  0.1164
 1328ERGO    C118041  10.787  17.777   7.332  0.3743 -0.6318  0.3502
 1328ERGO    C218042  10.612  17.932   7.539  0.0344  0.1424 -0.2078
 1329ERGO   ROH18043   9.988   4.629   5.980 -0.1225 -0.0405 -0.1430
 1329ERGO    R118044   9.856   4.748   6.201 -0.0399 -0.0112 -0.1084
 1329ERGO    R218045   9.603   4.672   6.281 -0.0115 -0.0011 -0.0019
 1329ERGO    R318046   9.725   4.637   6.521  0.0810  0.0302 -0.0446
 1329ERGO    R418047   9.473   4.770   6.586  0.1215  0.0614  0.0349
 1329ERGO    R518048   9.672   4.835   6.645  0.1487  0.0540 -0.0561
 1329ERGO    C118049   9.513   4.794   6.989  0.2855  0.1272  0.0162
 1329ERGO    C218050   9.508   4.671   7.331  0.2353  0.0763 -0.1236
 1330ERGO   ROH18051  13.190   2.282   5.908 -0.2570 -0.0967  0.0620
 1330ERGO    R118052  13.407   2.289   6.091 -0.2090 -0.3903  0.0193
 1330ERGO    R218053  13.445   2.496   6.269  0.2124 -0.3443 -0.1193
 1330ERGO    R318054  13.448   2.296   6.452 -0.1352 -0.2394  0.0094
 1330ERGO    R418055  13.547   2.531   6.597  0.2221 -0.2945 -0.1268
 1330ERGO    R518056  13.645   2.336   6.582 -0.0818 -0.4692  0.0085
 1330ERGO    C118057  13.609   2.362   6.960 -0.0987 -0.1671 -0.0104
 1330ERGO    C218058  13.700   2.414   7.229  0.0776  0.0237  0.0962
 1331ERGO   ROH18059   5.367   8.462   6.489  0.2480 -0.1796 -0.0133
 1331ERGO    R118060   5.449   8.465   6.759  0.0163 -0.1435  0.0586
 1331ERGO    R218061   5.430   8.690   6.918  0.0883 -0.0583 -0.0582
 1331ERGO    R318062   5.293   8.522   7.083 -0.2129  0.1404 -0.0959
 1331ERGO    R418063   5.422   8.716   7.263  0.2659 -0.2004 -0.0417
 1331ERGO    R518064   5.436   8.498   7.274 -0.1854 -0.2500 -0.1532
 1331ERGO    C118065   5.290   8.574   7.618  0.0866 -0.0966 -0.0675
 1331ERGO    C218066   5.206   8.791   7.903 -0.1709 -0.1861 -0.0009
 1332ERGO   ROH18067   3.460   7.901   6.595 -0.1517  0.1200 -0.1182
 1332ERGO    R118068   3.262   7.811   6.776 -0.0811  0.2100  0.0055
 1332ERGO    R218069   3.293   7.582   6.928 -0.1898  0.0578 -0.1940
 1332ERGO    R318070   3.240   7.751   7.135  0.2011 -0.0290 -0.0135
 1332ERGO    R418071   3.147   7.489   7.228 -0.2892  0.0538 -0.2436
 1332ERGO    R518072   3.031   7.674   7.223  0.0680  0.2942 -0.0337
 1332ERGO    C118073   3.012   7.594   7.596  0.0199 -0.0300 -0.1029
 1332ERGO    C218074   2.833   7.635   8.004  0.1781 -0.0883  0.0854
 1333ERGO   ROH18075   4.407   3.952   6.167  0.2354 -0.1196 -0.0802
 1333ERGO    R118076   4.649   3.842   6.266  0.2033  0.0530  0.1980
 1333ERGO    R218077   4.729   3.872   6.529 -0.2766 -0.1550  0.3765
 1333ERGO    R318078   4.745   3.601   6.521  0.0561 -0.1339  0.0801
 1333ERGO    R418079   4.896   3.677   6.760  0.0702 -0.2005  0.0976
 1333ERGO    R518080   4.967   3.552   6.596  0.1557  0.0586 -0.0723
 1333ERGO    C118081   5.008   3.309   6.887  0.5844 -0.2072 -0.3432
 1333ERGO    C218082   5.074   3.145   7.134  0.0107 -0.0180  0.0175
 1334ERGO   ROH18083   5.583  13.636   6.445 -0.1422 -0.1943  0.1010
 1334ERGO    R118084   5.630  13.681   6.720  0.1238 -0.3806  0.0904
 1334ERGO    R218085   5.883  13.678   6.831  0.3078  0.1605 -0.2712
 1334ERGO    R318086   5.810  13.924   6.922 -0.2281 -0.1136  0.0928
 1334ERGO    R418087   6.017  13.833   7.110  0.3912  0.2671 -0.3701
 1334ERGO    R518088   5.817  13.903   7.161  0.2660 -0.3375  0.0708
 1334ERGO    C118089   6.026  14.154   7.357 -0.0632  0.0717 -0.0859
 1334ERGO    C218090   6.149  14.330   7.556  0.2798  0.0082  0.0822
 1335ERGO   ROH18091  18.089  11.717   6.585 -0.1160  0.0045  0.0262
 1335ERGO    R118092  18.099  11.595   6.840 -0.2944 -0.0828 -0.0082
 1335ERGO    R218093  18.229  11.709   7.056 -0.0066 -0.3950 -0.0132
 1335ERGO    R318094  17.989  11.678   7.177 -0.0466  0.0547  0.0426
 1335ERGO    R418095  18.168  11.766   7.391  0.2112 -0.3861  0.0271
 1335ERGO    R518096  18.042  11.589   7.393 -0.1592 -0.1375 -0.0038
 1335ERGO    C118097  17.906  11.769   7.700  0.3005  0.0411  0.1028
 1335ERGO    C218098  17.709  11.698   8.031 -0.0083 -0.0686 -0.2841
 1336ERGO   ROH18099   1.938   9.242   6.855 -0.1880 -0.0719 -0.0151
 1336ERGO    R118100   1.895   9.356   7.110 -0.2052 -0.1013 -0.0044
 1336ERGO    R218101   1.806   9.209   7.327 -0.1372 -0.1460 -0.0037
 1336ERGO    R318102   2.028   9.310   7.446 -0.1597 -0.0776 -0.0200
 1336ERGO    R418103   1.859   9.221   7.668 -0.0551 -0.2435 -0.0126
 1336ERGO    R518104   1.946   9.419   7.643 -0.1632 -0.1923  0.0401
 1336ERGO    C118105   2.099   9.323   7.978 -0.0285 -0.2360 -0.0332
 1336ERGO    C218106   2.165   9.351   8.283  0.1801  0.0467 -0.3925
 1337ERGO   ROH18107   3.595  11.496   6.459  0.1672 -0.0513  0.1253
 1337ERGO    R118108   3.537  11.591   6.719  0.0152  0.0101  0.0712
 1337ERGO    R218109   3.317  11.750   6.774  0.0535  0.1452 -0.1178
 1337ERGO    R318110   3.265  11.557   6.959 -0.1969  0.1869 -0.1428
 1337ERGO    R418111   3.129  11.796   7.061  0.2210  0.3730 -0.0426
 1337ERGO    R518112   3.272  11.672   7.169  0.0551  0.1220 -0.1205
 1337ERGO    C118113   2.971  11.641   7.401  0.0833  0.5450 -0.0222
 1337ERGO    C218114   2.829  11.448   7.688  0.1855 -0.2769  0.2440
 1338ERGO   ROH18115  11.972  13.931   6.745  0.1117 -0.1050 -0.0146
 1338ERGO    R118116  11.846  14.003   6.988  0.1075 -0.0674 -0.0271
 1338ERGO    R218117  11.838  13.834   7.207  0.0788 -0.0467 -0.0083
 1338ERGO    R318118  11.947  14.047   7.335  0.0977 -0.0451 -0.0281
 1338ERGO    R418119  11.864  13.867   7.550  0.2069 -0.0717 -0.0151
 1338ERGO    R518120  11.810  14.077   7.529  0.1708 -0.0804  0.0262
 1338ERGO    C118121  11.981  14.086   7.870  0.2991 -0.0847 -0.0378
 1338ERGO    C218122  11.975  14.190   8.255 -0.2694  0.1330  0.1746
 1339ERGO   ROH18123   6.157   7.098   6.784  0.1246  0.0581  0.1971
 1339ERGO    R118124   5.957   7.073   6.984 -0.0347  0.1631  0.0538
 1339ERGO    R218125   6.013   6.982   7.239 -0.3103 -0.1053  0.0222
 1339ERGO    R318126   5.894   7.215   7.313 -0.0547 -0.0037  0.1230
 1339ERGO    R418127   5.801   7.018   7.510 -0.1285  0.0517  0.1459
 1339ERGO    R518128   5.677   7.150   7.389 -0.0762  0.1860  0.2338
 1339ERGO    C118129   5.567   7.258   7.738  0.2173  0.2384  0.3124
 1339ERGO    C218130   5.349   7.294   8.078 -0.2321  0.1136  0.1088
 1340ERGO   ROH18131   8.306   9.936   6.199  0.0951  0.2316  0.0893
 1340ERGO    R118132   8.212   9.825   6.442  0.1643  0.0124  0.0197
 1340ERGO    R218133   8.379   9.707   6.627  0.2629  0.1247  0.0097
 1340ERGO    R318134   8.264   9.884   6.797  0.0124 -0.0792  0.0567
 1340ERGO    R418135   8.376   9.675   6.971  0.3854  0.0811  0.0070
 1340ERGO    R518136   8.170   9.747   6.970  0.2685 -0.2501  0.0617
 1340ERGO    C118137   8.265   9.823   7.331  0.2215 -0.1356  0.0494
 1340ERGO    C218138   8.189   9.741   7.723  0.1082 -0.2982 -0.0654
 1341ERGO   ROH18139  10.567   6.138   6.169  0.0283  0.4247 -0.0479
 1341ERGO    R118140  10.618   6.092   6.443  0.2046  0.3564 -0.0915
 1341ERGO    R218141  10.805   6.237   6.587 -0.0270  0.6340 -0.0718
 1341ERGO    R318142  10.594   6.282   6.752 -0.0686  0.1309  0.0329
 1341ERGO    R418143  10.830   6.314   6.922 -0.0300  0.7593 -0.0991
 1341ERGO    R518144  10.659   6.184   6.961  0.3032  0.3211  0.0186
 1341ERGO    C118145  10.647   6.403   7.273 -0.0709  0.3600 -0.0168
 1341ERGO    C218146  10.624   6.489   7.631 -0.2065  0.1502  0.0799
 1342ERGO   ROH18147   5.120   0.134   6.549  0.1186  0.0167 -0.0748
 1342ERGO    R118148   5.157   0.354   6.723  0.0272  0.0038 -0.0391
 1342ERGO    R218149   4.955   0.451   6.885 -0.0223 -0.0860 -0.0483
 1342ERGO    R318150   5.139   0.414   7.082 -0.0321 -0.0528 -0.0322
 1342ERGO    R418151   4.931   0.581   7.205 -0.1111 -0.1526 -0.0271
 1342ERGO    R518152   5.145   0.623   7.198 -0.1253 -0.0707  0.0069
 1342ERGO    C118153   5.090   0.621   7.576 -0.1720 -0.1602  0.0003
 1342ERGO    C218154   5.030   0.551   7.830  0.1427 -0.1284 -0.0839
 1343ERGO   ROH18155   9.080  16.039   6.175  0.2134 -0.1639  0.1286
 1343ERGO    R118156   9.146  15.983   6.445  0.1852 -0.0701  0.1550
 1343ERGO    R218157   9.287  16.160   6.603 -0.0071  0.0725  0.1703
 1343ERGO    R318158   9.075  16.130   6.770 -0.0304 -0.0825  0.1149
 1343ERGO    R418159   9.310  16.128   6.946 -0.0753  0.0722  0.1752
 1343ERGO    R518160   9.153  15.977   6.937  0.0316 -0.0365  0.1277
 1343ERGO    C118161   9.124  16.081   7.303 -0.1369 -0.0733  0.1261
 1343ERGO    C218162   9.218  16.251   7.599  0.1140 -0.0366  0.1215
 1344ERGO   ROH18163   4.085   6.131   6.167 -0.0662  0.2853 -0.0820
 1344ERGO    R118164   4.187   6.110   6.430 -0.1003  0.0417 -0.0859
 1344ERGO    R218165   4.072   6.241   6.645 -0.0181 -0.0091 -0.0134
 1344ERGO    R318166   4.065   5.992   6.752 -0.2115 -0.0735 -0.1686
 1344ERGO    R418167   3.993   6.169   6.974  0.2669 -0.1096  0.0354
 1344ERGO    R518168   4.152   6.019   6.974  0.0839 -0.3183 -0.2433
 1344ERGO    C118169   3.941   5.893   7.266  0.2512 -0.2285 -0.0818
 1344ERGO    C218170   3.876   6.024   7.605  0.0655 -0.0653  0.0328
 1345ERGO   ROH18171  17.343   6.409   5.706 -0.0033 -0.2635  0.0410
 1345ERGO    R118172  17.296   6.573   5.932 -0.2763 -0.1212 -0.1153
 1345ERGO    R218173  17.052   6.582   6.061 -0.2502 -0.5248 -0.0403
 1345ERGO    R318174  17.203   6.523   6.280 -0.0311  0.0390 -0.0219
 1345ERGO    R418175  16.971   6.671   6.385 -0.4414 -0.5007 -0.0928
 1345ERGO    R518176  17.182   6.717   6.420 -0.5383  0.1061 -0.1621
 1345ERGO    C118177  17.065   6.668   6.779 -0.3470  0.0426 -0.1059
 1345ERGO    C218178  17.079   6.529   7.080  0.4792  0.1298 -0.0469
 1346ERGO   ROH18179  13.229  10.701   5.883  0.1029 -0.1576  0.0188
 1346ERGO    R118180  13.263  10.706   6.164  0.1489 -0.2545  0.0156
 1346ERGO    R218181  13.509  10.747   6.284  0.1340 -0.0722 -0.0105
 1346ERGO    R318182  13.376  10.946   6.413 -0.0376 -0.2571  0.1038
 1346ERGO    R418183  13.612  10.894   6.580  0.1541  0.0365 -0.0715
 1346ERGO    R518184  13.404  10.896   6.646  0.1970 -0.2435  0.0795
 1346ERGO    C118185  13.547  11.167   6.872  0.0047 -0.0738  0.0002
 1346ERGO    C218186  13.689  11.419   6.912 -0.0990 -0.0277 -0.0277
 1347ERGO   ROH18187   4.511   5.469   6.459 -0.0889  0.0289  0.1324
 1347ERGO    R118188   4.450   5.728   6.556  0.0592  0.1552 -0.1010
 1347ERGO    R218189   4.497   5.804   6.818 -0.2787  0.2269 -0.0566
 1347ERGO    R318190   4.634   6.007   6.700  0.1641  0.0058  0.0579
 1347ERGO    R418191   4.581   6.101   6.973 -0.4592  0.3323 -0.1573
 1347ERGO    R518192   4.533   6.206   6.788  0.0740  0.1752 -0.4039
 1347ERGO    C118193   4.759   6.465   6.953 -0.1486  0.1861 -0.1085
 1347ERGO    C218194   5.105   6.572   7.101  0.2286  0.0142 -0.0468
 1348W        W18195   8.991   7.043   0.813  0.0507 -0.1948  0.0380
 1349W        W18196  12.376  11.673   5.087  0.1173 -0.2567  0.1920
 1350W        W18197   7.847   0.281   0.639 -0.3359  0.2090  0.4202
 1351W        W18198   8.298  16.558   0.273  0.1419 -0.0801 -0.0285
 1352W        W18199  11.304  11.913  13.114 -0.1759 -0.2226  0.1413
 1353W        W18200   1.884   0.366   4.577 -0.0515  0.1019  0.0342
 1354W        W18201  10.022  14.999   4.000 -0.0137  0.0280 -0.0897
 1355W        W18202   4.447  12.518  15.742  0.0875 -0.0418  0.0535
 1356W        W18203   5.655   5.297  12.324 -0.1359 -0.0724  0.0041
 1357W        W18204   5.320   8.975   3.660  0.3178  0.1953 -0.3105
 1358W        W18205   7.454   5.981  15.893  0.0660  0.0626 -0.2096
 1359W        W18206  16.595   2.554   0.757  0.3842  0.1330 -0.4652
 1360W        W18207  11.980   9.192  13.683  0.2936 -0.1162  0.2111
 1361W        W18208  11.523  10.776   4.773 -0.2388  0.1461  0.1169
 1362W        W18209  13.450  13.549   3.406  0.0296  0.0880  0.2257
 1363W        W18210   5.804   3.505   5.200 -0.0767  0.1747 -0.2153
 1364W        W18211  10.695  11.337   0.679 -0.1784 -0.0647 -0.1209
 1365W        W18212   8.910  16.903  12.869  0.1908  0.0899 -0.1016
 1366W        W18213  14.810  15.576   3.340  0.1655 -0.2281  0.1039
 1367W        W18214   5.962   8.273   3.283  0.3526 -0.0209  0.1290
 1368W        W18215  12.672   7.355   3.691  0.0721  0.0412  0.1037
 1369W        W18216  16.880   3.998  14.382 -0.4412 -0.2980  0.0748
 1370W        W18217  10.846   5.715   2.979 -0.0113 -0.1790  0.0584
 1371W        W18218   8.351  10.212   1.159 -0.0169  0.2186  0.0200
 1372W        W18219   3.401  17.786   1.296  0.2247 -0.0543 -0.1014
 1373W        W18220   7.458  17.633  15.213 -0.2483  0.0240  0.3092
 1374W        W18221   3.609   3.066   5.246 -0.0102 -0.0684 -0.0160
 1375W        W18222   6.517   2.610  15.721  0.0758  0.1167  0.0790
 1376W        W18223   5.887  11.498   3.724  0.0752  0.2546  0.2663
 1377W        W18224   3.736   9.048   3.780  0.1162  0.0259  0.1231
 1378W        W18225   0.166  15.160  14.267 -0.1436 -0.0517  0.1589
 1379W        W18226  15.335   3.590   4.689 -0.2764  0.3701  0.1434
 1380W        W18227  12.459   4.934  15.778 -0.1520  0.0742 -0.1012
 1381W        W18228   8.607  12.687  14.646 -0.1375  0.1182  0.0482
 1382W        W18229  13.105  16.610   2.379 -0.2399 -0.0140  0.0493
 1383W        W18230  11.720   7.559  10.966 -0.0007  0.3373  0.0391
 1384W        W18231   4.706  15.659   1.308 -0.0168 -0.2002 -0.1139
 1385W        W18232  15.427   7.278   1.540 -0.1643  0.0602 -0.0726
 1386W        W18233   2.236  14.203  14.372 -0.0558  0.2872 -0.2017
 1387W        W18234   3.935  12.731  15.152 -0.3680 -0.3387  0.1330
 1388W        W18235   3.083   8.489   3.263  0.1366 -0.0317 -0.1496
 1389W        W18236   2.872   9.137  11.331  0.0156  0.0960 -0.3079
 1390W        W18237   7.360   9.156  15.918 -0.1048 -0.2216  0.3994
 1391W        W18238   8.746  10.095   3.408  0.0501  0.2142  0.1210
 1392W        W18239   3.109  13.977   2.065 -0.1363 -0.2827 -0.1919
 1393W        W18240   7.732   4.325  14.131  0.2143 -0.0348  0.0480
 1394W        W18241   9.924  16.149  15.831 -0.1042 -0.2198 -0.1232
 1395W        W18242   3.717   4.428  15.682 -0.2988  0.0198 -0.3180
 1396W        W18243   6.949   1.613   3.849  0.1091 -0.0459  0.1297
 1397W        W18244  17.655   3.540  13.973 -0.0142  0.2105  0.0790
 1398W        W18245  17.877   5.713   3.007  0.2630  0.2079 -0.2917
 1399W        W18246  13.830  17.399  15.137  0.0847  0.1040 -0.1424
 1400W        W18247  15.272  10.426   2.411  0.1036  0.3737  0.0823
 1401W        W18248  11.289   7.599   2.078  0.0173 -0.2268  0.2310
 1402W        W18249  14.516   7.719   4.399 -0.2800  0.2338  0.0731
 1403W        W18250   9.291  12.511  15.389 -0.1304  0.2637  0.0242
 1404W        W18251   0.031   3.065  12.847  0.0781 -0.1113  0.3408
 1405W        W18252  16.533   4.369  15.280 -0.2093 -0.1802 -0.0976
 1406W        W18253   3.829  13.381   1.139  0.0539 -0.0509 -0.1428
 1407W        W18254  18.273   1.040   0.388  0.0897  0.1505  0.0067
 1408W        W18255  12.711   5.907   3.273 -0.1175 -0.2143 -0.1446
 1409W        W18256  18.222  16.297  15.872 -0.1102  0.1408 -0.5785
 1410W        W18257   6.679   5.439   0.051  0.0195 -0.0142 -0.0274
 1411W        W18258  11.716  15.692   1.122  0.0392 -0.0511 -0.0150
 1412W        W18259  10.347  10.501   2.960 -0.2239  0.0576 -0.2366
 1413W        W18260   5.896  14.374  16.018  0.1843 -0.1415  0.1221
 1414W        W18261   3.726   5.516  15.192 -0.2009  0.0975  0.1535
 1415W        W18262  13.619  16.809   0.886  0.2116  0.0994  0.2508
 1416W        W18263  16.941  14.397  12.624 -0.3262 -0.1166 -0.0852
 1417W        W18264  12.393   2.053  10.140 -0.1268 -0.2138  0.2082
 1418W        W18265   9.037   9.082  15.214  0.0544  0.0256  0.0542
 1419W        W18266  12.148  11.477  16.085  0.0254 -0.0310  0.1871
 1420W        W18267  18.289   7.693   2.573  0.1380  0.0425 -0.1910
 1421W        W18268  14.256   1.600  13.021 -0.3714 -0.0198  0.0807
 1422W        W18269   0.194   6.025   5.212  0.2020  0.2976  0.1082
 1423W        W18270   2.900  10.957  14.593 -0.1046 -0.2780 -0.2566
 1424W        W18271  18.162  15.667   5.117 -0.1206 -0.0274  0.0243
 1425W        W18272   1.306   7.368   2.820  0.2148  0.1833 -0.0348
 1426W        W18273   4.469  16.134   6.117 -0.0184  0.1793 -0.2140
 1427W        W18274  10.572   7.588  16.100  0.2537 -0.3537 -0.3040
 1428W        W18275  16.394   1.184   3.805 -0.2864  0.0906 -0.0647
 1429W        W18276   4.082   5.610  13.274 -0.1733  0.1167  0.1335
 1430W        W18277   0.577  11.873  12.260  0.0189 -0.0285 -0.1879
 1431W        W18278  15.391  14.032  15.205  0.0684 -0.0866 -0.0499
 1432W        W18279   0.151   9.157   3.095 -0.1694 -0.3726  0.0255
 1433W        W18280  12.126   5.766   2.360 -0.0488  0.0309 -0.0425
 1434W        W18281  12.890   6.843   2.899 -0.0853 -0.0705  0.1755
 1435W        W18282   9.023  17.830   4.885  0.3034 -0.0090  0.0507
 1436W        W18283   5.189  11.509   5.308 -0.1027  0.0135  0.2240
 1437W        W18284  14.312  11.514   0.181  0.2589  0.0111  0.1193
 1438W        W18285  14.696  14.330   4.505  0.0164 -0.0153  0.1112
 1439W        W18286   2.333  15.955  12.597 -0.1835 -0.0480 -0.2110
 1440W        W18287  12.205   1.177   0.037  0.1596 -0.0895 -0.1197
 1441W        W18288  15.831   7.115  13.860  0.0209 -0.1453 -0.1200
 1442W        W18289   5.254  16.767   4.596  0.3384  0.1538  0.0921
 1443W        W18290  18.060   6.091   5.053 -0.3631  0.2897  0.0766
 1444W        W18291   5.340  17.825   6.108  0.2489 -0.3348  0.2147
 1445W        W18292   4.032  11.556  15.665  0.0417  0.2307  0.3934
 1446W        W18293   1.513  10.137   4.547  0.0687  0.0411 -0.1012
 1447W        W18294  11.527  15.739  14.108  0.0642  0.3156  0.0430
 1448W        W18295   8.124   8.614  12.857 -0.0363  0.1895  0.1551
 1449W        W18296  12.575   8.395   1.650 -0.0337 -0.3835 -0.0005
 1450W        W18297   8.568  12.357   6.215 -0.1527  0.1802  0.1669
 1451W        W18298  17.139  15.068  13.190 -0.0469  0.0046 -0.2080
 1452W        W18299  15.528   4.251  15.021  0.4508 -0.1760 -0.2849
 1453W        W18300  14.637   0.775  13.290 -0.0004  0.2376  0.1151
 1454W        W18301   8.874   8.557   0.289 -0.3071  0.1574 -0.0302
 1455W        W18302   8.800  15.299   0.285 -0.3613  0.1747 -0.0839
 1456W        W18303   8.401  12.600  11.823  0.1333  0.3356 -0.1005
 1457W        W18304  13.846  16.840   4.114 -0.1000  0.0851 -0.0502
 1458W        W18305   8.577  15.411   1.442  0.1549 -0.2894 -0.0836
 1459W        W18306   1.868   4.384  15.493 -0.0392  0.1973 -0.0231
 1460W        W18307  10.673  12.110   2.494  0.0307 -0.1531 -0.0604
 1461W        W18308  10.979   7.834   5.228 -0.2642  0.2140  0.0829
 1462W        W18309   5.184   8.582   5.329 -0.0834  0.2561  0.0088
 1463W        W18310   5.292   7.400  14.713 -0.1420  0.0006  0.1065
 1464W        W18311   0.034   8.583   3.039 -0.1295  0.0514  0.0035
 1465W        W18312  18.195   2.114  12.319 -0.2102 -0.0073 -0.0466
 1466W        W18313  14.836  11.161  13.876 -0.0517  0.0810 -0.1184
 1467W        W18314  13.764  13.696   3.852 -0.0531 -0.0816  0.3420
 1468W        W18315   7.489  16.611  13.846 -0.2797  0.2963 -0.0051
 1469W        W18316  14.985   1.014  12.360  0.2627 -0.0299 -0.2420
 1470W        W18317   3.699   5.788   1.591 -0.1412 -0.3018  0.1747
 1471W        W18318  10.224  17.311   0.503  0.2085 -0.3189  0.0572
 1472W        W18319  13.097   8.072  13.192 -0.3024 -0.2351 -0.0665
 1473W        W18320  16.382   0.409  11.850 -0.0437  0.0876 -0.0916
 1474W        W18321   2.157   4.425   0.343 -0.0279 -0.0211  0.1870
 1475W        W18322  11.892   0.744   4.029  0.1913  0.2391 -0.3133
 1476W        W18323   9.176  10.990  13.060 -0.1391 -0.0399 -0.3104
 1477W        W18324  12.061   6.291   3.856  0.0309 -0.1193 -0.0105
 1478W        W18325   1.439  10.843  12.105 -0.1774 -0.1781 -0.1098
 1479W        W18326  13.306   4.920  11.829  0.0862  0.0360  0.3330
 1480W        W18327   5.830  17.798   2.239 -0.0977  0.0620  0.2591
 1481W        W18328   9.118   4.881   2.775  0.0248 -0.0837 -0.0793
 1482W        W18329   1.336   2.825   4.995  0.0160  0.2017 -0.0501
 1483W        W18330   3.298   7.693  14.636 -0.0611  0.0251  0.2231
 1484W        W18331  17.337   1.183   3.312 -0.1970 -0.0721 -0.1359
 1485W        W18332  16.943   6.155  11.174 -0.2171 -0.0004 -0.0453
 1486W        W18333   8.198  16.918  11.812  0.1260  0.1877  0.1637
 1487W        W18334   0.150   9.410  13.357 -0.0697 -0.0057 -0.4339
 1488W        W18335   5.284  13.658   4.614 -0.2029  0.1275 -0.2395
 1489W        W18336   4.105   6.628   1.920  0.3745  0.0242 -0.1599
 1490W        W18337  15.156  10.868  12.628 -0.2299  0.4619 -0.0852
 1491W        W18338  13.089  11.255  13.418 -0.0018  0.2365 -0.2507
 1492W        W18339  18.300   4.342  10.044 -0.0191 -0.0118  0.2052
 1493W        W18340   1.191   5.909  13.919  0.1447 -0.1443 -0.2678
 1494W        W18341  15.507   1.967   1.007 -0.1330  0.0237  0.0790
 1495W        W18342   3.228   3.876   1.480 -0.0048 -0.2373  0.0608
 1496W        W18343  16.076   9.193   3.773  0.0560 -0.2331  0.2645
 1497W        W18344  10.856  17.915  14.818 -0.0055  0.3156 -0.0986
 1498W        W18345   4.383  11.942   0.843  0.5370  0.3427  0.0201
 1499W        W18346   2.894   1.381   0.914  0.1582 -0.0554 -0.1282
 1500W        W18347   7.542   8.955  14.037 -0.0512  0.1341 -0.3432
 1501W        W18348  16.123   2.496   1.431 -0.1252  0.0227  0.0222
 1502W        W18349  11.006   6.127  14.387  0.1144  0.2128  0.0805
 1503W        W18350   2.697   9.796  16.184  0.2225 -0.2139 -0.0807
 1504W        W18351   4.851  15.889   0.209  0.0182  0.1748 -0.3040
 1505W        W18352   1.181  12.826  15.534  0.0831 -0.0979  0.1020
 1506W        W18353  15.471  13.296   0.385 -0.0545 -0.1047  0.0316
 1507W        W18354  11.937   3.089   4.481 -0.0739  0.1869 -0.1256
 1508W        W18355  12.933  12.651   0.558 -0.1898 -0.0617 -0.2140
 1509W        W18356   9.121   0.267   2.643 -0.0090 -0.1750  0.2913
 1510W        W18357  10.180   6.041   2.413 -0.1206  0.0750 -0.1058
 1511W        W18358   5.027   3.345  15.103  0.0011  0.0927  0.0908
 1512W        W18359  15.712   6.145   2.057 -0.2354 -0.1680  0.3185
 1513W        W18360  11.125  16.497  15.968  0.3727  0.0698 -0.0386
 1514W        W18361   3.773  16.888   2.540  0.0554  0.0445 -0.2705
 1515W        W18362  16.299   2.375  12.852  0.1333  0.0373 -0.0650
 1516W        W18363   9.466   7.773  15.244 -0.0554  0.2333  0.0635
 1517W        W18364   9.135  11.446  12.953 -0.0759 -0.1613  0.0022
 1518W        W18365  13.500   3.998  12.284 -0.0876 -0.1082 -0.1243
 1519W        W18366  13.758  10.710  13.682 -0.0305 -0.1112  0.0965
 1520W        W18367  16.839  15.325  12.341  0.0873  0.3482 -0.0229
 1521W        W18368   9.565   1.232   0.735 -0.3591 -0.0587 -0.0870
 1522W        W18369  16.740  11.759  14.872  0.0341 -0.0707  0.1173
 1523W        W18370  14.769  11.783  15.720 -0.0227 -0.1844 -0.0763
 1524W        W18371   9.925   6.290  11.828  0.0628  0.2038 -0.1281
 1525W        W18372  10.450  14.554  12.431  0.0162  0.1333  0.1330
 1526W        W18373   8.072  14.771   0.088  0.0756 -0.1895  0.3469
 1527W        W18374   2.534   5.232  13.689  0.0462  0.1820  0.1441
 1528W        W18375   7.151  11.949   4.320  0.1652  0.2206 -0.0202
 1529W        W18376   2.239  14.781  15.240 -0.1897 -0.1838  0.3409
 1530W        W18377   2.504  16.370  15.352  0.2775  0.3536  0.1903
 1531W        W18378  15.676   8.066  15.841 -0.3790 -0.2843  0.1872
 1532W        W18379   6.841   4.952  12.697  0.0738  0.3039  0.0534
 1533W        W18380  11.742  10.778  11.710  0.2065 -0.0470  0.2873
 1534W        W18381   4.603   3.075   2.480  0.2688 -0.0204  0.0138
 1535W        W18382   3.622  14.221   2.841  0.0674 -0.3439  0.0411
 1536W        W18383   3.256  10.108  11.535  0.4794  0.0102  0.1819
 1537W        W18384  15.513   2.229  14.537 -0.0947  0.1478 -0.0231
 1538W        W18385   6.647   5.870   0.803 -0.2095  0.0887  0.0781
 1539W        W18386   8.405   3.310  11.219  0.0411 -0.2482 -0.1576
 1540W        W18387  14.825   7.046  13.263 -0.1055 -0.0414 -0.0228
 1541W        W18388   0.407   1.338   2.405 -0.1715 -0.1896  0.1603
 1542W        W18389   7.095   5.722   2.991  0.0703 -0.0186  0.3051
 1543W        W18390  17.895  10.858  13.931 -0.0415 -0.0000 -0.0658
 1544W        W18391   2.984  14.344   5.342 -0.1861 -0.2517  0.1016
 1545W        W18392  10.992   0.849   4.063 -0.1258  0.0386 -0.0864
 1546W        W18393   4.404  12.238   3.123  0.1850 -0.2365 -0.0331
 1547W        W18394  17.014  11.869   2.282 -0.2089 -0.0959 -0.1948
 1548W        W18395  12.328   4.551  10.614  0.4131  0.2655  0.1778
 1549W        W18396  17.750   2.392   2.088  0.1370 -0.1400 -0.0673
 1550W        W18397   0.017   4.604  12.858  0.0639 -0.2949  0.3074
 1551W        W18398   2.471  17.614  12.816 -0.3963  0.1561  0.0612
 1552W        W18399  11.271   6.201   2.073 -0.0783  0.1099 -0.2625
 1553W        W18400  17.787   2.360  14.916 -0.0342 -0.1474  0.3238
 1554W        W18401  12.368  16.028   4.338  0.0040 -0.2804 -0.1817
 1555W        W18402  17.778   9.391   1.580 -0.4704  0.1580 -0.0234
 1556W        W18403  13.365  14.714   3.739  0.0605 -0.0299  0.1151
 1557W        W18404   4.186   9.403  13.245 -0.3881 -0.2491 -0.0810
 1558W        W18405   1.429   3.285   0.451 -0.1147  0.0143  0.2757
 1559W        W18406  18.166   8.020   3.068  0.1574 -0.1589  0.0180
 1560W        W18407   3.051   1.152   1.364  0.0001  0.1606  0.1774
 1561W        W18408   9.260  14.185  15.860 -0.4633  0.1307 -0.0721
 1562W        W18409   3.503  16.201   1.061 -0.3475  0.1763 -0.1446
 1563W        W18410   8.055   6.313  14.054 -0.0272  0.0739 -0.0806
 1564W        W18411   1.076   7.002   4.016  0.0752 -0.3769  0.0822
 1565W        W18412  17.643  14.365  11.533 -0.1459  0.1042 -0.2026
 1566W        W18413   0.769   3.017   3.554  0.0691 -0.0954 -0.0335
 1567W        W18414  16.286   7.304  15.809 -0.3021  0.0759 -0.0601
 1568W        W18415  18.289   2.797  15.537 -0.0201 -0.0339  0.2631
 1569W        W18416   7.838  10.156  14.704 -0.0490 -0.0739 -0.1716
 1570W        W18417   0.148  16.717  12.943  0.0527 -0.1123 -0.1720
 1571W        W18418  13.399  13.392  14.595  0.0513  0.0999 -0.3134
 1572W        W18419  10.039   1.940   1.792 -0.2174 -0.2059  0.2074
 1573W        W18420   0.939  13.645   2.928  0.2643  0.0950  0.1733
 1574W        W18421  16.910   2.931   3.029  0.1093  0.1118 -0.0483
 1575W        W18422   6.696   1.419   2.447  0.0126 -0.3136 -0.0874
 1576W        W18423  17.972  13.599   2.210 -0.0207 -0.1385 -0.1082
 1577W        W18424  14.857  17.182   5.725  0.2407  0.0139 -0.0106
 1578W        W18425   6.613  16.426   4.582  0.0527 -0.0342 -0.1670
 1579W        W18426  15.601  10.434   3.829  0.0292  0.1344  0.0158
 1580W        W18427   8.453   0.625   2.160 -0.0334 -0.2754 -0.1068
 1581W        W18428  17.359   4.444   3.662  0.1000 -0.0015  0.0173
 1582W        W18429  14.032   8.787  14.333  0.1746  0.4031  0.0919
 1583W        W18430  17.836   8.539   4.840 -0.3010  0.0837 -0.2063
 1584W        W18431   2.380   6.590  12.071 -0.0515 -0.1453 -0.0146
 1585W        W18432   5.452  12.532   4.389 -0.1625 -0.2251 -0.1867
 1586W        W18433  17.285  18.301  14.731  0.0134 -0.2630 -0.0292
 1587W        W18434  11.784   2.010   4.305 -0.2611  0.0368  0.2243
 1588W        W18435  18.017   2.288   0.019  0.4465 -0.0314  0.0281
 1589W        W18436  15.912  16.551   1.935  0.2608 -0.3146  0.1289
 1590W        W18437  15.842  16.019   3.538  0.0322 -0.1144 -0.2313
 1591W        W18438   0.494  16.339  15.695 -0.2194 -0.1213  0.0111
 1592W        W18439   9.664   0.865  12.230  0.2665 -0.1050 -0.2140
 1593W        W18440  10.701   1.662   0.124 -0.0515  0.5371 -0.1319
 1594W        W18441   4.215   0.795   3.876  0.0253  0.3732  0.0867
 1595W        W18442  14.137   6.053  11.585 -0.0048  0.2697  0.1668
 1596W        W18443  15.007  13.721   0.545  0.1865 -0.0034  0.0713
 1597W        W18444  17.225   6.355  10.761  0.0373 -0.0345  0.3019
 1598W        W18445  17.929   9.240   1.136 -0.0878  0.3401 -0.3906
 1599W        W18446   8.525   9.611   3.468 -0.0665  0.0093 -0.1490
 1600W        W18447  15.614   9.974   3.500 -0.1278  0.2102 -0.3265
 1601W        W18448   1.957   1.677  12.608  0.0561 -0.2176  0.0568
 1602W        W18449   1.350  17.084   3.100  0.0808 -0.0484  0.0851
 1603W        W18450   3.728   2.760  13.085 -0.0797  0.1436 -0.1671
 1604W        W18451  15.709   7.348  11.836 -0.0009 -0.2234 -0.1704
 1605W        W18452   2.896  17.593  13.121 -0.0355  0.2845 -0.1246
 1606W        W18453   4.501  16.066   2.096 -0.1296 -0.0191  0.1050
 1607W        W18454   7.090   1.265  14.405  0.0164 -0.0043 -0.2679
 1608W        W18455  15.088  18.035   0.205  0.1952 -0.0241 -0.0031
 1609W        W18456  17.835   4.319   1.155  0.2781  0.2545  0.1357
 1610W        W18457  18.217  13.227   4.652  0.2066 -0.0368 -0.1717
 1611W        W18458   7.849   7.791   6.048  0.0676  0.0323  0.0850
 1612W        W18459   0.119  17.259  11.741 -0.2745 -0.1111 -0.1721
 1613W        W18460   7.426   8.600   5.123 -0.0900 -0.2854 -0.1252
 1614W        W18461  17.816   4.433  13.630 -0.0441 -0.0699 -0.2773
 1615W        W18462  11.709  10.579   0.604 -0.0442 -0.0577  0.3592
 1616W        W18463   4.261  15.508   1.073  0.1153 -0.2390  0.3069
 1617W        W18464   5.200  13.758   3.595 -0.0170 -0.0279 -0.1708
 1618W        W18465  14.460   8.375  15.763 -0.1442 -0.2799 -0.0279
 1619W        W18466   7.804   5.278  14.664  0.0530  0.0451  0.0427
 1620W        W18467   4.277   3.394   0.665 -0.1180  0.0792 -0.1922
 1621W        W18468  15.965   1.388  14.308 -0.0039  0.0172 -0.0599
 1622W        W18469   0.711   8.770  12.737  0.0449 -0.0619  0.0333
 1623W        W18470  13.386  14.432  15.985  0.0270 -0.0180 -0.2691
 1624W        W18471   5.038   6.510   1.407  0.0613  0.0907  0.0184
 1625W        W18472   7.454   0.282   0.194 -0.2418 -0.1041 -0.0400
 1626W        W18473   0.470  14.629  10.845  0.2535 -0.0017 -0.0350
 1627W        W18474  10.511   4.932   4.125  0.0968  0.1241  0.0252
 1628W        W18475   3.878   1.060  13.051 -0.0804  0.0249 -0.1557
 1629W        W18476   7.568   6.538  14.168  0.1314  0.1207  0.1774
 1630W        W18477   8.646   4.226  14.091 -0.1527 -0.0735  0.0103
 1631W        W18478   3.890   8.146   0.446 -0.1176 -0.3262 -0.0228
 1632W        W18479  11.825   3.924   1.070 -0.0629 -0.1698  0.0971
 1633W        W18480   8.917  17.068  14.304  0.3252  0.3933 -0.0810
 1634W        W18481   0.483   5.728   1.652 -0.1677 -0.2997 -0.4049
 1635W        W18482   8.011  11.748  10.730  0.0110 -0.0574 -0.1816
 1636W        W18483   6.917   5.551   0.528  0.0759 -0.1930 -0.3065
 1637W        W18484  15.475   7.764   4.287  0.0846 -0.0269  0.2205
 1638W        W18485  14.414  14.222   0.046 -0.1127 -0.0771  0.3204
 1639W        W18486   6.351   4.875   5.361  0.1205 -0.0660  0.1307
 1640W        W18487  16.324   3.829   0.382  0.2153 -0.1136 -0.0182
 1641W        W18488   4.560   5.798   0.668 -0.1455  0.5468 -0.0214
 1642W        W18489   4.042   9.284   3.035  0.1775  0.1592 -0.0844
 1643W        W18490  15.024  17.423  15.762  0.1933  0.1236  0.2319
 1644W        W18491  17.281  17.326  14.984 -0.2421  0.1706  0.2461
 1645W        W18492  13.536  13.010  14.976 -0.2501  0.1514 -0.0564
 1646W        W18493   8.129  13.167  13.930  0.1610 -0.0058  0.0189
 1647W        W18494   5.231  17.116  14.917 -0.1032 -0.0779 -0.0015
 1648W        W18495   8.333  12.186   2.127  0.2348 -0.1522  0.0200
 1649W        W18496  17.437   7.197  12.438  0.1828 -0.2193  0.3065
 1650W        W18497   8.545  11.126   1.002 -0.0893  0.1192  0.1061
 1651W        W18498   8.331   8.525  13.818 -0.0489 -0.2234 -0.2201
 1652W        W18499  13.016   3.835   0.715  0.0707  0.1048 -0.2540
 1653W        W18500   3.208   8.254   1.653  0.3584  0.0046 -0.2159
 1654W        W18501  15.192   1.388  14.745 -0.0574 -0.0074 -0.1716
 1655W        W18502  12.390   9.552  14.081  0.1663 -0.0222  0.1856
 1656W        W18503   4.814   9.854   5.179 -0.0296  0.1610  0.1258
 1657W        W18504  17.097   5.462  14.368  0.4902 -0.1633  0.0102
 1658W        W18505  18.035   6.524   0.221 -0.1519  0.0085 -0.0088
 1659W        W18506   3.795   2.758   2.155 -0.1788  0.0092  0.0090
 1660W        W18507  17.260   2.947  11.744 -0.2020  0.0477  0.2202
 1661W        W18508  18.003   2.698  12.851 -0.2008  0.1155  0.0568
 1662W        W18509  17.360   9.448  14.631  0.1411 -0.0801  0.1049
 1663W        W18510  17.110   3.378   0.365  0.3510 -0.1002 -0.2095
 1664W        W18511  14.057  11.369  11.635 -0.0163  0.2826 -0.1092
 1665W        W18512   3.524   3.259  14.773 -0.1531 -0.1027 -0.2977
 1666W        W18513  15.885   6.185   0.639  0.0961 -0.0534  0.0400
 1667W        W18514   3.143  10.914   1.642  0.0284  0.2529 -0.1826
 1668W        W18515  11.765   2.548   4.381  0.1445 -0.2057  0.0779
 1669W        W18516  15.590  13.752  15.682  0.0777  0.0826  0.0168
 1670W        W18517   1.142   0.210   0.651 -0.0362 -0.0990 -0.1527
 1671W        W18518  17.723  10.985   1.646  0.0079 -0.1563 -0.2155
 1672W        W18519  14.632  18.173   1.086  0.1171  0.1318 -0.0905
 1673W        W18520   4.544   7.292  11.560  0.0033  0.1247  0.1421
 1674W        W18521   2.971   2.206   2.400  0.1053  0.3368  0.2866
 1675W        W18522  11.268  11.645  12.671  0.1439  0.0639  0.3219
 1676W        W18523  12.961   0.575   0.520  0.0021  0.0274  0.1502
 1677W        W18524   5.818   1.006   5.205  0.0254  0.0858 -0.2034
 1678W        W18525   8.310   0.606   3.186 -0.0477 -0.1397 -0.0333
 1679W        W18526  15.545   2.649   2.383  0.2086 -0.0355  0.1180
 1680W        W18527   0.610   8.040  12.797 -0.0388 -0.2227  0.1614
 1681W        W18528  13.142  14.846   0.870 -0.1180  0.1147 -0.0286
 1682W        W18529   1.569  15.338   0.839 -0.0260 -0.0689 -0.0790
 1683W        W18530  16.660   1.358   4.700  0.1539  0.1474 -0.1409
 1684W        W18531   7.946   7.795  13.266  0.3771  0.2540 -0.1178
 1685W        W18532  13.057  15.929   3.650  0.0962  0.0545  0.1060
 1686W        W18533  14.347   0.903   3.174 -0.1237 -0.2620 -0.1236
 1687W        W18534   6.918  11.364   1.529 -0.0243 -0.2557 -0.0079
 1688W        W18535  15.356  11.193  12.282 -0.0198 -0.1102  0.1639
 1689W        W18536   3.383   5.915   1.132 -0.0701 -0.0657  0.0319
 1690W        W18537  15.473   9.946   4.012  0.0273  0.1157  0.1442
 1691W        W18538   9.367  13.213  14.820 -0.0446 -0.2624 -0.0411
 1692W        W18539  11.636   8.480  15.625  0.0792  0.0956  0.1127
 1693W        W18540   5.010   1.865  15.215 -0.0230 -0.1032 -0.3896
 1694W        W18541   2.541  12.507   5.221  0.1372 -0.1589 -0.2082
 1695W        W18542   5.636   3.189   1.020 -0.1604 -0.0253 -0.0067
 1696W        W18543  10.702   8.402   0.387 -0.0534  0.0747  0.0556
 1697W        W18544   3.216   2.907   5.488  0.0820  0.0769 -0.0909
 1698W        W18545  15.745  11.054   4.347  0.3738  0.2367  0.2502
 1699W        W18546   5.797  16.260  14.669  0.0142 -0.0890 -0.1878
 1700W        W18547   7.255  17.299  12.650  0.0435  0.0022 -0.0037
 1701W        W18548   7.073   8.731   4.547  0.0127 -0.0871 -0.1562
 1702W        W18549  18.163  14.759  12.099  0.0174  0.0094 -0.3730
 1703W        W18550   5.669  13.295  15.347 -0.0129 -0.0946  0.1777
 1704W        W18551   9.704  16.462  15.497 -0.2469  0.0336  0.1396
 1705W        W18552  16.234  17.662   1.374 -0.0396 -0.0591 -0.0345
 1706W        W18553   9.887   7.617  15.024  0.0564 -0.2103 -0.2760
 1707W        W18554  15.539   0.862  12.713 -0.1940  0.1412 -0.0532
 1708W        W18555   4.150   8.124   5.450 -0.0383 -0.0418  0.1853
 1709W        W18556   2.407   1.514   2.718 -0.2055 -0.0300 -0.0258
 1710W        W18557   8.351   9.071   1.876 -0.2763  0.0918 -0.2989
 1711W        W18558  11.646   4.919   2.543 -0.0364 -0.1922 -0.2034
 1712W        W18559   0.362   6.293  12.487 -0.2227  0.1957  0.0847
 1713W        W18560  14.369  17.888   5.214  0.2295 -0.0125  0.0851
 1714W        W18561   0.426   4.074  13.817 -0.3258  0.2409 -0.1535
 1715W        W18562   7.045  11.854   4.880  0.1556 -0.2921  0.0125
 1716W        W18563   3.419   2.707   0.831 -0.1384 -0.0669  0.0744
 1717W        W18564   9.814   0.139  15.737 -0.1920 -0.1726 -0.1559
 1718W        W18565   7.292  17.661   5.308 -0.0994  0.0784  0.0381
 1719W        W18566  16.909   0.638   2.567 -0.0107 -0.2911  0.0758
 1720W        W18567   9.037   7.136  12.006  0.0132 -0.1724 -0.2423
 1721W        W18568   1.185   6.110  15.756  0.0155  0.0385  0.1127
 1722W        W18569  11.190   4.839   3.316 -0.1855 -0.0619 -0.3164
 1723W        W18570   9.086   6.043   0.978 -0.0170  0.0030 -0.1077
 1724W        W18571   1.195   8.991   5.369  0.2308  0.4911 -0.2162
 1725W        W18572  14.282   4.363  12.174 -0.2543  0.0029  0.1171
 1726W        W18573   7.738   2.516   0.875  0.3264 -0.0418 -0.1883
 1727W        W18574   9.883  11.608   6.085 -0.4343  0.2735  0.0187
 1728W        W18575   8.242   5.007   4.843  0.0788 -0.0786 -0.3035
 1729W        W18576   1.431   7.144  13.677 -0.1871  0.0073 -0.2793
 1730W        W18577   8.514   3.149   0.777 -0.0838 -0.0199  0.5816
 1731W        W18578  14.933   2.366  12.150  0.1140 -0.4117 -0.1468
 1732W        W18579  16.214   8.655  15.345  0.0139  0.2167 -0.0808
 1733W        W18580   7.199   7.337  15.577  0.0340  0.0311  0.1101
 1734W        W18581  17.882   8.440   0.609 -0.1833 -0.2077  0.3061
 1735W        W18582  11.019  17.899  13.898 -0.0819  0.1221 -0.2667
 1736W        W18583  10.656  15.676   5.788  0.0094  0.0603  0.0042
 1737W        W18584   1.566   1.506  12.872 -0.2697 -0.2600  0.3312
 1738W        W18585   2.954   8.627   2.480 -0.1143  0.0542  0.2843
 1739W        W18586   6.698   2.217   0.025 -0.0170  0.1168 -0.0479
 1740W        W18587   0.373   0.892  12.250  0.0411  0.2487 -0.2756
 1741W        W18588  17.018  13.366  13.302 -0.0555 -0.2177  0.2852
 1742W        W18589  12.190  17.452   3.314  0.0242 -0.3511  0.0112
 1743W        W18590   5.463   2.587  12.384  0.1024 -0.1218 -0.1637
 1744W        W18591   1.554  13.846   5.081 -0.0147  0.2479 -0.1536
 1745W        W18592  17.426  10.600   0.430 -0.0831 -0.1932  0.3380
 1746W        W18593   4.190  13.325   1.516  0.0306  0.0862 -0.2080
 1747W        W18594   3.398   0.257  12.482  0.0852  0.0902 -0.2215
 1748W        W18595   3.295  15.429  16.125 -0.1330 -0.0896 -0.2700
 1749W        W18596  12.096   5.131  14.227  0.0752  0.0055 -0.2120
 1750W        W18597  17.565   1.434   5.021 -0.1669  0.1921 -0.1393
 1751W        W18598   9.125   4.331   0.774 -0.1014 -0.2278 -0.0863
 1752W        W18599  12.585   5.152   2.021 -0.3429  0.0839  0.0480
 1753W        W18600   2.472   2.005   2.447  0.0684  0.0536  0.0108
 1754W        W18601   9.924   7.183  15.338  0.0514  0.2565 -0.1792
 1755W        W18602   4.584   3.148  14.023 -0.0609 -0.1130 -0.1649
 1756W        W18603  15.968   8.203  13.452 -0.0241 -0.1386  0.0107
 1757W        W18604   9.134   5.916  11.677  0.0631 -0.0614 -0.1890
 1758W        W18605  13.902  11.749   0.108  0.1308  0.0270  0.1217
 1759W        W18606   5.621   0.988   5.685  0.0175  0.0072  0.2022
 1760W        W18607  16.596  10.518  14.200  0.0974  0.0592  0.2078
 1761W        W18608   4.195   0.432  15.698  0.1350 -0.0992 -0.0925
 1762W        W18609  12.951  17.815   4.516  0.0187  0.3445 -0.2715
 1763W        W18610   8.063   0.408  15.824  0.0241  0.2107  0.1421
 1764W        W18611  14.872   2.365   1.615  0.1199  0.1621 -0.0233
 1765W        W18612   4.160   9.313   1.296 -0.0343 -0.0197 -0.0871
 1766W        W18613   2.818  15.369   3.067 -0.4092  0.1607  0.1066
 1767W        W18614   7.863  14.413  15.894  0.1011 -0.0513 -0.1084
 1768W        W18615  16.665   5.861   2.516 -0.0983  0.1297 -0.0950
 1769W        W18616  15.301  10.739  14.628  0.0945  0.0134  0.0315
 1770W        W18617   2.298   1.665  12.300 -0.1949 -0.2302  0.3018
 1771W        W18618   7.262   3.027   1.010 -0.0103 -0.0141 -0.2725
 1772W        W18619  15.605  17.308   4.445  0.0311  0.0006  0.4326
 1773W        W18620   0.907   1.538  15.615 -0.0581 -0.2632  0.0700
 1774W        W18621  12.706   2.316   1.230 -0.2481 -0.1074  0.0117
 1775W        W18622   4.494  16.434   0.794 -0.1902  0.0871  0.0979
 1776W        W18623   8.752   4.474   0.416 -0.0915 -0.1386  0.0226
 1777W        W18624  14.587  14.261  12.560  0.2743  0.1689  0.0391
 1778W        W18625  12.131  17.130  13.071 -0.1143 -0.1348  0.0032
 1779W        W18626   2.748  10.688  11.993  0.2421  0.1457 -0.1781
 1780W        W18627   4.850   7.783  10.855  0.1296  0.2573  0.0416
 1781W        W18628  17.349   0.592  14.411  0.1180  0.3655 -0.0642
 1782W        W18629   4.309  12.101   5.233 -0.0521 -0.0313 -0.1086
 1783W        W18630  10.853  12.548   3.765 -0.1229 -0.1565 -0.2525
 1784W        W18631  15.653   6.549  11.277 -0.1044 -0.2014  0.0241
 1785W        W18632  13.279  17.829  12.627 -0.2399 -0.0090 -0.0099
 1786W        W18633  18.329   6.018  14.664  0.0664 -0.1714  0.3549
 1787W        W18634   1.865  17.286  12.457 -0.1518  0.1007 -0.1437
 1788W        W18635   0.097  12.113  14.840  0.0707  0.1564  0.0906
 1789W        W18636  13.963  10.839   1.537 -0.3556 -0.2418 -0.1128
 1790W        W18637  14.672   8.570  13.871  0.0582  0.1192 -0.0982
 1791W        W18638   4.950  10.652  13.718  0.1151  0.2139 -0.0182
 1792W        W18639  17.071  16.697  11.484 -0.0095  0.1779  0.0641
 1793W        W18640  16.011  15.991  14.405  0.1995  0.1869  0.0123
 1794W        W18641   0.074  12.744  11.199 -0.2859 -0.4240 -0.1266
 1795W        W18642   3.889   0.227   1.595 -0.0225  0.1173  0.0090
 1796W        W18643   1.672   1.317   1.098 -0.2415  0.3953  0.2315
 1797W        W18644   9.141   9.738  13.619 -0.1189 -0.3193  0.0605
 1798W        W18645  11.434   0.434   4.069 -0.1560  0.2115 -0.0393
 1799W        W18646   1.578  15.026   0.416  0.1745 -0.3545 -0.0291
 1800W        W18647  14.132   2.450   3.182 -0.0717  0.0262  0.0808
 1801W        W18648  17.668  13.081  11.707 -0.2316  0.1513 -0.2323
 1802W        W18649  10.019  15.038  15.944  0.2218  0.0696  0.1425
 1803W        W18650   3.119   0.038   4.210 -0.0728 -0.0995  0.0456
 1804W        W18651  10.386  13.985  12.223  0.0949  0.1157 -0.0141
 1805W        W18652  12.791   8.555  13.214  0.4098  0.3244 -0.1887
 1806W        W18653   4.001   9.600   0.356 -0.0685  0.1091  0.1134
 1807W        W18654  12.407   5.938  13.899  0.1604 -0.1924  0.1774
 1808W        W18655   4.667   9.296   1.374 -0.1096 -0.1838  0.1076
 1809W        W18656  16.576   4.449   0.791  0.1111 -0.2113 -0.3538
 1810W        W18657   6.061  16.395  14.138 -0.3073 -0.1074 -0.2480
 1811W        W18658  18.010   1.354   0.100 -0.0059 -0.1014 -0.0526
 1812W        W18659   5.781   8.697  13.263  0.2026  0.0447  0.3550
 1813W        W18660   3.035  13.353   5.795  0.0118  0.3655  0.1429
 1814W        W18661   1.628   7.941  14.390 -0.1311  0.1301 -0.0846
 1815W        W18662  16.165   2.074  13.810 -0.0599 -0.4891  0.0287
 1816W        W18663  13.296  12.705  13.905 -0.0479  0.1670  0.1889
 1817W        W18664   9.009   3.359  12.899  0.3007 -0.0210 -0.2363
 1818W        W18665  17.051   2.809  11.157 -0.0380 -0.0574 -0.1676
 1819W        W18666   5.606  12.014  15.599 -0.1532 -0.3044 -0.1216
 1820W        W18667  16.844   3.511   4.945  0.1550  0.0199  0.1656
 1821W        W18668   9.313   1.277   6.042 -0.0599  0.1959 -0.1716
 1822W        W18669   6.129   3.640   1.118 -0.1714 -0.2039 -0.1159
 1823W        W18670  14.326  11.717   3.425  0.3051  0.2126 -0.0410
 1824W        W18671   1.072  11.773   1.234  0.1663  0.0068  0.0455
 1825W        W18672  15.592  15.757  13.607 -0.1194 -0.0613 -0.3385
 1826W        W18673  11.310   6.812  11.365  0.4021 -0.2008 -0.0485
 1827W        W18674  11.338   4.869  13.707  0.0685 -0.3651  0.0376
 1828W        W18675  12.333   5.362   5.347 -0.5534  0.1929  0.1173
 1829W        W18676   0.863   7.897   3.879  0.0156 -0.0213  0.0126
 1830W        W18677  14.766  16.028   1.133 -0.1021  0.0841  0.1268
 1831W        W18678   0.058   9.012   4.507 -0.0715 -0.0158 -0.1131
 1832W        W18679  13.735   3.065   1.592  0.2329  0.0349 -0.3827
 1833W        W18680  16.078   8.214  15.348  0.2788  0.1806  0.2077
 1834W        W18681   3.905   2.504  12.499  0.1012 -0.0700  0.3380
 1835W        W18682  12.643  11.299   5.323  0.1824 -0.0592  0.0157
 1836W        W18683  17.412  14.738   0.068 -0.0780 -0.1717 -0.3746
 1837W        W18684   3.981   0.245  12.468  0.1518 -0.0263 -0.0360
 1838W        W18685   3.328   7.195  16.059 -0.1473  0.0048 -0.0774
 1839W        W18686   8.314   2.089  13.342  0.2300  0.2917  0.2552
 1840W        W18687   2.104   3.334  11.361 -0.0986 -0.0893  0.1320
 1841W        W18688   2.842  15.710   2.690 -0.0740  0.1386 -0.1484
 1842W        W18689   2.426  17.872   3.324 -0.1420 -0.1855 -0.1054
 1843W        W18690  17.863  12.757  14.650  0.0552  0.0103  0.1878
 1844W        W18691  15.128  11.402  12.721 -0.1630 -0.0960 -0.1520
 1845W        W18692  10.919  13.568  15.405  0.2261  0.1259 -0.3858
 1846W        W18693   6.457   7.212  14.062  0.3268  0.0326 -0.1591
 1847W        W18694   0.526   3.245   0.315  0.1995 -0.0308 -0.2315
 1848W        W18695  10.945   9.871   2.521 -0.1875  0.0273 -0.1796
 1849W        W18696   4.372  12.790   2.838 -0.2201  0.0684 -0.0873
 1850W        W18697  17.542   3.678   3.935 -0.1494 -0.1063 -0.0582
 1851W        W18698   7.838   7.667   1.812 -0.0040  0.0775 -0.1277
 1852W        W18699   0.727   0.014  12.290 -0.1070 -0.1111  0.0901
 1853W        W18700   1.743   0.751   3.203 -0.0782  0.0590 -0.1116
 1854W        W18701   8.687   2.090   3.504  0.0342  0.0621  0.2055
 1855W        W18702   8.941   8.940  12.733 -0.1628 -0.0451 -0.2443
 1856W        W18703   3.657   0.251   4.914 -0.0100 -0.0059 -0.0115
 1857W        W18704  14.813   5.679  11.994  0.2580  0.0268 -0.0587
 1858W        W18705  10.483  17.114   0.942  0.1318  0.0462  0.0708
 1859W        W18706  11.836   0.004   5.210 -0.2056 -0.5074 -0.0037
 1860W        W18707  15.944  10.077  13.739 -0.1785 -0.0395 -0.1098
 1861W        W18708   1.237   6.775   5.525 -0.2729  0.0881 -0.1297
 1862W        W18709  15.443   3.010   4.157  0.2258  0.2081  0.2142
 1863W        W18710   6.005   7.662  12.384  0.1473 -0.0012 -0.0638
 1864W        W18711  13.062  13.303   3.597 -0.0582 -0.0870  0.7173
 1865W        W18712   3.520   4.963  13.883  0.1185 -0.1512 -0.2200
 1866W        W18713  14.140  12.835  11.737  0.0312 -0.2446  0.0161
 1867W        W18714  11.573   8.974  15.471  0.3126 -0.0852 -0.1649
 1868W        W18715   6.722   9.176   5.412  0.0600 -0.1855 -0.2710
 1869W        W18716   5.583  13.307   5.254  0.0364 -0.1900 -0.1607
 1870W        W18717  14.334  14.578  13.717  0.0181 -0.1702  0.0591
 1871W        W18718  17.001  13.357  12.816 -0.1645  0.0877 -0.1002
 1872W        W18719  11.094   9.721   1.450  0.3816  0.1913  0.3430
 1873W        W18720   7.461   8.064   4.391 -0.0241 -0.1579 -0.0595
 1874W        W18721   2.671   3.203  13.833 -0.0530  0.0742  0.1918
 1875W        W18722  16.702   6.411   0.425 -0.1981 -0.0479 -0.0730
 1876W        W18723   7.868  10.960  15.307  0.0494 -0.1918 -0.0687
 1877W        W18724   6.351  10.733   0.414  0.1332 -0.0835 -0.0232
 1878W        W18725   9.502   9.436   3.252 -0.0130  0.0650 -0.2106
 1879W        W18726  15.606   4.396  11.009  0.1893  0.2883  0.0976
 1880W        W18727   1.774  15.542   5.203 -0.0376  0.2757 -0.0137
 1881W        W18728   2.254   5.979   3.267 -0.0341  0.2329  0.0034
 1882W        W18729  14.702  14.272   5.443 -0.1067  0.2829 -0.2801
 1883W        W18730   4.489   6.661  15.222 -0.2887 -0.1820  0.2040
 1884W        W18731   7.694  17.288  16.132 -0.0363 -0.0701 -0.0185
 1885W        W18732   3.964  12.003  12.688  0.0032  0.0396 -0.0046
 1886W        W18733   3.511  17.070   0.866  0.1166  0.5684  0.3583
 1887W        W18734  14.232   5.923  14.155  0.0832  0.0090 -0.1516
 1888W        W18735   3.047   1.202   2.774 -0.0359  0.1035 -0.0040
 1889W        W18736  13.366   6.693  15.688 -0.0709  0.1716 -0.1279
 1890W        W18737   2.194  14.858  11.633  0.0514  0.0803 -0.0239
 1891W        W18738   9.255   0.608   1.230  0.0098  0.0217 -0.6185
 1892W        W18739   3.154  14.138  13.647  0.1197 -0.0423  0.1863
 1893W        W18740   1.857  13.564   0.325 -0.3654 -0.2659 -0.3368
 1894W        W18741   2.182   6.606   5.058 -0.1189  0.1136 -0.1408
 1895W        W18742   0.389  13.435  15.228 -0.1429 -0.0129  0.1500
 1896W        W18743   9.501   4.152  11.142 -0.3578 -0.1856  0.2604
 1897W        W18744   4.474  11.157   5.036 -0.0717  0.1634  0.1804
 1898W        W18745  18.138  15.716   0.582  0.2044 -0.2598  0.1395
 1899W        W18746  11.101   2.572  15.412  0.0401 -0.3664  0.0340
 1900W        W18747  13.267   4.385   0.845  0.0628 -0.0846 -0.2090
 1901W        W18748   9.776  11.273   4.526 -0.4455  0.1357 -0.0632
 1902W        W18749   6.228   3.494   1.624 -0.1436  0.1780  0.1107
 1903W        W18750   5.969  17.977  10.603  0.3157 -0.1120  0.1867
 1904W        W18751   6.129   6.311  11.745  0.2331 -0.1586  0.0816
 1905W        W18752  14.295  16.724   4.243 -0.0505 -0.1126  0.2250
 1906W        W18753   5.180   2.263   1.052 -0.0594 -0.3244  0.2407
 1907W        W18754   2.609   9.542  15.202  0.1738 -0.1401  0.0674
 1908W        W18755  12.401  18.171   5.872  0.1469  0.2122  0.1264
 1909W        W18756  10.152   5.051  11.406 -0.1688  0.2120 -0.1174
 1910W        W18757  16.532  15.663   1.257 -0.0777  0.1907  0.3327
 1911W        W18758  12.844   7.934  11.565 -0.0492  0.3266  0.1051
 1912W        W18759  17.328   1.827   5.289 -0.2412 -0.0093  0.1077
 1913W        W18760   3.705   5.791   0.206 -0.0621 -0.2617 -0.3046
 1914W        W18761  10.261  10.355   4.875 -0.1497  0.1276 -0.3480
 1915W        W18762   1.003   7.025  16.110 -0.0107  0.2858 -0.2252
 1916W        W18763   2.958  11.136   3.343  0.1163 -0.1712 -0.0319
 1917W        W18764  15.942  17.576   3.588 -0.1043  0.2153  0.0102
 1918W        W18765   1.925   1.515  12.008  0.1007 -0.1263 -0.0406
 1919W        W18766   1.239  12.648  14.271 -0.0251  0.2034 -0.2395
 1920W        W18767  17.218  16.779  12.323 -0.0200 -0.1567 -0.0713
 1921W        W18768  13.480   9.924  12.989  0.0119 -0.0722  0.0255
 1922W        W18769  13.871   7.391  12.218 -0.1249  0.0907  0.1845
 1923W        W18770   2.151  13.170   0.425 -0.0347  0.1110 -0.1655
 1924W        W18771   9.166   8.061  14.911  0.0409  0.3499 -0.2134
 1925W        W18772  10.993  14.954   5.519  0.1847  0.0134 -0.4247
 1926W        W18773   3.719   1.796  11.816  0.1173  0.0630  0.1113
 1927W        W18774   4.990   0.451  13.568 -0.0273  0.0703 -0.1667
 1928W        W18775  11.908   5.345   3.959  0.3155 -0.0301 -0.0648
 1929W        W18776   5.381  17.055   4.160 -0.1544  0.2805  0.0235
 1930W        W18777   4.872  11.630   0.984  0.0664 -0.1733  0.0892
 1931W        W18778   0.556   6.457   3.620  0.0389 -0.1647 -0.0436
 1932W        W18779  12.305   5.937  11.839 -0.0571  0.1219  0.1708
 1933W        W18780   6.717   2.689   2.572  0.0261 -0.0883 -0.0217
 1934W        W18781   5.929   5.543  10.426  0.1630 -0.1189  0.2017
 1935W        W18782   2.899   6.854  14.786  0.0537  0.0736  0.1543
 1936W        W18783  16.482  18.063  12.453  0.0510 -0.2352  0.2763
 1937W        W18784   2.171   2.965   2.092  0.0038  0.0184 -0.2180
 1938W        W18785   8.728   0.690   4.206  0.1526 -0.1464  0.0183
 1939W        W18786  14.126  15.468   0.814  0.2408 -0.0399  0.1400
 1940W        W18787   4.200  12.014   5.913  0.0953  0.2266 -0.0971
 1941W        W18788   0.313   8.058   0.518  0.3062  0.1812  0.1578
 1942W        W18789  16.005   8.685  11.660  0.1018 -0.3105  0.0656
 1943W        W18790  15.594  14.025  14.719 -0.0155 -0.0788  0.0007
 1944W        W18791   8.588   1.254   3.292  0.0925 -0.2006  0.1178
 1945W        W18792   1.105   9.830  13.517  0.2252 -0.0316  0.0494
 1946W        W18793   5.089  17.658   0.088 -0.1416  0.0566 -0.0397
 1947W        W18794  13.714  17.924   1.547  0.2053  0.2491 -0.0415
 1948W        W18795   4.849  18.295   5.485 -0.0759  0.3851 -0.2375
 1949W        W18796  17.131  15.476   4.886 -0.1726 -0.1117  0.2518
 1950W        W18797   2.148   4.379  11.384 -0.0118  0.0573  0.1724
 1951W        W18798  12.769  16.308   5.674 -0.1915 -0.2828 -0.0850
 1952W        W18799  10.494  16.304  15.603 -0.0766  0.2719 -0.1794
 1953W        W18800  12.329  11.787   5.574 -0.3011  0.1251  0.2866
 1954W        W18801  12.662  12.059   2.865  0.1658  0.1826 -0.0908
 1955W        W18802  13.813   6.514  11.643 -0.0924 -0.0851 -0.2194
 1956W        W18803  17.469   1.919   3.739 -0.0238 -0.0440  0.1567
 1957W        W18804   4.076   0.019   0.335  0.0804 -0.1566  0.1170
 1958W        W18805  14.232  16.966  12.049  0.0571  0.2742  0.0812
 1959W        W18806  14.520   1.168   0.335 -0.0127  0.1166  0.0767
 1960W        W18807   1.186  12.178  14.148  0.3364 -0.3343  0.4093
 1961W        W18808  15.478  17.132  12.491  0.0553  0.1319  0.1374
 1962W        W18809  14.574   7.223   3.678  0.1851  0.1725  0.0925
 1963W        W18810  14.807   3.396   0.869 -0.3166  0.4980 -0.0636
 1964W        W18811  12.735  10.133   3.463  0.0671 -0.1215 -0.1009
 1965W        W18812   2.139   4.893   0.547 -0.3749  0.2576  0.0687
 1966W        W18813   2.963  18.224  13.262  0.2882  0.1823  0.3674
 1967W        W18814  17.865   5.610   4.234  0.0667  0.2224  0.0714
 1968W        W18815  12.309  11.976   0.254 -0.1548  0.0972 -0.0090
 1969W        W18816  12.530   1.684   1.440 -0.0384 -0.0839  0.0780
 1970W        W18817   4.241  17.418   4.505  0.1278  0.1939 -0.0390
 1971W        W18818  16.687   9.589   4.036 -0.2707  0.4379 -0.1029
 1972W        W18819  16.684   0.077  12.104  0.0549  0.2029  0.0442
 1973W        W18820  13.366   3.715  14.533 -0.4562  0.1251 -0.0256
 1974W        W18821  15.982   1.784  15.315 -0.1265  0.1719  0.2123
 1975W        W18822  13.299   3.387  12.099 -0.2541 -0.0277 -0.1599
 1976W        W18823   2.912   8.591   1.829 -0.0403 -0.1021 -0.0194
 1977W        W18824   0.521  10.711  12.029  0.1268  0.0212  0.1809
 1978W        W18825   6.462   3.430   2.146 -0.0922  0.3169 -0.0386
 1979W        W18826   2.560   2.727  15.023  0.2208  0.0127 -0.0076
 1980W        W18827   9.433   7.313  13.006  0.1930  0.3431  0.1220
 1981W        W18828  15.007   5.781  15.767  0.0446  0.0567 -0.2756
 1982W        W18829   8.407   7.395   2.013  0.4201 -0.0369 -0.0966
 1983W        W18830   7.637  16.807  14.891  0.1724 -0.0064 -0.3542
 1984W        W18831  15.817  18.006  12.241 -0.0546 -0.0358 -0.0857
 1985W        W18832   5.538   7.215   1.445  0.1097 -0.1158  0.0244
 1986W        W18833   6.841   0.590  11.735  0.0437  0.0111 -0.0996
 1987W        W18834   8.663   9.992  13.721 -0.0844  0.2364  0.0051
 1988W        W18835  15.399   2.933  13.062 -0.1237 -0.0786  0.0301
 1989W        W18836  10.010  16.238  14.526  0.1252 -0.0489 -0.0444
 1990W        W18837   9.511  14.285  14.036 -0.0420 -0.1409  0.1831
 1991W        W18838   5.956  11.216   6.506  0.2332 -0.0550  0.0652
 1992W        W18839  10.531  11.377  13.826 -0.2085  0.0444 -0.1542
 1993W        W18840  11.888  14.378  15.707 -0.2494  0.0772  0.0639
 1994W        W18841  17.770   8.368   2.946 -0.0965  0.2825 -0.0036
 1995W        W18842  10.534   1.070   0.967  0.2119  0.1647 -0.0501
 1996W        W18843   2.900  10.454   4.713 -0.2576 -0.0870  0.2595
 1997W        W18844   6.459  17.041  13.108  0.0829  0.1974  0.1334
 1998W        W18845  13.683   7.081  15.852 -0.0677 -0.1956 -0.2738
 1999W        W18846   3.699   5.912  12.380 -0.0516  0.0762  0.0122
 2000W        W18847  12.051   7.422  12.428  0.0560 -0.2456 -0.1603
 2001W        W18848   2.185  17.540   1.794 -0.0096  0.0253 -0.1266
 2002W        W18849   2.653  15.227   3.969  0.1954 -0.1706 -0.1742
 2003W        W18850   3.846   5.622  11.933  0.1105  0.1273 -0.0218
 2004W        W18851  12.012  10.743   4.866  0.1403  0.0269 -0.2135
 2005W        W18852  17.011   5.142  12.316 -0.1690  0.0607 -0.0167
 2006W        W18853  17.714  12.760  15.938 -0.1853 -0.1451 -0.0134
 2007W        W18854   3.261   0.137   0.615 -0.3617  0.1411  0.1347
 2008W        W18855  13.120   0.352  11.598  0.1628  0.1367  0.0915
 2009W        W18856  14.190  11.713   4.981  0.0839 -0.0439  0.1111
 2010W        W18857   9.158   0.493  11.610  0.1631  0.1834  0.0489
 2011W        W18858  12.255   0.586   2.618  0.2358  0.1130 -0.1644
 2012W        W18859   2.564   4.976   1.305 -0.3898  0.2543  0.1270
 2013W        W18860   6.585   3.269  12.477 -0.1086  0.3078  0.0607
 2014W        W18861   1.316   3.720  13.486  0.2324  0.3108  0.0014
 2015W        W18862   0.797  13.764   4.207 -0.4013  0.2988 -0.0354
 2016W        W18863  12.301   8.543   0.313  0.3014  0.1296  0.0533
 2017W        W18864   6.261   6.928  14.372  0.1910  0.2362  0.0282
 2018W        W18865   2.090   3.593  12.454  0.2862  0.1034  0.3656
 2019W        W18866  12.884   9.558   3.981 -0.0118 -0.0793  0.1885
 2020W        W18867  10.001  13.693   1.985 -0.0570 -0.0018  0.0240
 2021W        W18868  17.047   8.071  11.245 -0.0488  0.7641  0.0427
 2022W        W18869   3.667  12.700   4.009 -0.2275 -0.1465  0.2089
 2023W        W18870   6.416   3.710  12.715  0.0903 -0.1931  0.1301
 2024W        W18871  11.116  16.305   0.650 -0.0748 -0.1239 -0.0393
 2025W        W18872  15.603  18.119   2.446  0.3362  0.1110 -0.2635
 2026W        W18873   7.542   5.645  12.787 -0.1511 -0.1755  0.1408
 2027W        W18874   5.508  17.359   0.765  0.0924 -0.0405  0.1858
 2028W        W18875  17.908   1.814   0.261 -0.1062  0.2428 -0.0478
 2029W        W18876   4.297   2.066   1.181  0.2764  0.2553  0.2078
 2030W        W18877  17.979  11.939  13.086  0.0215 -0.2120  0.2986
 2031W        W18878   1.440  12.074   1.006 -0.1273 -0.0587 -0.1969
 2032W        W18879  10.004   6.144   3.755 -0.1761  0.2180 -0.1149
 2033W        W18880  11.015  13.799  14.314 -0.1241 -0.2952 -0.0641
 2034W        W18881  10.363  13.142  11.540  0.2020  0.1521 -0.2132
 2035W        W18882  15.535  16.658  14.208  0.2445  0.0587  0.1716
 2036W        W18883  14.729  14.426  14.450 -0.0905 -0.1358 -0.2179
 2037W        W18884   0.564  12.454  12.819 -0.1080  0.1362  0.2017
 2038W        W18885  16.631   1.638   1.546 -0.1021  0.0005 -0.0375
 2039W        W18886   9.920  17.420   0.975  0.1988 -0.1724  0.3377
 2040W        W18887  12.851  10.384  15.857  0.0515  0.0409 -0.1353
 2041W        W18888   5.424  10.468  11.833  0.1386  0.0110 -0.1562
 2042W        W18889  14.494  17.101   4.501 -0.0114  0.1124 -0.2305
 2043W        W18890  13.618   3.267   4.633  0.0868  0.2930  0.1108
 2044W        W18891  10.997  10.882  14.818  0.1759  0.0515  0.0807
 2045W        W18892   3.200  11.949   0.367  0.0353 -0.1169  0.1107
 2046W        W18893   7.993   0.939   4.593  0.1977  0.0744  0.2100
 2047W        W18894  12.954  12.790  12.644 -0.0694  0.2654  0.3558
 2048W        W18895  15.727  13.351  16.124  0.1388  0.0203 -0.2626
 2049W        W18896   7.772  12.997  15.163  0.0444  0.0732 -0.1779
 2050W        W18897  15.958  11.174  13.081  0.1022  0.2697  0.0486
 2051W        W18898   8.431   3.680   3.437  0.2250 -0.0995 -0.1384
 2052W        W18899   5.498   4.033   4.608  0.0666 -0.2427 -0.0569
 2053W        W18900   4.464   0.501  13.371 -0.0361  0.1164 -0.1135
 2054W        W18901   9.711  11.417   2.864  0.1572 -0.1889 -0.0567
 2055W        W18902  13.826  14.219  14.391 -0.0121  0.1123 -0.1027
 2056W        W18903  15.576   2.188   2.004 -0.3378 -0.0940 -0.1594
 2057W        W18904  17.259  13.628  14.929 -0.1645  0.3236 -0.1063
 2058W        W18905  14.921   8.051   3.689 -0.5609  0.0621 -0.1595
 2059W        W18906  13.123   6.785   4.776 -0.1976  0.2458 -0.0932
 2060W        W18907  12.884   2.965  13.200  0.1068  0.3283 -0.4602
 2061W        W18908   9.095  11.462  14.164  0.1210 -0.0574  0.2237
 2062W        W18909  13.379  11.162   2.396  0.1957 -0.0841 -0.1573
 2063W        W18910   2.375   9.915  12.221  0.0634  0.3505  0.0172
 2064W        W18911   1.856   2.705  12.023 -0.1777  0.2599 -0.1695
 2065W        W18912   4.075   2.314  13.616  0.0556 -0.1266  0.2817
 2066W        W18913  15.733  11.460   4.062  0.1917 -0.0303  0.3306
 2067W        W18914  11.993  15.984   3.476 -0.2625  0.0458 -0.0377
 2068W        W18915   6.006  17.908   0.133  0.0225 -0.0926  0.1159
 2069W        W18916   1.318  17.536   0.079 -0.2173  0.0809  0.2867
 2070W        W18917   1.369  11.208   0.486  0.0284 -0.0419 -0.2572
 2071W        W18918  13.314   4.612   2.547  0.0590 -0.1925 -0.0423
 2072W        W18919   9.694   8.604   0.189  0.1342 -0.3250 -0.0955
 2073W        W18920   2.778  17.407   0.682  0.1382 -0.1490  0.2201
 2074W        W18921   6.101  13.673   1.091 -0.0333  0.0297 -0.1294
 2075W        W18922   1.592   9.780  11.444 -0.2206  0.2364  0.0368
 2076W        W18923   4.959   3.869   1.117  0.0619  0.0955  0.2140
 2077W        W18924   8.636   5.868   0.385 -0.2858 -0.6200  0.0843
 2078W        W18925   0.975  13.700   1.393 -0.2947 -0.4031  0.0071
 2079W        W18926   1.726  18.069   0.288  0.0733  0.0872  0.2200
 2080W        W18927  14.569   9.073  12.269  0.3459  0.3468  0.0974
 2081W        W18928   3.130   7.104   3.450  0.3371  0.0529  0.0323
 2082W        W18929   8.920  13.429  12.048  0.1502  0.3452  0.0372
 2083W        W18930  12.882  16.988   0.657 -0.0756 -0.2775  0.3555
 2084W        W18931   5.582   0.598   5.101 -0.0181 -0.3958 -0.1973
 2085W        W18932   7.681   6.786  13.682 -0.2088 -0.0071  0.0417
 2086W        W18933   8.263  13.333   3.118 -0.4245  0.1719 -0.2571
 2087W        W18934  14.038  15.616   2.125 -0.0736 -0.3174  0.1026
 2088W        W18935  14.020  15.283   1.593 -0.0469 -0.3897 -0.1438
 2089W        W18936   7.084  10.985   5.296  0.0704  0.0931  0.0054
 2090W        W18937  11.255   8.251   4.380  0.1416  0.0027 -0.1293
 2091W        W18938   5.275   7.982   4.668  0.1443  0.1247 -0.0445
 2092W        W18939  12.139  13.373   1.561  0.0808  0.3920  0.1124
 2093W        W18940   3.569   6.439  12.235 -0.0468  0.0108  0.0273
 2094W        W18941   2.151   7.644  13.219 -0.0172  0.0280  0.2662
 2095W        W18942   8.436  11.127   5.520  0.0494  0.1449  0.0532
 2096W        W18943   9.114   3.206   2.442 -0.1285  0.0271 -0.0316
 2097W        W18944   6.111  16.409   2.054  0.4136 -0.1439  0.0658
 2098W        W18945  12.004   4.554  15.015 -0.2444 -0.2687  0.2658
 2099W        W18946  16.418   1.607   2.781  0.0285 -0.0194  0.2182
 2100W        W18947   8.282  13.839   2.348  0.1373  0.1491 -0.1683
 2101W        W18948  12.572   7.952  11.130 -0.1809  0.1876  0.0281
 2102W        W18949   1.428   4.526  11.864 -0.0294 -0.0011  0.0634
 2103W        W18950  13.012   7.679   4.873 -0.0966 -0.1782  0.0734
 2104W        W18951   3.435   0.408  14.984 -0.0640 -0.1038 -0.0814
 2105W        W18952   2.971  13.772   5.509 -0.1166 -0.2588 -0.3152
 2106W        W18953  17.158   9.413  11.793 -0.0357 -0.2112 -0.1272
 2107W        W18954  11.994  16.947   0.508  0.1929 -0.3565 -0.2266
 2108W        W18955  15.221  12.178  14.896 -0.1517 -0.1726  0.1375
 2109W        W18956   0.096  11.057  14.248 -0.2008  0.0215  0.2213
 2110W        W18957   9.630   5.622  15.581 -0.2300  0.2050 -0.0656
 2111W        W18958   8.206   6.283   2.378  0.1408  0.5330  0.1038
 2112W        W18959   9.536  14.616  15.939  0.0542  0.0021 -0.1190
 2113W        W18960   5.395   4.059   1.381 -0.1256 -0.0117 -0.0140
 2114W        W18961  10.626   1.205  14.228 -0.1070  0.1815 -0.2492
 2115W        W18962  11.635   1.814  13.489  0.0440 -0.2437  0.0536
 2116W        W18963   9.117  17.741  15.961  0.0545 -0.0595  0.1005
 2117W        W18964   6.585   8.325   5.410 -0.1260 -0.0020 -0.1407
 2118W        W18965   7.343   6.526   3.622 -0.0232  0.2537 -0.0893
 2119W        W18966   4.144  10.767   2.912 -0.1191 -0.0468 -0.1486
 2120W        W18967  10.108  14.950   3.517 -0.1000 -0.0281  0.1223
 2121W        W18968  10.748   4.905   1.617 -0.1945 -0.1176  0.1731
 2122W        W18969   0.550  11.221  15.145  0.3165 -0.1904  0.0364
 2123W        W18970   3.985  18.164   4.965 -0.0902  0.1345 -0.1408
 2124W        W18971  16.659  17.315  13.597  0.0941 -0.1322  0.1476
 2125W        W18972   8.212  17.057  13.550 -0.1472 -0.2038 -0.2219
 2126W        W18973  17.968   8.265  13.275 -0.0815  0.0330 -0.2168
 2127W        W18974   9.966  12.578  13.566  0.3272  0.2418 -0.0495
 2128W        W18975   9.588  17.504  12.265 -0.0564  0.1114 -0.0674
 2129W        W18976  16.301  16.612   3.980  0.0583 -0.0703  0.4514
 2130W        W18977   6.155  18.176   5.038 -0.2360  0.1219  0.0891
 2131W        W18978   9.041  14.039   3.918  0.0197  0.0979 -0.0528
 2132W        W18979  16.960  11.368   2.139  0.1153  0.1269  0.0104
 2133W        W18980  16.979   3.798  11.133 -0.0999  0.3190 -0.0394
 2134W        W18981   4.435  10.832  15.267 -0.5103 -0.2419 -0.0599
 2135W        W18982  15.438  13.970   4.390 -0.1612  0.2321 -0.0408
 2136W        W18983  11.098  16.618  14.896 -0.1202 -0.2226  0.0534
 2137W        W18984   3.107   3.928   4.502 -0.0984 -0.0518 -0.2475
 2138W        W18985   6.725  17.462  12.848 -0.0778 -0.1081 -0.2274
 2139W        W18986   7.217  14.202  15.870  0.0158 -0.0793  0.1742
 2140W        W18987   6.561   7.443  15.857 -0.1630  0.1345 -0.1493
 2141W        W18988   9.704   6.139  13.389 -0.0132  0.3063 -0.0479
 2142W        W18989  13.525   9.711   0.960 -0.0104  0.1345  0.2575
 2143W        W18990  10.909   4.836  11.484  0.1821  0.0352 -0.2390
 2144W        W18991   1.761  14.987  15.825 -0.2021 -0.0975  0.2139
 2145W        W18992   1.911  15.073  12.693 -0.0969  0.3786  0.1435
 2146W        W18993   0.745   2.330   4.216  0.1595  0.0689  0.1527
 2147W        W18994  11.064  15.293  14.668 -0.2988  0.1679  0.2899
 2148W        W18995  16.812  13.668   0.833 -0.1174  0.0634 -0.2504
 2149W        W18996  11.099   8.742  11.526 -0.4274 -0.1683  0.1977
 2150W        W18997  17.461  12.596   0.618 -0.0178  0.0752  0.4409
 2151W        W18998   0.600   3.506   3.706  0.2435  0.4955 -0.0982
 2152W        W18999   1.602   2.203  11.771  0.0182 -0.1178 -0.0255
 2153W        W19000  14.241   6.966  15.800  0.1192 -0.0611  0.1273
 2154W        W19001  15.836  15.083   0.926 -0.3140  0.2071 -0.1788
 2155W        W19002  16.469   7.080   3.214 -0.0618  0.3061 -0.1896
 2156W        W19003  10.353  17.243  14.749  0.0800  0.1538 -0.1662
 2157W        W19004  14.407  16.260   2.853  0.0649  0.2612 -0.1407
 2158W        W19005   0.593   1.201   1.195 -0.0898 -0.1411  0.1694
 2159W        W19006  13.848  16.224   5.548 -0.0244 -0.0499  0.0448
 2160W        W19007  10.900  17.399  12.741 -0.1084 -0.1088  0.0296
 2161W        W19008   1.299  13.322   2.193 -0.1354 -0.1514  0.2399
 2162W        W19009  13.914   1.174   4.389 -0.0550  0.1967  0.1578
 2163W        W19010  10.982  14.287  15.847 -0.0216 -0.2860 -0.2813
 2164W        W19011  14.802  15.859  12.458 -0.3391  0.0291 -0.0893
 2165W        W19012   4.810  13.610   0.372  0.1682  0.0340  0.2066
 2166W        W19013  17.281  11.042   5.517 -0.0112  0.0416  0.3190
 2167W        W19014   5.811   7.504  12.911 -0.0977  0.0409  0.2408
 2168W        W19015   6.885  13.771   4.237  0.0391  0.0604  0.2219
 2169W        W19016   6.971  13.313   5.623 -0.1283 -0.0231 -0.0419
 2170W        W19017   4.467   6.698   5.515 -0.1901  0.0195 -0.0968
 2171W        W19018   5.892  15.075   1.078  0.3773  0.0986  0.0541
 2172W        W19019  12.588  12.539  11.545  0.1189  0.2344  0.1463
 2173W        W19020   4.361   2.506   0.360  0.0921 -0.1872 -0.0870
 2174W        W19021   1.721  18.158   4.723  0.0628  0.1016  0.0218
 2175W        W19022  11.864   8.124  15.325 -0.1411 -0.2460 -0.0134
 2176W        W19023   8.560   1.822  11.071  0.1000  0.1014 -0.1298
 2177W        W19024  13.655   9.610  10.274 -0.1431  0.0666  0.1342
 2178W        W19025   0.062  17.309   4.181  0.0675 -0.2107 -0.0208
 2179W        W19026   8.234  14.507  12.637  0.0564  0.2139  0.0216
 2180W        W19027   7.281   3.297  13.688  0.1256  0.0381 -0.1167
 2181W        W19028   4.772  14.758  14.179 -0.4487 -0.3545 -0.3426
 2182W        W19029  16.007   9.152   3.269 -0.0525 -0.0796 -0.0130
 2183W        W19030  10.025  11.386  11.955 -0.1251 -0.3467 -0.0775
 2184W        W19031  12.563  17.598   1.867 -0.0117 -0.0136 -0.0908
 2185W        W19032  10.466   8.609   3.101 -0.1296  0.2570 -0.2203
 2186W        W19033  13.570   1.371  15.706  0.4669  0.0235  0.3401
 2187W        W19034   6.635   1.810   1.081 -0.0955  0.0834 -0.1416
 2188W        W19035  11.710   0.653  15.234  0.1120  0.1206  0.0146
 2189W        W19036   8.709   8.970   3.075 -0.0721  0.1109  0.0627
 2190W        W19037  12.815  12.495   2.820  0.1474  0.2025  0.0339
 2191W        W19038   1.632   7.825   2.588 -0.1783  0.1205  0.0510
 2192W        W19039   5.896  15.165   5.310 -0.0073  0.0286 -0.1629
 2193W        W19040  12.443   4.925  13.828  0.3532 -0.0681 -0.0659
 2194W        W19041   5.533  12.671   2.798  0.0685 -0.0533 -0.0965
 2195W        W19042  12.832  11.691  12.458  0.1332  0.2034  0.3476
 2196W        W19043  11.169   6.233  15.744  0.0198 -0.0346 -0.2373
 2197W        W19044   6.127  14.199   1.084  0.0312 -0.4331  0.2121
 2198W        W19045   8.353   6.891   2.944  0.0169  0.0901 -0.3071
 2199W        W19046  14.633  15.100   0.069  0.0238  0.1288  0.2109
 2200W        W19047  14.575   6.848  14.196  0.0377  0.0066  0.1640
 2201W        W19048  16.881  16.425  13.688 -0.3870 -0.1591  0.2763
 2202W        W19049  11.787   9.845   4.538  0.1263  0.0719 -0.3242
 2203W        W19050  10.146   5.138   4.785  0.0608 -0.0002 -0.0794
 2204W        W19051   4.108   0.067  14.539 -0.0639 -0.0738 -0.2705
 2205W        W19052  16.814   2.637   3.916 -0.0469  0.0067  0.0086
 2206W        W19053   5.440   9.483   2.907  0.0999 -0.1316 -0.0030
 2207W        W19054   7.543   3.714  11.898  0.0101 -0.0621 -0.0899
 2208W        W19055   8.750  15.446   4.573  0.1773  0.0120  0.0806
 2209W        W19056  12.885   3.094  15.060  0.0539 -0.1067  0.0132
 2210W        W19057  17.393  14.866   0.561  0.2461  0.1013 -0.3276
 2211W        W19058  16.600   9.596   3.499  0.0035  0.0256 -0.1000
 2212W        W19059   2.256  13.982   6.547 -0.2741 -0.2134 -0.0686
 2213W        W19060   8.029   8.750   4.442  0.1800 -0.0740 -0.2195
 2214W        W19061   7.866   0.211  11.245  0.0325 -0.0277  0.0983
 2215W        W19062   2.521   3.439   3.348  0.1258 -0.0667 -0.2747
 2216W        W19063  16.397  10.444   0.864  0.1945  0.0115 -0.3885
 2217W        W19064  15.137  10.311  13.767 -0.1302  0.2042  0.0230
 2218W        W19065   1.522  12.096  12.052 -0.3488  0.1506 -0.3092
 2219W        W19066  10.894   5.615  14.617 -0.4233  0.1239 -0.0177
 2220W        W19067   1.760   5.236   0.326 -0.0779  0.0968 -0.0896
 2221W        W19068   9.683   2.777   1.696 -0.0347 -0.0766  0.0458
 2222W        W19069   1.737  17.570   3.903  0.0306  0.1107 -0.1922
 2223W        W19070  10.632  11.310   1.492  0.1138  0.1259  0.1277
 2224W        W19071   9.072   3.988   2.802 -0.0351  0.0255  0.0255
 2225W        W19072  17.462   6.702  12.569 -0.1184  0.0762 -0.1616
 2226W        W19073  17.093  12.432  11.710 -0.2604  0.1919  0.0133
 2227W        W19074   6.551   3.369  13.013 -0.3090 -0.0771 -0.1647
 2228W        W19075   7.478  14.825  14.641 -0.0616 -0.0911 -0.3119
 2229W        W19076  11.478   1.342  11.769  0.2293 -0.4328  0.2073
 2230W        W19077  17.758  14.753   4.061  0.3717 -0.2123  0.3393
 2231W        W19078   5.446   1.376   5.395  0.1241 -0.3576  0.2324
 2232W        W19079   3.215  14.265  15.230 -0.2129  0.0273 -0.2716
 2233W        W19080   7.585  14.650  12.981 -0.0824  0.0416 -0.0219
 2234W        W19081   2.323  16.859   3.717  0.1098  0.0617 -0.0623
 2235W        W19082   2.505  12.018   2.079 -0.1806 -0.2454  0.0205
 2236W        W19083   4.229   1.316   3.701  0.2328 -0.1336  0.2841
 2237W        W19084  16.017  17.321   1.111  0.2347  0.2073 -0.2204
 2238W        W19085  12.628   9.407   2.600  0.1343 -0.1058  0.1329
 2239W        W19086   5.246   9.378  16.098 -0.1653 -0.0436 -0.0923
 2240W        W19087   7.809   6.192  14.971  0.1401  0.1759  0.1246
 2241W        W19088   9.860  18.297   3.485  0.1852 -0.1244 -0.2488
 2242W        W19089  16.090  10.646   1.315  0.3153  0.1025 -0.0849
 2243W        W19090  10.700   1.954   3.535  0.3028  0.0085  0.0007
 2244W        W19091   6.683  11.124  11.764 -0.1553  0.0897  0.1886
 2245W        W19092   6.810   8.463  15.227  0.0123 -0.0580  0.2176
 2246W        W19093   3.085   3.127   1.998 -0.1325  0.0730 -0.0588
 2247W        W19094   8.995   8.523   4.690 -0.0305  0.0296 -0.1560
 2248W        W19095  16.142  13.644  14.267  0.0404  0.1749 -0.0201
 2249W        W19096   2.327   7.632   3.870 -0.2827 -0.1238 -0.2024
 2250W        W19097   8.899   0.385   0.709 -0.2098  0.0093  0.1702
 2251W        W19098  13.694   0.455  12.477 -0.1370 -0.2693 -0.0830
 2252W        W19099   7.979  15.763  14.856  0.0360  0.1874 -0.1837
 2253W        W19100  10.656   1.883   1.334  0.2823  0.0289 -0.1831
 2254W        W19101  15.009   7.025   4.834 -0.3298 -0.3101 -0.0503
 2255W        W19102   4.024   6.230  13.348 -0.0326  0.0286 -0.0444
 2256W        W19103   4.993   7.496  15.187 -0.0570 -0.0024  0.0043
 2257W        W19104   4.828   2.038   3.709  0.1001  0.1080  0.0918
 2258W        W19105  12.644   8.591   1.164 -0.0556  0.2255 -0.1126
 2259W        W19106   0.729  17.193  11.135  0.2863 -0.0820  0.0123
 2260W        W19107   7.452  11.845   5.732 -0.0535 -0.2502  0.1514
 2261W        W19108   8.048  16.093  13.678  0.3834 -0.0070 -0.2775
 2262W        W19109  16.738  10.582   4.358 -0.1616  0.1966 -0.1897
 2263W        W19110   5.401  17.123   2.207 -0.4075 -0.0668 -0.1242
 2264W        W19111   5.180   6.933   1.648 -0.0196  0.2186  0.0765
 2265W        W19112  10.428   1.255  11.740  0.1298  0.2775 -0.0499
 2266W        W19113   2.948  13.055  13.833  0.0926 -0.0338  0.2145
 2267W        W19114  14.421   8.690   5.516  0.2599 -0.0072 -0.0779
 2268W        W19115   4.420   1.654   0.856 -0.0682 -0.1303 -0.0174
 2269W        W19116  12.512   7.664   4.084  0.0822  0.1583  0.2828
 2270W        W19117  17.542   3.520  13.015  0.4872 -0.2691 -0.1477
 2271W        W19118   1.249   8.785  14.517  0.0383  0.3481  0.0888
 2272W        W19119   0.153  10.902   5.250 -0.0278 -0.0573 -0.0602
 2273W        W19120  13.339   3.810   3.030  0.1064  0.1188 -0.0433
 2274W        W19121   0.135  16.792   2.261  0.0420 -0.0675  0.2604
 2275W        W19122   9.883   2.068  14.065  0.5314 -0.1616  0.1629
 2276W        W19123  17.659  16.555   4.762  0.1245  0.0452  0.0371
 2277W        W19124  11.000   3.227  12.868 -0.2117 -0.2885  0.1114
 2278W        W19125   4.872  18.071   0.850 -0.0957  0.1696 -0.1018
 2279W        W19126  18.280  16.845  15.964  0.1201 -0.1633 -0.0400
 2280W        W19127   6.435  12.138   5.754 -0.1511  0.1012  0.1287
 2281W        W19128  11.189  11.296   0.446 -0.1330 -0.0216  0.2657
 2282W        W19129  10.334  17.884  13.360  0.1110 -0.0030  0.3710
 2283W        W19130   5.922   3.119   2.500  0.1307 -0.2150 -0.1100
 2284W        W19131   9.320   2.808  14.168  0.3750 -0.0050  0.1319
 2285W        W19132  12.497   9.293   1.047 -0.2445 -0.1632  0.2074
 2286W        W19133   7.400  11.777   2.212 -0.0770  0.0063  0.1114
 2287W        W19134   0.239   7.068   4.125  0.2141 -0.1728 -0.0237
 2288W        W19135   7.913   7.114  11.411  0.0819  0.0052  0.2425
 2289W        W19136   3.125   3.106   0.861  0.0752 -0.1832  0.1095
 2290W        W19137   4.988  17.974  11.886  0.1712 -0.1780 -0.0755
 2291W        W19138   0.274  10.133  12.232 -0.1464 -0.1013 -0.0934
 2292W        W19139   9.848   1.304  13.649 -0.0401  0.1855  0.0583
 2293W        W19140  17.479   3.659  11.281 -0.0083  0.1636  0.1588
 2294W        W19141  17.060   4.554  15.412 -0.0211 -0.1110 -0.0474
 2295W        W19142  10.443   3.970  11.426  0.0534 -0.2858  0.1983
 2296W        W19143   0.359   1.703   2.745  0.0076  0.0724  0.0128
 2297W        W19144  18.183  18.113  13.201 -0.0194  0.1459 -0.0922
 2298W        W19145  11.190   5.688  13.155 -0.1116 -0.1439 -0.1482
 2299W        W19146  13.659   5.392   4.586 -0.0735 -0.1165  0.1044
 2300W        W19147  18.136   4.814  12.401 -0.1653  0.0093  0.0598
 2301W        W19148   3.265   1.936   0.376 -0.0201 -0.2420 -0.1991
 2302W        W19149  13.849  15.901   3.135  0.1448 -0.4258  0.0240
 2303W        W19150  13.887   0.299   4.291 -0.1957 -0.0176  0.1860
 2304W        W19151  12.602  10.225   2.957  0.0286  0.1647  0.2558
 2305W        W19152   2.760   2.226   1.057 -0.0785 -0.2128  0.1217
 2306W        W19153  13.023   5.189   1.423  0.0444 -0.0982 -0.0580
 2307W        W19154   7.829  16.420   1.514 -0.2860 -0.0177  0.0016
 2308W        W19155  17.291  12.073   4.126 -0.0026 -0.0458 -0.1614
 2309W        W19156   4.723  15.752  15.619  0.0016 -0.0456 -0.0479
 2310W        W19157   7.464  11.687   4.799  0.3014  0.3694 -0.0718
 2311W        W19158  12.856  14.938   3.730  0.0330 -0.4894 -0.0364
 2312W        W19159   8.642   8.762   1.528 -0.2632  0.0938  0.1009
 2313W        W19160  14.595  17.618  15.490 -0.1529 -0.0424  0.1985
 2314W        W19161   5.837   6.187   0.089  0.1468 -0.1749 -0.3846
 2315W        W19162   8.357   9.703   4.387 -0.1632 -0.1436 -0.0076
 2316W        W19163  10.776  13.222  13.179 -0.2353 -0.2410  0.0377
 2317W        W19164   0.587  13.291  16.169 -0.1162 -0.1696  0.2749
 2318W        W19165   4.229  17.394  11.599  0.5406 -0.0542 -0.1524
 2319W        W19166  17.628  18.248   0.040 -0.0481  0.2280  0.2562
 2320W        W19167  15.879   0.382  14.933 -0.0164  0.0965 -0.0132
 2321W        W19168  13.248   8.633   4.949  0.0084  0.1861  0.0939
 2322W        W19169   2.920   7.631  14.305 -0.1126 -0.1347 -0.2450
 2323W        W19170  14.032  12.820  14.947  0.1005  0.0691 -0.0797
 2324W        W19171   2.742  18.208   2.207 -0.0292 -0.3232 -0.0866
 2325W        W19172  10.387  11.300   3.527 -0.0763 -0.1696 -0.2228
 2326W        W19173  16.555   3.820   1.335  0.0238  0.2152  0.1518
 2327W        W19174  16.004   2.084   1.139 -0.0505  0.1618 -0.3193
 2328W        W19175  16.355  14.948   0.610  0.1954  0.0269  0.0515
 2329W        W19176  12.993  17.652  12.974  0.2671  0.1364  0.2054
 2330W        W19177   6.888   3.533  15.782 -0.0845  0.1440  0.3450
 2331W        W19178   0.556   4.339  15.423  0.1227  0.0298  0.1802
 2332W        W19179   2.460   0.413   1.046  0.2171 -0.0703 -0.0378
 2333W        W19180   6.895  16.340   0.454  0.0086  0.0889 -0.2248
 2334W        W19181   0.810   0.662  10.457 -0.3091  0.1775  0.1041
 2335W        W19182   0.417  12.524  14.962 -0.0284  0.2195 -0.1381
 2336W        W19183   3.949  10.421  12.319  0.3115 -0.2275 -0.2077
 2337W        W19184  16.738  11.933   4.804  0.0648 -0.1585 -0.1015
 2338W        W19185  17.490  15.342  11.191 -0.0329 -0.3316  0.1606
 2339W        W19186  17.029  12.299  13.650 -0.2510  0.0619 -0.2064
 2340W        W19187   5.621  14.792   2.124 -0.0585  0.4655 -0.0647
 2341W        W19188  10.301   9.017  13.862 -0.0233  0.1216  0.3649
 2342W        W19189   4.840  14.648   2.210  0.0387  0.0740  0.0320
 2343W        W19190   2.983   1.890   0.787 -0.1938 -0.0995  0.3102
 2344W        W19191  15.828  14.384   5.109 -0.0159 -0.2484  0.0858
 2345W        W19192   6.650  12.267  12.828 -0.0190  0.1201 -0.1089
 2346W        W19193  12.896  16.600  14.852 -0.3166 -0.2469  0.0179
 2347W        W19194  16.033   9.545   2.074 -0.2927 -0.2160 -0.2887
 2348W        W19195  11.843   9.750  15.023 -0.0487 -0.0503  0.2279
 2349W        W19196   4.083  11.220   1.448  0.1042  0.1759 -0.0569
 2350W        W19197   3.097   3.938  14.441 -0.1811  0.0686  0.0510
 2351W        W19198  12.371  13.375   4.596 -0.3014  0.1368  0.1293
 2352W        W19199   8.690  15.158  11.428 -0.0410 -0.1438  0.0843
 2353W        W19200  17.390   7.855   4.261  0.0931 -0.3642 -0.0526
 2354W        W19201  10.363  13.720  15.346 -0.0057 -0.3428 -0.0593
 2355W        W19202  11.113   6.698   3.794 -0.0751  0.2870  0.2974
 2356W        W19203  16.655  13.625   2.562  0.1062 -0.0768  0.1215
 2357W        W19204  15.496  13.939  11.919 -0.1024 -0.2169  0.0272
 2358W        W19205   3.328   9.014   1.822 -0.0149  0.2043 -0.0302
 2359W        W19206  14.641  13.307   3.620  0.1541  0.1722 -0.0038
 2360W        W19207   0.571   4.756   5.763 -0.2676  0.3312  0.1107
 2361W        W19208   6.668   2.121   4.726  0.0739  0.0266 -0.0485
 2362W        W19209  13.504   6.197  15.859 -0.1932 -0.0082  0.0033
 2363W        W19210  18.117  16.002  11.382  0.0336  0.1224  0.1917
 2364W        W19211   6.636   9.462  15.789 -0.0948  0.0533  0.0915
 2365W        W19212  14.462   0.860  14.287  0.0566  0.0493 -0.0808
 2366W        W19213  14.192  11.766  11.950 -0.0714  0.1746 -0.1980
 2367W        W19214  10.729  10.918   5.231  0.1523  0.0204  0.1124
 2368W        W19215  14.965   0.597  14.832 -0.0443  0.1016  0.2398
 2369W        W19216   0.877   1.436  11.668 -0.3227  0.0977  0.1568
 2370W        W19217   1.182  10.732   1.435  0.1465 -0.0903  0.1803
 2371W        W19218  14.469  10.817   4.111  0.2011  0.0005  0.2139
 2372W        W19219  16.682   0.839   2.126  0.2560  0.0650  0.0257
 2373W        W19220   6.804  14.821  15.587  0.0352  0.1576 -0.3214
 2374W        W19221   1.513  13.749  12.715  0.1181 -0.0607  0.0246
 2375W        W19222   1.299  18.086   4.180 -0.0871 -0.2439  0.2533
 2376W        W19223   2.045  14.242  15.884  0.1708  0.3809  0.2616
 2377W        W19224   4.533   3.815  12.253 -0.2328  0.0496 -0.1580
 2378W        W19225  17.497  14.036   3.190 -0.1881  0.0822 -0.4196
 2379W        W19226  14.303   2.280  14.453 -0.2537  0.0979 -0.2279
 2380W        W19227   5.046  14.134   3.259  0.1087 -0.1624 -0.1470
 2381W        W19228   6.537  11.944  15.504  0.1284  0.1101 -0.0131
 2382W        W19229   2.976   5.100   2.622 -0.0198  0.0264 -0.1373
 2383W        W19230   5.976   2.802   4.667 -0.0235  0.0564  0.0074
 2384W        W19231  15.652   8.945   3.659 -0.1855 -0.2645 -0.2294
 2385W        W19232  12.745   1.587  11.900 -0.1025 -0.0035  0.0893
 2386W        W19233   2.350   3.436   4.149 -0.0797  0.0135 -0.0070
 2387W        W19234   3.210   1.259   2.292 -0.0272 -0.1320 -0.0932
 2388W        W19235   5.830  15.891  13.309  0.2615  0.2305 -0.0695
 2389W        W19236   2.506   8.868   2.088  0.0434  0.0875  0.0306
 2390W        W19237  12.249  13.379   0.217 -0.0529 -0.2370  0.0074
 2391W        W19238  11.174   7.990  12.261 -0.1115 -0.0478  0.0087
 2392W        W19239  15.336   1.435   0.857 -0.1028  0.1749  0.2133
 2393W        W19240   2.465  12.387   5.700  0.2365 -0.2413  0.2249
 2394W        W19241   6.866  17.822  14.273 -0.0570  0.0161  0.1212
 2395W        W19242   9.276  16.314   2.994  0.2518  0.1120  0.3210
 2396W        W19243   5.605  13.611   2.686 -0.0089 -0.2627 -0.2501
 2397W        W19244  16.110   1.641   3.690  0.1107  0.0501 -0.1532
 2398W        W19245   7.854  17.784   2.502 -0.0494 -0.1660  0.3372
 2399W        W19246   5.916   6.932   2.260  0.3676 -0.1711 -0.4428
 2400W        W19247  14.945   8.140   1.060 -0.0662 -0.0877 -0.1074
 2401W        W19248   6.823   8.829  13.182  0.2216  0.1025  0.0927
 2402W        W19249  15.534  18.105  11.331 -0.0975 -0.1019 -0.1207
 2403W        W19250   5.472  15.518   2.316 -0.0631 -0.0939  0.3342
 2404W        W19251   1.215   6.286   1.869  0.3541  0.0848  0.1974
 2405W        W19252   5.434   5.772  12.528  0.2024 -0.0845 -0.4505
 2406W        W19253  12.262   2.201   2.065 -0.0118 -0.0733 -0.0273
 2407W        W19254   0.598   3.913  15.865 -0.0626  0.1643 -0.0935
 2408W        W19255   1.133   3.160   1.507  0.0748  0.4099 -0.2526
 2409W        W19256  12.286  15.019  12.001  0.1954  0.0697  0.2860
 2410W        W19257   3.665  16.075   4.045 -0.3087  0.1385  0.2381
 2411W        W19258   6.454   8.420   2.487 -0.2427 -0.0367 -0.1062
 2412W        W19259  16.194  14.861  15.734  0.1380 -0.1565  0.1394
 2413W        W19260  18.330  15.670   4.504  0.1456  0.2051  0.1412
 2414W        W19261  15.208  10.766   0.158  0.2138 -0.4629 -0.0035
 2415W        W19262  15.978   4.523   0.046  0.0182 -0.1242  0.1265
 2416W        W19263  15.910   5.378   3.011 -0.1668 -0.0139  0.0576
 2417W        W19264   5.899   9.005  15.340 -0.1076 -0.0598 -0.1312
 2418W        W19265   6.437   6.160   1.868  0.2284 -0.1356  0.1766
 2419W        W19266   4.070   0.013  14.004  0.3772 -0.1245  0.0072
 2420W        W19267   8.429   2.065   1.819 -0.1037  0.2235 -0.2800
 2421W        W19268   5.561  17.727  13.270 -0.0605 -0.3023 -0.3514
 2422W        W19269   1.038   3.839   1.887 -0.1038 -0.0614  0.0472
 2423W        W19270  17.028  16.431   2.238 -0.0104  0.1670 -0.2876
 2424W        W19271   1.965  13.856  13.065 -0.1328  0.1068 -0.0033
 2425W        W19272  10.147   2.421  14.329 -0.1146 -0.0185 -0.3434
 2426W        W19273  16.537   4.758  10.829 -0.1251  0.0350 -0.1706
 2427W        W19274  14.684   8.468  10.648  0.0408 -0.0508 -0.2290
 2428W        W19275  12.314   6.998   0.990 -0.0681 -0.0374  0.1344
 2429W        W19276  16.747   7.649  11.162 -0.0986  0.1402 -0.0590
 2430W        W19277  16.453   8.033  12.682  0.4074 -0.0486  0.3523
 2431W        W19278  11.045   0.551  13.369  0.1955  0.2772 -0.0103
 2432W        W19279  10.037  17.118  15.841 -0.0254 -0.1782 -0.0156
 2433W        W19280   9.786  17.536  13.958  0.2849  0.0971 -0.1661
 2434W        W19281  14.295  11.004  16.147 -0.0527  0.0847 -0.2720
 2435W        W19282  16.859   3.778   2.036 -0.2628  0.2164  0.0161
 2436W        W19283   8.196  13.771  14.796 -0.0156  0.0293  0.0089
 2437W        W19284  17.710   4.423  11.392 -0.1307 -0.1402  0.0722
 2438W        W19285   8.607   2.495  11.737 -0.2610 -0.0290 -0.1016
 2439W        W19286   6.615   7.607   5.242 -0.1805  0.1799 -0.0404
 2440W        W19287   3.177  10.383   2.175  0.1217  0.1750 -0.3653
 2441W        W19288   6.624  13.870   1.761  0.1597 -0.5090  0.1257
 2442W        W19289  13.059   3.990  10.797  0.2917  0.1651 -0.1365
 2443W        W19290  10.380   7.038  13.890 -0.1808 -0.1131 -0.1162
 2444W        W19291   4.041   5.730   0.743 -0.1110 -0.0871 -0.3131
 2445W        W19292   3.283  11.559   0.820 -0.0769  0.3803 -0.0440
 2446W        W19293  13.408  14.220   4.557  0.6304 -0.0264 -0.0605
 2447W        W19294   4.091   2.617  12.048 -0.2000  0.0669  0.2337
 2448W        W19295   3.735  11.289   0.540 -0.0225 -0.3155 -0.0105
 2449W        W19296   2.982   0.192   3.049  0.0730  0.2004 -0.0136
 2450W        W19297   0.686  11.997   5.178 -0.1022  0.3056  0.0920
 2451W        W19298  17.982  16.418  11.702  0.0799 -0.1143  0.1283
 2452W        W19299  10.471   0.781  14.011 -0.2118  0.0615  0.1643
 2453W        W19300   2.578  11.081  15.102 -0.0851 -0.1781  0.2208
 2454W        W19301  11.983   1.835  13.950  0.0289  0.0424 -0.2444
 2455W        W19302  15.613   5.834   1.038  0.1947 -0.1559 -0.3498
 2456W        W19303   0.398   9.649   0.442 -0.0145  0.1311  0.1047
 2457W        W19304  10.916   6.661  11.088  0.0409 -0.0234  0.1323
 2458W        W19305   1.845  16.003  14.466 -0.0232  0.1072 -0.1151
 2459W        W19306   1.229   7.034  13.224  0.1841  0.2112  0.0765
 2460W        W19307  14.295  15.014  13.362 -0.3486  0.3006  0.1549
 2461W        W19308  15.131   3.213   3.786 -0.1330 -0.0620  0.0979
 2462W        W19309   7.389  10.702   3.401 -0.3823  0.0197  0.1698
 2463W        W19310   5.757   0.402  16.044 -0.0014 -0.3114  0.0217
 2464W        W19311   5.393  12.143  12.966  0.3301  0.0955 -0.0357
 2465W        W19312   7.140  18.264   3.172  0.2313 -0.0968  0.2720
 2466W        W19313   4.517  11.415   0.691 -0.0698 -0.1725 -0.1710
 2467W        W19314  11.045   4.335  10.768 -0.0253  0.1790  0.1486
 2468W        W19315   1.542   4.833  12.971  0.1067  0.1609 -0.1452
 2469W        W19316   7.763   5.203   4.976  0.4541 -0.1453  0.2033
 2470W        W19317   9.469  14.775   0.679 -0.0045  0.1029 -0.4014
 2471W        W19318  15.887  12.755  11.048 -0.1661 -0.0647  0.1290
 2472W        W19319   7.103  16.013  14.662  0.1160 -0.0112  0.2921
 2473W        W19320   1.320  11.016  13.021 -0.2619  0.1524  0.1740
 2474W        W19321  10.503   5.181  11.730 -0.1524 -0.0396  0.1458
 2475W        W19322  14.101  16.321   5.101  0.1665 -0.1998 -0.1251
 2476W        W19323   0.268  16.845   5.061 -0.1816 -0.1868  0.0035
 2477W        W19324  14.604   8.902   1.226  0.0523 -0.3151  0.1925
 2478W        W19325  16.241   9.646  13.734  0.1394  0.2031  0.1285
 2479W        W19326  12.692  12.099  16.000  0.3009  0.0722  0.0094
 2480W        W19327   5.782  10.696   3.886  0.2281  0.2531 -0.3149
 2481W        W19328  14.819   1.741   1.555 -0.0229 -0.0694  0.0611
 2482W        W19329   0.728  11.575  13.750  0.1041  0.0814  0.0805
 2483W        W19330  11.521   0.674  14.752 -0.2399  0.3768  0.0003
 2484W        W19331   2.802   2.431   4.964  0.0446  0.0106  0.1050
 2485W        W19332   2.234  11.708  15.502 -0.0045 -0.1350 -0.2379
 2486W        W19333   6.091  15.979   5.938 -0.0744  0.0556 -0.1114
 2487W        W19334  17.519   3.028  15.297  0.1522 -0.2227  0.0165
 2488W        W19335  15.291   3.418   0.727  0.4288  0.5160 -0.0476
 2489W        W19336   2.203   1.686  13.030 -0.1468 -0.1505 -0.1318
 2490W        W19337  15.992  15.507  14.985  0.1069 -0.0517 -0.0478
 2491W        W19338   2.146   8.428   3.140  0.0129  0.0353 -0.1983
 2492W        W19339   6.220  13.210  15.301 -0.0640  0.3754  0.0158
 2493W        W19340  15.637  10.434  11.932  0.0631 -0.1639 -0.3052
 2494W        W19341   2.093  13.685   5.866 -0.1935 -0.1430  0.0511
 2495W        W19342   6.974  11.156   2.629 -0.2962 -0.0917  0.1485
 2496W        W19343   0.440  17.192  14.682 -0.1151 -0.0979  0.1701
 2497W        W19344   5.068  17.573  15.129 -0.0365  0.3953  0.0415
 2498W        W19345   6.080   8.213  11.597 -0.1863  0.0694  0.4982
 2499W        W19346  17.783  13.621   4.555  0.1117  0.1305  0.1314
 2500W        W19347   3.001  13.540   1.853 -0.2197  0.0838  0.0399
 2501W        W19348  18.255  13.572   4.286  0.0203  0.1226  0.0687
 2502W        W19349  16.873   1.236   1.842 -0.3425  0.0309 -0.0773
 2503W        W19350  14.691  12.087  11.814  0.0181  0.1857  0.2669
 2504W        W19351   4.676  15.598   1.844 -0.1621  0.2496  0.2821
 2505W        W19352   3.375   4.314  13.581  0.1344  0.2316 -0.2181
 2506W        W19353   6.192  15.668   3.720  0.1670 -0.0848 -0.0598
 2507W        W19354  15.603  12.269   2.783  0.0389  0.2726 -0.2117
 2508W        W19355   5.279   2.829  15.074  0.1210 -0.1028  0.3544
 2509W        W19356   1.431   3.201   4.125  0.1163 -0.2861  0.0444
 2510W        W19357  12.979   3.971  11.370  0.1964 -0.0841  0.3596
 2511W        W19358   7.664   1.999  14.240 -0.0603  0.1621 -0.1451
 2512W        W19359   7.977   9.855  14.305  0.2177 -0.1052 -0.0066
 2513W        W19360  16.095   3.002  10.530 -0.0233  0.0907  0.0603
 2514W        W19361   1.036   9.307   4.400  0.1642  0.1691 -0.0521
 2515W        W19362  14.491   3.678  11.734 -0.1692 -0.2431 -0.1115
 2516W        W19363  17.875   5.817  14.438 -0.1306 -0.1289  0.1721
 2517W        W19364  15.693   9.696  12.986 -0.0647 -0.1794 -0.1346
 2518W        W19365  14.799   2.866  12.111 -0.2142 -0.3143  0.3130
 2519W        W19366  11.096   7.099  11.719 -0.1796 -0.0444 -0.2476
 2520W        W19367   8.230  13.049  11.672  0.1360 -0.2703 -0.2466
 2521W        W19368   2.495  15.961   2.427  0.1688  0.1014 -0.3024
 2522W        W19369  15.230   2.040   5.494 -0.1337 -0.3203 -0.2251
 2523W        W19370  11.920  12.676   5.480 -0.1007 -0.3342  0.0276
 2524W        W19371   2.535  13.553   1.590  0.1386  0.0385 -0.3257
 2525W        W19372  17.768  11.539   3.343  0.1343 -0.2296  0.0535
 2526W        W19373   5.175  12.833  13.808  0.0347  0.3737 -0.0708
 2527W        W19374  15.483  17.304   3.438 -0.0396  0.0279 -0.2227
 2528W        W19375   6.336  18.187  10.827 -0.2299  0.0038 -0.2761
 2529W        W19376  15.843   4.407   2.945 -0.1986 -0.0596  0.2540
 2530W        W19377   6.613   0.667  14.919 -0.1739  0.0877 -0.0854
 2531W        W19378   0.788   4.752  15.368  0.0423 -0.2274  0.1036
 2532W        W19379  14.184  12.692  15.437 -0.1079  0.0525 -0.3709
 2533W        W19380  13.931   9.667  13.234 -0.1019  0.1795  0.0754
 2534W        W19381  10.104   9.567   2.427  0.1374  0.0161 -0.1500
 2535W        W19382  17.981  15.126  11.164 -0.0282  0.0070 -0.0304
 2536W        W19383   5.402   3.465   5.529  0.3397  0.2389 -0.0764
 2537W        W19384  11.885  15.765   4.354  0.0145  0.2097 -0.1607
 2538W        W19385  15.561  18.315  15.771 -0.1485 -0.0163 -0.2534
 2539W        W19386  17.948   1.006  14.220  0.3079  0.1054 -0.1912
 2540W        W19387  11.997   2.007  14.849  0.1220  0.1376  0.3432
 2541W        W19388  18.129  10.127   4.930  0.3245 -0.0827 -0.0050
 2542W        W19389  12.134  13.574   5.158  0.2557 -0.1113  0.1046
 2543W        W19390  10.252  16.777   0.568 -0.0019  0.2802 -0.1244
 2544W        W19391   9.324   8.286  12.173 -0.1412  0.2934  0.4091
 2545W        W19392  13.825   5.183  11.448 -0.0774  0.0965 -0.1009
 2546W        W19393  11.672  12.925   2.719  0.2208 -0.1914 -0.2518
 2547W        W19394  15.368  14.122   4.855 -0.0973 -0.1934 -0.2764
 2548W        W19395   0.031   4.358   4.261 -0.1423  0.0346 -0.0674
 2549W        W19396   3.673  10.645  13.695 -0.2282 -0.2201 -0.2979
 2550W        W19397   5.831  14.239  15.156 -0.4118  0.1338 -0.1126
 2551W        W19398   5.151   5.281  13.281 -0.1152  0.0175 -0.1018
 2552W        W19399  10.560   6.791  15.019 -0.0844 -0.2205  0.0483
 2553W        W19400   1.200   5.894  12.373 -0.2638  0.0166 -0.0276
 2554W        W19401   9.544  15.057   5.144 -0.2941  0.0762 -0.0003
 2555W        W19402   8.229  10.339  13.993  0.0305  0.2500  0.1100
 2556W        W19403  11.435   9.906   2.303 -0.0578 -0.2161  0.0448
 2557W        W19404   8.551  10.677   1.426 -0.0649  0.1977 -0.1200
 2558W        W19405   1.067  16.208  13.836  0.0032  0.0360  0.1895
 2559W        W19406   1.742  16.949   4.035 -0.0679  0.0662 -0.0446
 2560W        W19407   1.792  18.322  11.549 -0.0282 -0.1308 -0.3448
 2561W        W19408   5.911   0.388  14.538  0.1290 -0.0615  0.2630
 2562W        W19409  13.285   7.134   3.085  0.2394  0.1809  0.0760
 2563W        W19410  14.605  12.848   1.382  0.0386  0.2191  0.3504
 2564W        W19411   2.383  12.197   1.545  0.2806 -0.0105 -0.0476
 2565W        W19412  15.806   3.108   0.247  0.2333 -0.3778  0.0958
 2566W        W19413   3.982   0.987  12.362 -0.2451  0.0272  0.0023
 2567W        W19414  13.819  14.095   1.683 -0.2263  0.1258  0.3318
 2568W        W19415   3.211   2.369   0.035 -0.2165  0.0870  0.2626
 2569W        W19416   9.468   1.972  10.906  0.0224  0.1560 -0.0122
 2570W        W19417   6.226  13.085   3.585  0.5958  0.0464 -0.0350
 2571W        W19418   4.153   1.825  13.177 -0.0923  0.1096 -0.1280
 2572W        W19419   3.271   5.882  15.195 -0.0290  0.0360  0.3417
 2573W        W19420   8.030   3.340  10.372 -0.3476 -0.1322  0.1166
 2574W        W19421   6.191   7.758  11.465 -0.1922 -0.0282  0.0356
 2575W        W19422  16.368   0.850  13.293  0.3727 -0.1083  0.0600
 2576W        W19423  15.646  15.126  13.021 -0.2965 -0.0151 -0.0320
 2577W        W19424   8.184  18.110  12.834  0.1451  0.0824  0.0959
 2578W        W19425  10.370   9.432   4.149  0.1240 -0.1820 -0.2933
 2579W        W19426  14.715   6.791  12.443  0.1624 -0.0675  0.1327
 2580W        W19427   0.524  12.946   3.066 -0.0666  0.1747 -0.2289
 2581W        W19428   8.797   9.302   2.704 -0.1751  0.1399 -0.3416
 2582W        W19429  17.914   2.640   5.004  0.1827 -0.0260 -0.0540
 2583W        W19430  17.548  10.291  13.234  0.0151  0.0780 -0.3483
 2584W        W19431   7.203   6.282   2.528 -0.2166  0.1366 -0.1345
 2585W        W19432  10.970   1.371  12.074 -0.0543 -0.4554  0.1532
 2586W        W19433  10.001  14.296  12.301 -0.2638  0.1025 -0.1190
 2587W        W19434  15.267  12.485  14.357  0.2023  0.0282  0.0450
 2588W        W19435   4.649   6.448  15.612  0.0871 -0.2084 -0.0018
 2589W        W19436   2.612  17.322  14.929 -0.2075  0.0252  0.2529
 2590W        W19437   4.463  16.185  15.530  0.2276  0.1149  0.3794
 2591W        W19438   2.493  15.291   3.504 -0.0162 -0.1627  0.0658
 2592W        W19439   1.807   9.614  12.977 -0.0675 -0.0402  0.0660
 2593W        W19440   0.089   7.732   1.731  0.2137  0.1057 -0.1354
 2594W        W19441   6.146  12.565   0.090 -0.1651  0.0215 -0.0210
 2595W        W19442   5.073   5.493   3.302  0.1956  0.1499 -0.4065
 2596W        W19443   9.377  16.416  11.364  0.2203 -0.0786  0.0222
 2597W        W19444  16.433   2.691  13.247  0.1420 -0.0123 -0.0883
 2598W        W19445   0.934  11.761  11.524 -0.1181 -0.0531  0.2110
 2599W        W19446   9.846  16.839  11.483  0.2080 -0.0868  0.2410
 2600W        W19447   0.678   1.344  14.767  0.1615  0.1620 -0.0302
 2601W        W19448  17.159  15.924   5.142  0.1584 -0.0466 -0.0345
 2602W        W19449   7.265  15.501  13.963  0.0180  0.1313 -0.1661
 2603W        W19450   7.425   9.725  12.797  0.1512 -0.0595  0.1068
 2604W        W19451   5.648   4.522   1.213 -0.3427 -0.0734  0.4584
 2605W        W19452  16.333  15.618  11.947 -0.2672  0.3712 -0.2363
 2606W        W19453  11.878  16.296  12.504  0.1495 -0.3126 -0.1349
 2607W        W19454   3.470   8.690  13.017  0.2245  0.2250 -0.0028
 2608W        W19455   2.897   4.542  12.708  0.3908 -0.1971 -0.0119
 2609W        W19456   2.037  17.591   1.298 -0.1096  0.3547 -0.2455
 2610W        W19457   7.822  10.809   4.726 -0.0214  0.1697 -0.0724
 2611W        W19458  16.045   6.047   2.427 -0.1043 -0.1072 -0.0077
 2612W        W19459  12.832   8.570   0.087 -0.3548 -0.0145 -0.2100
 2613W        W19460  12.749   5.800  14.375 -0.0624  0.0639 -0.1174
 2614W        W19461   4.750   4.848  12.363  0.3274 -0.0069  0.1429
 2615W        W19462  11.956  14.294  12.476  0.0054 -0.1594  0.2386
 2616W        W19463  14.514  18.039   2.688 -0.3003 -0.1977  0.0206
 2617W        W19464  13.009  14.516   4.661  0.2465 -0.1998  0.1022
 2618W        W19465  12.989  14.185  15.713  0.0958  0.0012 -0.2369
 2619W        W19466   4.802   8.046   5.541  0.2364 -0.0546  0.2376
 2620W        W19467   1.371  11.498   2.005 -0.1426  0.1001 -0.0366
 2621W        W19468  16.190   4.338   0.434 -0.0554  0.1860 -0.3217
 2622W        W19469   7.900  15.963   1.354 -0.0213 -0.2816  0.3143
 2623W        W19470   8.267   0.514   3.954  0.2635  0.0588 -0.2677
 2624W        W19471  10.948   1.211  15.135 -0.0317 -0.0782 -0.1175
 2625W        W19472  11.178  12.383   4.632 -0.0752  0.2007 -0.1530
 2626W        W19473  13.735   6.955  12.472  0.0781 -0.2514  0.3542
 2627W        W19474   3.181   5.350  15.891  0.1748 -0.0580  0.1277
 2628W        W19475   3.841   6.456   4.252 -0.5103 -0.1618 -0.1363
 2629W        W19476  17.135   5.985   2.366 -0.1636 -0.3225 -0.0004
 2630W        W19477  14.803   4.090   9.978  0.2240  0.1549 -0.1238
 2631W        W19478   4.063   0.465  11.127  0.1003  0.3319 -0.2779
 2632W        W19479  12.615  12.298   0.657 -0.2621 -0.0067 -0.1347
 2633W        W19480   5.989   2.953  14.016  0.0655 -0.2470  0.1783
 2634W        W19481  14.060  13.265  13.508  0.0932 -0.2224  0.3589
 2635W        W19482  15.393   0.217  14.968  0.0353 -0.2922 -0.0057
 2636W        W19483  14.664  12.196  13.856  0.2000  0.0057  0.1361
 2637W        W19484  10.516   0.391  12.217 -0.0930  0.2717  0.0964
 2638W        W19485  11.444   5.161   4.997  0.2200  0.0629 -0.2226
 2639W        W19486   3.269  15.332   5.097  0.2457 -0.1221  0.1751
 2640W        W19487  11.373  14.973  14.851  0.1563 -0.0026  0.3331
 2641W        W19488  11.549  16.788   5.232  0.1795  0.2276 -0.0960
 2642W        W19489   4.958  10.277  10.905 -0.2994  0.0015 -0.0414
 2643W        W19490   0.091   8.810  12.098 -0.0961  0.3326  0.0541
 2644W        W19491  18.243   8.302   5.130  0.2240  0.3875 -0.0102
 2645W        W19492  11.321  14.069   1.296  0.1870 -0.1105  0.0502
 2646W        W19493  10.169   9.706  14.325 -0.0818  0.1273  0.2562
 2647W        W19494   9.060  11.536   4.183 -0.1261  0.2546  0.0359
 2648W        W19495  11.619   6.097   4.751 -0.2301  0.1444 -0.1042
 2649W        W19496   5.188   6.352   5.156  0.1688 -0.1515  0.2539
 2650W        W19497  17.573  17.722   0.859  0.0610  0.2556  0.0695
 2651W        W19498  17.095   9.094   5.218  0.1813 -0.1084  0.0589
 2652W        W19499   8.541  17.515   4.143 -0.0335 -0.3031  0.0210
 2653W        W19500  15.832  14.848  13.626 -0.4564 -0.1334 -0.2956
 2654W        W19501   3.197   6.584   3.545  0.0644 -0.2060 -0.2684
 2655W        W19502  14.160   8.077   0.491  0.0556 -0.2039  0.2861
 2656W        W19503  12.206  10.631   0.338  0.1517  0.1905 -0.0095
 2657W        W19504   5.749   0.400   4.030  0.0714 -0.0338 -0.0922
 2658W        W19505  12.833  12.664   1.806 -0.0503 -0.1393  0.3079
 2659W        W19506   2.627  14.291  15.819 -0.0787  0.0785  0.1992
 2660W        W19507  13.005   4.716   2.883  0.1271 -0.3684 -0.2301
 2661W        W19508  17.592   8.829   4.528  0.0999 -0.0436  0.0337
 2662W        W19509   7.180  15.139  14.360  0.0156 -0.1323 -0.3027
 2663W        W19510   8.658   4.415  13.624  0.0089 -0.0953 -0.2885
 2664W        W19511   6.340   6.140  12.523 -0.1126  0.1414 -0.1994
 2665W        W19512  10.453  10.181  14.502  0.2794  0.4407  0.0300
 2666W        W19513   1.395  12.058  11.177 -0.0385  0.2665  0.0996
 2667W        W19514  12.329   5.091  13.199  0.1510  0.5034 -0.2408
 2668W        W19515  16.386  16.439  12.051  0.1868 -0.1812 -0.1360
 2669W        W19516  13.354   2.974  15.370 -0.4763 -0.1527 -0.0992
 2670W        W19517  17.793   4.806  16.076  0.0087  0.0434  0.0658
 2671W        W19518  11.439   2.142   2.933 -0.2238 -0.1678 -0.6043
 2672W        W19519   2.152  18.241   3.657 -0.0822 -0.0559 -0.0083
 2673W        W19520   3.276  16.206  15.756  0.1046  0.2718 -0.1836
 2674W        W19521   7.957   4.146  15.311  0.0613 -0.0826 -0.1338
 2675W        W19522   0.408  14.580   0.874  0.0701 -0.0113  0.0539
 2676W        W19523   3.235   5.803  12.800 -0.4071 -0.1072 -0.1778
 2677W        W19524   3.345  11.860   1.180 -0.3269 -0.0612  0.0963
 2678W        W19525   3.566   4.410  13.119 -0.0436 -0.0723  0.3287
 2679W        W19526   4.107   4.526  13.462  0.5893  0.2488 -0.0876
 2680W        W19527  16.158  15.311   2.016  0.0028 -0.2949 -0.2114
 2681W        W19528   8.293  11.911   3.626 -0.1975 -0.1401 -0.1062
 2682W        W19529   9.385   6.261   5.324  0.0784 -0.2533  0.4089
 2683W        W19530   6.145   1.327   3.738 -0.3641  0.3560 -0.1978
 2684W        W19531   2.271   4.871  12.278 -0.2508 -0.2019  0.1957
 2685W        W19532  17.020  10.982   4.516  0.2579 -0.4492 -0.2577
 2686W        W19533  14.029   1.176   2.875  0.1405 -0.1238 -0.2212
 2687W        W19534   9.839   4.539  15.109 -0.1060  0.2132 -0.3183
 2688W        W19535  15.523  12.443   1.145  0.0577 -0.0514 -0.0147
 2689W        W19536   0.069  14.793   3.269 -0.1204 -0.1232 -0.0251
 2690W        W19537   3.266   1.485  14.870 -0.1394  0.0361 -0.1484
 2691W        W19538   7.153   5.839   3.538  0.0568  0.0854 -0.3546
 2692W        W19539   5.672   7.155  14.429 -0.3785 -0.0290  0.0694
 2693W        W19540   3.152   4.371   1.184 -0.3614  0.2176  0.1500
 2694W        W19541  12.095  13.857   2.344  0.1294 -0.3099  0.1413
 2695W        W19542  16.845   9.640  13.668 -0.3235  0.0585 -0.0641
 2696W        W19543  11.539   7.312  12.594  0.1684 -0.0207 -0.3298
 2697W        W19544   3.290  18.154  12.791 -0.1097 -0.2325 -0.0153
 2698W        W19545   7.165   9.036   5.188  0.3105 -0.1005  0.2980
 2699W        W19546  17.592  11.384  13.021  0.0490 -0.0136  0.0722
 2700W        W19547  12.656  14.019  12.774 -0.1460 -0.4057 -0.1324
 2701W        W19548   6.110   3.450  12.201 -0.1201  0.2233 -0.0371
 2702W        W19549   2.373  15.712  11.728 -0.1251 -0.0084 -0.0091
 2703W        W19550  11.215  15.036   1.908  0.2708 -0.1833 -0.1324
 2704W        W19551   4.833   0.935  14.345  0.0982 -0.1212 -0.0316
 2705W        W19552  15.085  16.825  10.580 -0.0533  0.1230  0.0864
 2706W        W19553  13.540  10.675   0.363 -0.1485 -0.1012 -0.2984
 2707W        W19554   4.856   1.974   0.060  0.2598 -0.0564  0.1303
 2708W        W19555  10.544  16.894   5.191 -0.1423 -0.1627  0.0309
 2709W        W19556  12.142  13.704   3.987 -0.0091  0.1050  0.1138
 2710W        W19557  16.272  10.642  14.592 -0.0382  0.2255  0.0117
 2711W        W19558   0.688   6.612   0.074 -0.0196 -0.1879 -0.0742
 2712W        W19559   1.058   1.410   1.236  0.0907 -0.0863  0.0420
 2713W        W19560   7.711   2.854  15.975 -0.0649  0.1838  0.1536
 2714W        W19561   7.044  13.343   6.107  0.2971  0.1933 -0.0299
 2715W        W19562   1.846   6.728  13.660 -0.0952  0.0918  0.1075
 2716W        W19563   1.533  15.005   2.355  0.1292 -0.1301 -0.2370
 2717W        W19564  15.560  16.505  12.844  0.0174 -0.2541  0.0133
 2718W        W19565  13.467  11.952   1.759 -0.1247  0.3374 -0.0964
 2719W        W19566   9.071   5.398   4.801 -0.1012 -0.2167 -0.0334
 2720W        W19567  10.027   7.114   0.632 -0.0266  0.1101 -0.0766
 2721W        W19568   2.455  12.970  15.623 -0.0800 -0.0351 -0.0759
 2722W        W19569  16.035   2.725  16.134  0.1456 -0.0626  0.0806
 2723W        W19570  13.730  12.824   1.624 -0.0418  0.3839 -0.0721
 2724W        W19571  12.275   9.745   0.651  0.0519 -0.0007  0.0455
 2725W        W19572  10.262   8.670   1.524  0.0532 -0.0996 -0.0939
 2726W        W19573   7.380  16.300   1.333 -0.2013  0.1721  0.0076
 2727W        W19574  12.762   7.168  15.364 -0.1999 -0.2534 -0.1401
 2728W        W19575  15.942   4.507   2.001  0.2742  0.0044  0.1435
 2729W        W19576   6.326  16.513  13.656  0.0941 -0.0589  0.1326
 2730W        W19577  17.816  10.549  11.986 -0.1506 -0.0003 -0.1964
 2731W        W19578   5.232  13.415   2.488 -0.0002  0.1725  0.1348
 2732W        W19579  14.541  12.017  13.369 -0.0186 -0.0102 -0.2857
 2733W        W19580  10.326  16.138  11.571 -0.1905 -0.1794  0.1760
 2734W        W19581  13.313  14.487   2.203 -0.1204 -0.0010 -0.0149
 2735W        W19582   2.355   5.231   5.605  0.0828  0.0983 -0.3034
 2736W        W19583   2.368  15.778   3.476  0.0630  0.2430 -0.2150
 2737W        W19584   0.102   2.750   2.058  0.1336 -0.1119  0.2263
 2738W        W19585  10.782   4.732   3.062  0.1432 -0.1704  0.1273
 2739W        W19586  16.698  14.152   3.440 -0.5628 -0.2253 -0.1059
 2740W        W19587   7.659  14.976   0.787  0.2359 -0.0574  0.0238
 2741W        W19588  11.245  10.740  11.765 -0.0292 -0.0273  0.0331
 2742W        W19589  11.198   9.351   2.656 -0.0177  0.0595  0.2531
 2743W        W19590   4.328  18.288  13.449 -0.0846 -0.0754 -0.0609
 2744W        W19591   6.299   8.357  14.603 -0.1722 -0.0501 -0.0449
 2745W        W19592  12.568   3.750   0.401  0.0475 -0.3362 -0.0502
 2746W        W19593  17.524  17.870   2.582 -0.3461  0.0842  0.0356
 2747W        W19594   6.111   6.779   5.409 -0.2287  0.3504 -0.2989
 2748W        W19595   1.759  14.359   3.445  0.0072  0.2640 -0.1852
 2749W        W19596  16.652  15.682   0.503 -0.3114  0.0052 -0.1829
 2750W        W19597   6.708  17.935  12.991  0.1410 -0.4019 -0.0787
 2751W        W19598  15.937   0.210   1.098 -0.1299  0.3826  0.0547
 2752W        W19599  10.547  11.315  12.872  0.0509 -0.1212  0.1549
 2753W        W19600  16.486   6.034   0.729  0.2453 -0.2108  0.0293
 2754W        W19601   7.250   5.058  13.777  0.2821  0.1708 -0.2034
 2755W        W19602   5.880   8.559  12.772  0.0245  0.3479  0.0043
 2756W        W19603   7.547   7.723  15.557 -0.0422 -0.0034  0.0134
 2757W        W19604   4.154  17.086  14.305 -0.2235 -0.0361 -0.1462
 2758W        W19605  14.373   2.093   1.493  0.1112  0.1142  0.1259
 2759W        W19606  17.295  18.204   1.848 -0.0878 -0.0192 -0.3440
 2760W        W19607  12.284  11.933   0.799 -0.1602 -0.0209  0.2484
 2761W        W19608  12.853   4.902  10.434  0.1288 -0.1319 -0.0953
 2762W        W19609   7.361   1.747  14.590 -0.1717  0.0839 -0.1205
 2763W        W19610   3.510  17.883  15.626 -0.0062 -0.2377  0.0376
 2764W        W19611  10.909   4.238   0.891 -0.0373 -0.1527  0.1433
 2765W        W19612  16.704   7.273   2.242 -0.1667  0.1431 -0.0801
 2766W        W19613  13.857  14.229   4.160 -0.2265  0.1842  0.0393
 2767W        W19614   4.994  14.432  13.801  0.0448 -0.0161  0.1628
 2768W        W19615   4.753   1.381  13.056  0.1211  0.0777  0.1336
 2769W        W19616  17.161   0.938   3.820  0.2823 -0.3559 -0.5022
 2770W        W19617  15.050  12.291  10.214 -0.0145 -0.1968 -0.0364
 2771W        W19618   6.308   0.467   1.531  0.3409 -0.0362  0.0366
 2772W        W19619   2.795  17.458  10.813 -0.1430 -0.1322 -0.0367
 2773W        W19620   0.657   3.023   9.998 -0.0130  0.0353  0.0610
 2774W        W19621   5.388  13.328  14.931  0.2544  0.0280 -0.0191
 2775W        W19622   2.502   8.166   2.598  0.0035  0.1119 -0.1382
 2776W        W19623   2.145  17.259  14.495 -0.0511 -0.2687  0.1119
 2777W        W19624   1.563  12.313  13.326 -0.3381  0.1930  0.0901
 2778W        W19625  16.043   0.840  14.718 -0.0849 -0.0466 -0.2451
 2779W        W19626  11.508  11.405   1.236 -0.0276  0.1336  0.0434
 2780W        W19627   0.825   9.672  12.692 -0.1123  0.2431  0.1289
 2781W        W19628   1.911  12.511   3.004 -0.0748 -0.1506 -0.1233
 2782W        W19629   1.840   0.701   0.432 -0.2675  0.1037 -0.0287
 2783W        W19630   6.184   5.398   4.595  0.4224  0.1333 -0.0291
 2784W        W19631  14.226  10.237   0.070 -0.1303  0.2661 -0.3408
 2785W        W19632   0.337  16.459   4.471 -0.1669 -0.2061 -0.1903
 2786W        W19633   8.124   4.189   2.673  0.1797  0.1428 -0.0585
 2787W        W19634   3.118   4.952   2.040  0.1046 -0.2010  0.0855
 2788W        W19635   7.524  17.515   0.857  0.1314 -0.1226  0.0082
 2789W        W19636   8.086  17.285  15.598 -0.0820  0.2021 -0.1184
 2790W        W19637  10.623  14.980   5.911 -0.1420  0.0956  0.1101
 2791W        W19638   4.644   5.549  13.354  0.0146  0.1144  0.2997
 2792W        W19639  11.752  13.533   0.012  0.1260  0.0580 -0.2059
 2793W        W19640  15.402   3.925   0.696 -0.2246  0.4251  0.1977
 2794W        W19641  15.493   4.724   2.254  0.0618 -0.1559 -0.4323
 2795W        W19642  15.165  13.332  13.834  0.0707  0.1632  0.3437
 2796W        W19643   0.410  18.298  16.129 -0.2700 -0.2059  0.1651
 2797W        W19644   5.646  12.308   2.428 -0.1856  0.2194  0.0353
 2798W        W19645  15.941   2.573   1.976  0.3244 -0.2036 -0.3685
 2799W        W19646   7.847  10.809  13.411  0.1607  0.1009 -0.0802
 2800W        W19647   4.467  13.099  12.093 -0.0676 -0.0855 -0.4010
 2801W        W19648   2.287   2.935  14.024  0.0623  0.0515 -0.0208
 2802W        W19649   9.690  17.751   5.500  0.1385  0.0914 -0.0358
 2803W        W19650  14.836   1.512  11.216  0.4232 -0.1020  0.0604
 2804W        W19651  15.733   9.740   1.693  0.0507  0.2013  0.1214
 2805W        W19652  13.986   3.843  10.544 -0.2414 -0.0885  0.2786
 2806W        W19653  13.729   7.800  12.006  0.1580  0.2840  0.2228
 2807W        W19654   9.841  14.478   4.050 -0.0452 -0.1314  0.0049
 2808W        W19655   8.260   9.543  13.191  0.0324  0.1386  0.0487
 2809W        W19656   8.946  16.961  15.681 -0.0567 -0.1358 -0.0351
 2810W        W19657  10.900   3.580  12.566  0.1518 -0.0808  0.0249
 2811W        W19658   0.453  10.214   3.211  0.3495 -0.1524 -0.1073
 2812W        W19659   6.500  10.276   4.931 -0.3388 -0.1634  0.0382
 2813W        W19660  16.057   8.531  12.096  0.1723  0.0873 -0.0999
 2814W        W19661   7.007  16.442  13.804  0.1474  0.1074 -0.2187
 2815W        W19662  11.740   2.874   2.565  0.0973 -0.1369  0.0676
 2816W        W19663  10.666   5.037   4.664 -0.3615  0.1247 -0.2037
 2817W        W19664   6.400  11.715   3.935  0.2171  0.0916 -0.0108
 2818W        W19665  16.957  10.686   3.480  0.0235 -0.2134  0.0122
 2819W        W19666   9.091   4.490  12.091  0.1867  0.0181  0.0025
 2820W        W19667  15.559  15.194  14.121  0.0583  0.0092  0.4039
 2821W        W19668  16.168   0.805   0.566  0.0366  0.2408  0.2641
 2822W        W19669  17.574   2.014  16.179  0.5185 -0.2552  0.0808
 2823W        W19670  13.582   9.783  11.441  0.1198  0.0299  0.0272
 2824W        W19671  14.242   0.679   0.969 -0.2912 -0.2630 -0.2442
 2825W        W19672   0.406   5.465   1.171  0.1969 -0.2837  0.0444
 2826W        W19673  14.390  10.515   0.423 -0.0250  0.0487 -0.1081
 2827W        W19674   8.292  10.791  15.672  0.0458  0.4078  0.4672
 2828W        W19675   1.188   6.133   4.449 -0.0484 -0.0180  0.5522
 2829W        W19676  16.093  13.980  14.662 -0.0358 -0.2400 -0.2658
 2830W        W19677  17.624  13.756   3.614 -0.1160 -0.1024 -0.0212
 2831W        W19678  17.504   8.667   2.081 -0.1937 -0.2423  0.1469
 2832W        W19679  17.170   6.303   3.995 -0.2309 -0.0277  0.2262
 2833W        W19680   8.865  12.246  14.441 -0.0196  0.0435 -0.2244
 2834W        W19681   8.871   6.454  14.517 -0.1045  0.1302  0.0601
 2835W        W19682   3.499  13.391  11.097  0.0968  0.0200  0.0659
 2836W        W19683   3.821   3.917   5.385  0.1391 -0.4394  0.0406
 2837W        W19684  14.684  13.597  11.523 -0.1233 -0.2161  0.1260
 2838W        W19685   9.132   1.662   2.888  0.2339  0.2300 -0.0208
 2839W        W19686   6.334  10.892   5.560 -0.2105 -0.2286  0.0761
 2840W        W19687   6.594   1.052  13.657 -0.0416 -0.2795 -0.1951
 2841W        W19688   6.207   2.480  13.065  0.0927 -0.3381 -0.3294
 2842W        W19689  10.218  13.482  12.377  0.1899  0.1000  0.0183
 2843W        W19690   8.795   1.240   1.692 -0.1326 -0.0279  0.0371
 2844W        W19691   6.521   6.903   5.682 -0.1044  0.3367  0.1139
 2845W        W19692  14.543   7.768   0.204 -0.3323  0.0822 -0.1371
 2846W        W19693   7.975   1.975   3.409 -0.1297 -0.0187 -0.0995
 2847W        W19694  13.732   4.069   3.227 -0.0950 -0.0641  0.0618
 2848W        W19695  17.750  17.826  12.901  0.1114 -0.1960 -0.4342
 2849W        W19696   0.918  13.298   1.148  0.1976 -0.1164  0.1482
 2850W        W19697   6.703   4.119  15.970  0.0689 -0.1640  0.2355
 2851W        W19698  17.014  12.237  14.923 -0.2738 -0.2157 -0.1289
 2852W        W19699   7.331  17.517  14.522  0.4288  0.3472  0.0122
 2853W        W19700   7.695   1.190  12.657  0.2525  0.0667  0.2912
 2854W        W19701   0.074   6.566   0.689 -0.0122 -0.0826  0.2711
 2855W        W19702   7.369   5.627   0.955  0.2287  0.0862 -0.0615
 2856W        W19703  11.484   0.781   4.973 -0.0696  0.4968 -0.2219
 2857W        W19704   8.113  17.238   4.022  0.0701 -0.2773  0.1313
 2858W        W19705  15.227   9.627  14.872  0.1022 -0.1929 -0.2007
 2859W        W19706  15.118   2.490  12.979 -0.0639  0.0185 -0.0470
 2860W        W19707   3.872  16.423  12.496 -0.1025  0.3219 -0.2240
 2861W        W19708  16.119  11.114  14.557 -0.1373 -0.2893 -0.4410
 2862W        W19709  16.257  16.197   1.927 -0.1133 -0.0007 -0.0825
 2863W        W19710   1.131  10.597  15.661  0.1799 -0.1901  0.2060
 2864W        W19711  16.763   6.199  11.962  0.1017  0.1170  0.2694
 2865W        W19712   8.829  12.802  13.088 -0.0962  0.3238  0.1492
 2866W        W19713  16.561   3.026   3.987  0.0393 -0.3984  0.3402
 2867W        W19714   5.887  15.060   2.613  0.0114 -0.1104 -0.2388
 2868W        W19715  17.157   8.463   1.701  0.2147  0.1570  0.0238
 2869W        W19716   7.505  12.872  13.587  0.0872 -0.0229  0.0310
 2870W        W19717   2.892   9.406   3.559 -0.2154  0.3065 -0.0983
 2871W        W19718   0.462  10.922  16.034  0.0204  0.0132  0.1319
 2872W        W19719  12.740   8.110  12.895 -0.0505 -0.0121  0.2277
 2873W        W19720   1.349  14.456   2.250 -0.1811 -0.2386 -0.2807
 2874W        W19721  10.032   8.451  14.597 -0.0209  0.1362  0.1540
 2875W        W19722  14.009  15.420  15.238  0.1747  0.1674 -0.0608
 2876W        W19723   4.911   9.276   5.062 -0.0756 -0.0157 -0.0049
 2877W        W19724  11.033  18.160   1.735 -0.0947 -0.2496 -0.0190
 2878W        W19725  18.196   9.575   3.116  0.1528  0.1394 -0.1544
 2879W        W19726  12.645  16.049  14.083 -0.0847  0.2100 -0.0326
 2880W        W19727  14.111   6.369  13.030 -0.0703 -0.0766  0.0761
 2881W        W19728   6.107   7.375   0.096 -0.1029  0.1682  0.1520
 2882W        W19729   9.120  14.343   2.504  0.1917  0.2703 -0.0308
 2883W        W19730  10.541  10.000  15.318 -0.0164 -0.0740 -0.0034
 2884W        W19731  12.153   4.974  14.739  0.2440 -0.1905  0.3683
 2885W        W19732  11.755   5.371  15.165  0.0210  0.1658 -0.1283
 2886W        W19733  11.489   8.812  15.940  0.1307  0.0692 -0.0514
 2887W        W19734   0.363   7.827   4.016 -0.1222 -0.1054  0.0184
 2888W        W19735  16.934   7.853   3.019  0.0870  0.0943 -0.0623
 2889W        W19736   6.269  17.840   4.692  0.2108  0.0178 -0.3193
 2890W        W19737   7.826   1.878  12.619 -0.1367  0.3069  0.1008
 2891W        W19738   4.395   7.514  13.504  0.0083 -0.1711 -0.0597
 2892W        W19739   3.873   5.427  14.039 -0.1943 -0.0982 -0.1361
 2893W        W19740  16.695   3.028  11.714 -0.2475 -0.1956  0.2703
 2894W        W19741   5.301   7.369  15.565 -0.0590 -0.0481  0.1333
 2895W        W19742   0.067  14.600  14.320  0.0801  0.0771 -0.1604
 2896W        W19743   3.503   5.824  15.634 -0.0415 -0.1743  0.0898
 2897W        W19744   9.252   5.807   4.483  0.0027  0.0150 -0.1932
 2898W        W19745  10.421  11.769  12.566  0.3232 -0.2067  0.1222
 2899W        W19746   5.920  18.121   0.567 -0.1785  0.0973  0.0340
 2900W        W19747   3.761  14.786   2.756 -0.2408 -0.1845 -0.0580
 2901W        W19748   0.243   7.119  15.415 -0.2479 -0.0010  0.1151
 2902W        W19749  17.114  13.589   2.325  0.0381  0.1832  0.3245
 2903W        W19750   4.188   6.885  13.360  0.0907  0.3601 -0.1461
 2904W        W19751   0.826  16.516  10.517 -0.0298  0.0783  0.0288
 2905W        W19752  15.007  17.972   4.597 -0.0157 -0.2231  0.1109
 2906W        W19753   6.218  12.567   3.395  0.1489 -0.1855 -0.2074
 2907W        W19754  13.447  16.588   1.452 -0.0165 -0.2155  0.0765
 2908W        W19755  13.128  11.234  12.446  0.1257 -0.3764 -0.0753
 2909W        W19756  11.195   6.984  13.867  0.0308  0.3427  0.2337
 2910W        W19757   6.193  10.677  13.742 -0.1654  0.1112 -0.1866
 2911W        W19758  13.690   4.120   2.630  0.3093  0.2020  0.0601
 2912W        W19759  13.580  14.747  11.267 -0.2086 -0.0381 -0.1079
 2913W        W19760  14.474   6.101   3.341  0.2520  0.0635 -0.1105
 2914W        W19761  16.387  11.984   4.354 -0.1808  0.0133  0.2260
 2915W        W19762   1.685   5.185  13.805 -0.1683  0.1063 -0.0310
 2916W        W19763   9.222   9.910   3.241  0.2674  0.2601  0.0497
 2917W        W19764   1.056  17.467   1.250  0.1025 -0.0591 -0.3787
 2918W        W19765  14.961   7.221   1.344  0.0002 -0.0300  0.3156
 2919W        W19766  18.314  18.138   0.461  0.3638  0.0159 -0.1452
 2920W        W19767   0.865   8.265   1.865 -0.3886 -0.1119 -0.1963
 2921W        W19768   3.784   1.131   3.911  0.2261 -0.0425  0.0073
 2922W        W19769  11.897   7.926   3.326 -0.3771  0.0500  0.2609
 2923W        W19770  18.121   0.994  12.984  0.3106 -0.1271  0.0539
 2924W        W19771   7.086  14.440  14.996  0.2902  0.1087 -0.1923
 2925W        W19772   1.228   2.735   2.758 -0.3238 -0.3132  0.2486
 2926W        W19773   6.396  13.518   2.323 -0.0560 -0.2466 -0.0436
 2927W        W19774   2.959  12.369  14.275 -0.3820  0.0323 -0.0006
 2928W        W19775  10.599  18.142   5.382 -0.1569  0.2233  0.2841
 2929W        W19776   3.681   1.887  14.783 -0.0149  0.1303 -0.2901
 2930W        W19777  16.481  10.799   3.732  0.1372  0.1432  0.2359
 2931W        W19778  16.516   7.466   2.714  0.0119  0.0364 -0.1134
 2932W        W19779  15.064   7.080   3.947 -0.1383 -0.3779 -0.0870
 2933W        W19780  13.234   0.101  14.326 -0.0473 -0.1377  0.1348
 2934W        W19781   6.790  10.687   3.643  0.2356 -0.1724 -0.1313
 2935W        W19782   1.570  18.255   3.391 -0.0109 -0.0063 -0.1858
 2936W        W19783   4.953   3.254   2.984 -0.2774  0.1016 -0.0174
 2937W        W19784  13.960  13.805  14.750 -0.0781 -0.0024  0.0737
 2938W        W19785   0.842  16.167  12.393  0.1000 -0.0221  0.1777
 2939W        W19786   9.392  12.998  15.335 -0.0056  0.1142  0.4669
 2940W        W19787  14.253   7.440  13.190 -0.1451  0.2105  0.0356
 2941W        W19788  14.287   5.119   1.306  0.0863  0.1099  0.1715
 2942W        W19789   2.437   2.816  14.541 -0.0416  0.2180 -0.2118
 2943W        W19790   0.409   9.086  14.652 -0.0305  0.2098  0.0222
 2944W        W19791  13.256  14.009   3.353  0.2125 -0.1310  0.0651
 2945W        W19792   8.514  14.300   5.919  0.1169 -0.2012 -0.0827
 2946W        W19793   3.047   4.402   4.437 -0.0010  0.2783 -0.1152
 2947W        W19794   7.429   1.360   3.858 -0.0073 -0.3036 -0.0045
 2948W        W19795   6.171   7.122  15.856 -0.0360 -0.0147 -0.2632
 2949W        W19796  11.903  15.493  13.824  0.3653  0.3871 -0.1752
 2950W        W19797  12.627  18.247  16.060  0.1530 -0.0471 -0.2398
 2951W        W19798   6.255   6.330   0.959 -0.5899  0.0385  0.2497
 2952W        W19799   9.524   7.959   3.774  0.1185 -0.0933  0.0796
 2953W        W19800  14.754  10.696   2.164  0.1386 -0.1612  0.0659
 2954W        W19801  14.374   6.882  14.737 -0.2357 -0.1465 -0.1517
 2955W        W19802  17.051   4.040  15.267 -0.1337  0.0721 -0.2271
 2956W        W19803   7.752   8.161   2.601  0.1537 -0.0636  0.1358
 2957W        W19804   1.018   3.247  12.233 -0.4584 -0.1493  0.0067
 2958W        W19805   0.877   4.382   4.505 -0.0499 -0.1877 -0.0522
 2959W        W19806  17.234  15.339  14.440 -0.0666  0.1906  0.0818
 2960W        W19807  17.828   8.106  12.799  0.1377 -0.2566  0.1553
 2961W        W19808  16.090  10.397  12.413  0.1401  0.0957 -0.0945
 2962W        W19809  15.668   3.481  11.100 -0.0122 -0.0125  0.0142
 2963W        W19810   1.583   8.559  14.149  0.1705  0.0877  0.0478
 2964W        W19811   2.985  18.152  11.494  0.0254 -0.4107  0.1225
 2965W        W19812  11.204   6.800   2.669 -0.1390  0.1063 -0.0744
 2966W        W19813   2.159   9.938   5.601  0.0434 -0.0628 -0.0896
 2967W        W19814   8.159   1.205   1.971 -0.0284  0.0386 -0.1253
 2968W        W19815   4.982   6.410  14.528  0.0164 -0.0030 -0.0296
 2969W        W19816   3.855  16.692  15.099 -0.0746 -0.0710  0.0843
 2970W        W19817   6.433   1.826  14.399 -0.1575  0.2765  0.0459
 2971W        W19818   1.039   3.538   4.505 -0.3306  0.0316 -0.3257
 2972W        W19819   9.701   6.096   4.606 -0.1713 -0.2802 -0.2838
 2973W        W19820  14.985   3.301   0.318 -0.0073  0.0964 -0.2120
 2974W        W19821   7.034  12.955   0.177 -0.0602  0.0084 -0.3197
 2975W        W19822  12.724   2.484  13.106 -0.2521  0.0725 -0.2414
 2976W        W19823  17.105   3.445   1.743 -0.0359 -0.1298  0.1195
 2977W        W19824  17.155  11.918  14.041 -0.0786 -0.0447  0.1507
 2978W        W19825  17.679   2.292   4.122  0.0169  0.0995 -0.0024
 2979W        W19826   3.562  18.117   1.593 -0.0036  0.0199 -0.1691
 2980W        W19827   5.633   6.403   3.429 -0.1881  0.1363  0.0551
 2981W        W19828  11.261   5.658  12.624 -0.0456 -0.2808 -0.2039
 2982W        W19829  16.611   2.908  13.652 -0.0933 -0.0692 -0.0754
 2983W        W19830  12.951  13.096   4.043  0.0313 -0.2591 -0.3194
 2984W        W19831   4.239  14.187   2.946 -0.1107 -0.1238  0.0917
 2985W        W19832   1.757   4.442   5.989 -0.2038  0.0362 -0.0893
 2986W        W19833  17.725   1.360   2.762  0.1323  0.1829  0.0063
 2987W        W19834   5.428  11.010   0.450  0.3029  0.4018 -0.1547
 2988W        W19835   3.964  13.483  14.967 -0.0762  0.0491  0.0034
 2989W        W19836  12.603   8.421  12.276 -0.1204 -0.1452  0.2263
 2990W        W19837   7.302   4.328   0.758  0.0956  0.3902  0.1803
 2991W        W19838  15.688   9.498  11.776 -0.0394 -0.0399  0.0771
 2992W        W19839   3.307   1.962  14.352 -0.1787  0.0344 -0.2897
 2993W        W19840   6.136   5.453  14.858 -0.0277  0.0398 -0.1094
 2994W        W19841  15.010   8.185   4.858  0.1925 -0.1551  0.0602
 2995W        W19842  11.602   4.452  11.918 -0.0219 -0.3382  0.1354
 2996W        W19843   2.414   0.821  12.987 -0.3932 -0.1456  0.2304
 2997W        W19844  15.841   8.393  14.403 -0.2385 -0.0326  0.2934
 2998W        W19845   5.717   7.628  11.561 -0.0648 -0.2369  0.0747
 2999W        W19846  12.108  13.865  15.719 -0.0682 -0.0258  0.3789
 3000W        W19847   8.483  16.091   3.005 -0.0819  0.2488 -0.1619
 3001W        W19848   2.821   7.197  15.289 -0.1980  0.0978  0.2181
 3002W        W19849  17.956   6.683  11.897  0.0733  0.2622  0.3740
 3003W        W19850  11.471  16.742  12.671 -0.3994  0.0028  0.0893
 3004W        W19851   5.822  11.811   2.360  0.0163  0.1344 -0.0054
 3005W        W19852  17.283  14.115   2.235  0.2622  0.1207  0.1667
 3006W        W19853   1.992  12.111   1.296 -0.0306 -0.0287 -0.0126
 3007W        W19854   6.408   2.819  15.276  0.0498 -0.0718  0.0316
 3008W        W19855   3.841   3.859   3.348  0.1020  0.0934  0.0087
 3009W        W19856  13.242   5.889  12.183 -0.2059 -0.2095  0.2391
 3010W        W19857   5.135   0.525  15.715 -0.0035 -0.0552  0.0939
 3011W        W19858   3.748   8.861   0.005 -0.1596  0.0578 -0.0558
 3012W        W19859   7.201   9.829  15.524  0.1431 -0.0996  0.0449
 3013W        W19860  10.155  10.964  12.946  0.0189  0.2588  0.2852
 3014W        W19861   6.994   7.410  12.499 -0.1958  0.1402 -0.2236
 3015W        W19862   8.150   8.452   2.619 -0.0769  0.2765 -0.2984
 3016W        W19863  12.764   1.369  11.334 -0.1024  0.4519  0.1132
 3017W        W19864   1.659   5.711  11.752  0.0845 -0.0932 -0.2916
 3018W        W19865   9.857   9.081  12.114  0.1035  0.4761  0.1881
 3019W        W19866   5.858  11.059   1.905  0.0773 -0.1432 -0.0223
 3020W        W19867  11.627   4.894   1.572 -0.1054  0.0017  0.0757
 3021W        W19868  13.823  10.038  12.347 -0.2489  0.2406 -0.1522
 3022W        W19869   8.465   6.516   1.012 -0.1813  0.2368 -0.0759
 3023W        W19870  17.827  18.203   3.639 -0.1612  0.0419 -0.1002
 3024W        W19871  15.795   8.465   4.784 -0.2351 -0.1590 -0.0826
 3025W        W19872   2.294  16.860  13.199  0.0122  0.1415  0.0164
 3026W        W19873   9.024   9.133   1.884 -0.0204 -0.0480 -0.0593
 3027W        W19874  13.095  15.298  15.397 -0.1681  0.1444  0.1936
 3028W        W19875   2.798  11.378   2.397  0.0371 -0.0928 -0.2001
 3029W        W19876  14.511   1.318  15.329  0.0372  0.3786 -0.1784
 3030W        W19877   5.798   8.744   0.989  0.1621  0.2209 -0.0063
 3031W        W19878  16.251   6.780  11.341  0.2329 -0.0872  0.1140
 3032W        W19879   4.594   8.602   0.635  0.0415  0.2297 -0.1147
 3033W        W19880  13.190  13.876  14.306  0.1759  0.2383  0.1892
 3034W        W19881   7.576   6.497   4.740 -0.0149 -0.1164  0.0973
 3035W        W19882  15.533   5.256   3.320  0.3653  0.1293 -0.1450
 3036W        W19883  14.406   7.210  12.253  0.0097 -0.2961 -0.0764
 3037W        W19884   9.751  15.756  13.386 -0.0943  0.2230 -0.1751
 3038W        W19885  14.646  17.351  12.757 -0.0008 -0.1704 -0.0346
 3039W        W19886   0.692  17.113  13.053 -0.3148  0.0952  0.0270
 3040W        W19887  10.669  16.612   4.264  0.1046  0.0749 -0.2286
 3041W        W19888  11.238  16.634  13.101  0.0897 -0.0323  0.2029
 3042W        W19889  12.208  10.077   4.734 -0.2386 -0.0413 -0.3180
 3043W        W19890   9.538   0.605  15.582  0.3137  0.1094  0.1917
 3044W        W19891   3.459   3.568  15.520 -0.2848 -0.2039  0.0130
 3045W        W19892  15.013   5.026  15.957  0.0336 -0.1062  0.1689
 3046W        W19893  15.387   1.031   5.245 -0.3578 -0.0530  0.0732
 3047W        W19894   8.824  13.847   4.337 -0.3252 -0.0244  0.1414
 3048W        W19895  15.340  18.244   3.418  0.1944 -0.1757  0.0145
 3049W        W19896   9.303  16.427   4.044  0.1801  0.0108 -0.1667
 3050W        W19897   6.752   8.270   4.669  0.1068 -0.4123 -0.2507
 3051W        W19898   3.277   0.661   6.105  0.2630  0.0586 -0.0158
 3052W        W19899   8.462   8.138   0.876 -0.1241 -0.1703  0.0432
 3053W        W19900   4.755  18.034  15.103 -0.3893  0.0972 -0.2252
 3054W        W19901   2.460   0.774   5.015 -0.2861 -0.3694  0.1717
 3055W        W19902  16.721  18.284   0.545 -0.0534  0.0866 -0.0158
 3056W        W19903   9.745   0.839   2.502  0.0497 -0.0585 -0.1264
 3057W        W19904  17.201   9.359   1.991  0.2887  0.1454  0.1192
 3058W        W19905   4.667  12.644   2.436  0.1216 -0.0990  0.0600
 3059W        W19906  13.071   3.405   1.799 -0.1279 -0.0135 -0.2383
 3060W        W19907  12.087   6.950  14.698  0.1149 -0.0695 -0.1671
 3061W        W19908   1.635   2.371   3.798 -0.1106 -0.0845  0.0685
 3062W        W19909  10.371  13.285  14.612  0.2772 -0.2833 -0.3384
 3063W        W19910   9.655  14.338   2.258 -0.1159  0.0706 -0.0083
 3064W        W19911  14.668  17.421   4.958  0.3407  0.1598 -0.0557
 3065W        W19912  15.355   2.607   1.834  0.0151 -0.3883 -0.0815
 3066W        W19913   1.568   6.855  15.125 -0.0183  0.0011 -0.0970
 3067W        W19914   4.753  11.452   3.494 -0.0903  0.4213 -0.2609
 3068W        W19915  14.524   4.786   3.155  0.0025 -0.0572 -0.0112
 3069W        W19916   0.541   2.089  14.397  0.2684  0.2009  0.1515
 3070W        W19917  13.146  11.628  14.570  0.1867 -0.1121  0.1122
 3071W        W19918   8.915   5.593  13.793  0.1078  0.2055  0.1116
 3072W        W19919   4.226   8.780  12.838  0.0570 -0.1025 -0.1061
 3073W        W19920   9.013  15.608   1.636  0.1488  0.0158 -0.2351
 3074W        W19921  16.938  18.186   3.671 -0.0384  0.1845 -0.1743
 3075W        W19922   7.066   2.222   5.042 -0.1138  0.0401  0.2037
 3076W        W19923   1.718   7.238   0.612  0.1239  0.2232 -0.0468
 3077W        W19924   1.523  14.572   4.308 -0.1636 -0.2530 -0.3786
 3078W        W19925  12.179  15.124  12.856 -0.3871 -0.0458  0.0164
 3079W        W19926   2.296  11.113  14.669 -0.0057 -0.0192 -0.1109
 3080W        W19927  10.208   2.606   4.033  0.3075  0.2684 -0.0180
 3081W        W19928  17.195   5.399  16.021  0.1339 -0.0617  0.0270
 3082W        W19929   2.168  10.855  15.271  0.1415  0.2632  0.0775
 3083W        W19930   3.877   1.216   1.355 -0.0040 -0.1656  0.2525
 3084W        W19931  16.847   5.458  14.951  0.0404  0.2194  0.0219
 3085W        W19932  14.122  15.326   2.502  0.0854  0.2133 -0.3447
 3086W        W19933  17.462  15.868  11.162  0.0113 -0.1968  0.2020
 3087W        W19934  16.344   9.455   3.059 -0.1775  0.0933 -0.0681
 3088W        W19935   0.711  14.937  12.960  0.2135  0.1301 -0.1383
 3089W        W19936   6.916   2.304   5.568 -0.1053 -0.1208  0.2858
 3090W        W19937   1.704  11.443   6.122  0.0320  0.2877 -0.1983
 3091W        W19938  14.724  13.761  15.947  0.2025  0.1429  0.1109
 3092W        W19939  14.859   9.974  14.941 -0.1697 -0.0063  0.0463
 3093W        W19940   8.456  10.177  13.304 -0.1291  0.3206  0.2456
 3094W        W19941  17.789  13.954  14.234  0.0747  0.2401  0.2574
 3095W        W19942  14.480  15.145  11.887  0.0969 -0.1387 -0.1515
 3096W        W19943  14.725  15.907  11.423  0.0809 -0.1249  0.3462
 3097W        W19944  12.621  16.798  15.209 -0.0325 -0.0695 -0.3200
 3098W        W19945   0.837  12.176   2.784  0.3440 -0.1235  0.0620
 3099W        W19946  15.492   1.720  14.016  0.1135  0.4696 -0.2159
 3100W        W19947  12.011   0.663  14.588 -0.1696 -0.0485 -0.1558
 3101W        W19948   0.321  12.874  15.466 -0.0328  0.1453  0.1361
 3102W        W19949   8.410  14.349   0.258  0.0839 -0.2439 -0.0896
 3103W        W19950  11.567   8.103  12.575 -0.0770 -0.0932  0.3456
 3104W        W19951  15.999  15.057   5.542 -0.1590 -0.1087  0.0250
 3105W        W19952  14.921  14.516  11.373 -0.0616  0.1573  0.2492
 3106W        W19953   8.158  10.478  14.957 -0.0550  0.1459  0.0017
 3107W        W19954   2.229  15.982   5.946 -0.3043  0.2762 -0.1739
 3108W        W19955   0.674  14.235  16.078 -0.2815 -0.2165  0.2695
 3109W        W19956  10.930   5.055  14.724 -0.1957  0.0324  0.0363
 3110W        W19957  15.768   8.013   3.747 -0.0523  0.0868 -0.0415
 3111W        W19958  16.670   0.765   3.114 -0.0247 -0.1557  0.1323
 3112W        W19959  17.090  13.768   4.273  0.0646 -0.2272 -0.2044
 3113W        W19960   4.245  13.457   6.362 -0.3324  0.1351 -0.0001
 3114W        W19961   5.006   4.829  11.572 -0.3553 -0.0427  0.0687
 3115W        W19962  10.745   1.869   5.066 -0.0224 -0.2243 -0.1552
 3116W        W19963   6.866  10.899  14.867 -0.0511 -0.1908  0.0210
 3117W        W19964   4.019  14.208  14.283 -0.0334  0.1772  0.1873
 3118W        W19965   3.244  16.304  13.657 -0.1141  0.1424  0.2392
 3119W        W19966   7.784  11.305  11.842  0.0882 -0.5112 -0.1692
 3120W        W19967   0.248  10.138  15.696 -0.3117 -0.0675  0.1979
 3121W        W19968  17.592  10.225  16.105 -0.0557  0.2942  0.3307
 3122W        W19969   8.724   8.410  13.475 -0.3073  0.0772 -0.1542
 3123W        W19970   5.951   0.116  11.341  0.0757  0.0248 -0.1064
 3124W        W19971   3.433  10.477   4.654 -0.0232 -0.1256 -0.2391
 3125W        W19972  16.125  13.328  13.834  0.1390  0.0476  0.1676
 3126W        W19973   0.217   3.791  15.537  0.0003 -0.2361 -0.0748
 3127W        W19974  17.596  15.634   5.039 -0.0182 -0.0425  0.2131
 3128W        W19975  10.794  11.554   2.089  0.0026  0.0069  0.1618
 3129W        W19976  16.113   6.855  16.006 -0.1411  0.1670 -0.0778
 3130W        W19977  16.884  14.752  12.178  0.0102  0.1569 -0.2234
 3131W        W19978   8.432  12.504  12.951 -0.2038 -0.0281  0.0305
 3132W        W19979  16.472  15.330   4.033  0.2027  0.1462  0.0656
 3133W        W19980   3.437  10.325  12.309  0.1197  0.1521 -0.0699
 3134W        W19981   0.308   8.505  14.591  0.1592 -0.0487 -0.0392
 3135W        W19982  17.842   7.979   5.197 -0.1909 -0.2292 -0.1719
 3136W        W19983  14.957   4.350  14.895  0.1774 -0.0966 -0.0752
 3137W        W19984   4.863  14.156   5.421 -0.1133 -0.0626  0.0309
 3138W        W19985   2.041  14.335  12.889  0.0858 -0.0845  0.1447
 3139W        W19986  10.431  14.673   4.197  0.0361 -0.1157  0.1251
 3140W        W19987   3.362  13.500   4.169 -0.0839  0.2981 -0.0863
 3141W        W19988   3.301   4.760  12.867 -0.2054 -0.0943  0.1794
 3142W        W19989   9.987  14.794   2.572  0.0946  0.1570 -0.1840
 3143W        W19990  12.861   3.067  15.604  0.0870  0.0641 -0.0656
 3144W        W19991   1.266  15.484  13.416  0.0603  0.0862  0.1625
 3145W        W19992  11.910   1.000  14.949 -0.1736  0.1119  0.0578
 3146W        W19993  16.918   5.824  15.843  0.1075 -0.3707  0.1196
 3147W        W19994  12.031   2.770  15.540 -0.1139  0.0011 -0.2078
 3148W        W19995   3.669  14.153   0.048  0.1996  0.1705  0.1907
 3149W        W19996   1.288   7.848   2.934 -0.2577 -0.1911  0.0595
 3150W        W19997   2.839   1.976   5.440  0.0071  0.0060 -0.0714
 3151W        W19998  14.704  14.440   0.938  0.1505  0.4890  0.1667
 3152W        W19999   7.378   5.281   1.834 -0.1371  0.0221 -0.1232
 3153W        W20000   9.283  11.425   1.672 -0.1541 -0.1011 -0.1736
 3154W        W20001   2.178  17.617  15.849 -0.0628 -0.0134  0.1801
 3155W        W20002  15.192  15.763   1.356  0.1275  0.0499  0.0236
 3156W        W20003   0.605   2.806  16.042 -0.2913 -0.1126  0.1039
 3157W        W20004  17.449  10.427  12.755  0.0711  0.2203  0.0319
 3158W        W20005   1.486  14.290  14.741  0.2594 -0.0126 -0.2621
 3159W        W20006  13.539   7.586   4.774  0.1652 -0.0816  0.1108
 3160W        W20007  17.959   1.514   4.718  0.0936 -0.1553  0.0129
 3161W        W20008  11.488   9.372   1.288 -0.3052 -0.2500 -0.2192
 3162W        W20009  17.975  14.413  14.027 -0.0588  0.2888 -0.2245
 3163W        W20010   6.011  13.943   0.167 -0.2562  0.0176  0.2056
 3164W        W20011  16.406  15.067   4.461 -0.0570  0.3946  0.0209
 3165W        W20012   6.194   7.836   0.287 -0.0096  0.1052  0.2139
 3166W        W20013   8.707  15.330  11.862 -0.1047  0.0202 -0.2000
 3167W        W20014   7.489   7.846   3.030  0.1768 -0.0283 -0.3949
 3168W        W20015  17.632   1.128   3.690 -0.1981  0.1199  0.1898
 3169W        W20016  16.451   3.845  14.567  0.0967  0.0930  0.0608
 3170W        W20017  16.116   3.349  12.586  0.1244 -0.2007 -0.0962
 3171W        W20018   1.237   5.009  13.604 -0.3335  0.0796 -0.0152
 3172W        W20019  13.796   7.969   0.201  0.0381 -0.1110 -0.3500
 3173W        W20020   1.443   6.861   5.019 -0.1894  0.0260  0.0071
 3174W        W20021   7.772  12.712   3.350 -0.1897 -0.2454 -0.0078
 3175W        W20022   9.235  16.258  14.274  0.1007  0.0431 -0.0230
 3176W        W20023   0.447   0.653   5.660  0.0695  0.2160  0.0535
 3177W        W20024   9.907   1.645  14.491  0.6242 -0.1077  0.0041
 3178W        W20025   4.952   7.880   6.081  0.2159  0.0073  0.0764
 3179W        W20026   0.845  11.280  15.725  0.0531  0.4668 -0.0281
 3180W        W20027  13.663  13.792   5.949  0.1737 -0.1098 -0.3395
 3181W        W20028   4.875  16.045   5.839  0.2386  0.2232 -0.0197
 3182W        W20029   1.833   1.340   2.352 -0.2192  0.0708  0.1817
 3183W        W20030  13.052   5.110   4.163 -0.0543 -0.1989 -0.0285
 3184W        W20031   9.049  15.299   0.818 -0.1677  0.0685 -0.1132
 3185W        W20032   3.858  14.855   2.323 -0.3558 -0.1619 -0.0097
 3186W        W20033   9.379   2.703  13.664  0.0438 -0.1056  0.3024
 3187W        W20034  16.090  16.106   4.073 -0.0158 -0.1244  0.0792
 3188W        W20035   6.218   0.743   5.096  0.2888 -0.2402  0.0486
 3189W        W20036   5.003   7.384  13.516 -0.2148 -0.2645 -0.2283
 3190W        W20037   3.115  15.873  12.999  0.1979 -0.0162  0.0713
 3191W        W20038   1.859  11.729  14.309  0.0755 -0.0074  0.2935
 3192W        W20039  14.977   1.555   2.653 -0.2895 -0.1331 -0.3321
 3193W        W20040  17.583  11.996   5.016  0.0872  0.1640 -0.1077
 3194W        W20041   0.087   5.484  12.419  0.1037  0.2172 -0.0330
 3195W        W20042   0.120   2.266  14.144 -0.2796  0.1131  0.2414
 3196W        W20043   2.487  10.758   2.255  0.2312  0.0400 -0.1314
 3197W        W20044  12.291   4.168  12.513 -0.2586 -0.0210  0.2671
 3198W        W20045   9.097  18.264   0.648 -0.3249  0.1873 -0.2397
 3199W        W20046   2.724  14.438   1.439 -0.0846 -0.0357  0.1260
 3200W        W20047   1.863   2.731   2.491 -0.0246 -0.0539  0.2004
 3201W        W20048   1.815  12.395   5.663 -0.0381 -0.2538 -0.0212
 3202W        W20049  16.357  10.429   4.651  0.0098 -0.1474 -0.0693
 3203W        W20050   9.685  10.905   5.940  0.1290 -0.3141 -0.1085
 3204W        W20051  16.645   3.744  15.346 -0.3808  0.1186 -0.0469
 3205W        W20052   8.983  18.200   2.209 -0.0608  0.2556 -0.0694
 3206W        W20053   5.824   3.461  15.077 -0.0930 -0.0430  0.1400
 3207W        W20054   1.166  13.265  12.858 -0.0273  0.2972 -0.0350
 3208W        W20055  12.463   1.922  14.594 -0.0186  0.0502  0.2612
 3209W        W20056   8.200   2.811  11.940  0.2780  0.1056  0.0613
 3210W        W20057  13.518  16.816   4.657 -0.1395  0.0087  0.3175
 3211W        W20058  15.449   5.859   0.032 -0.3413 -0.3386 -0.0529
 3212W        W20059  17.396  14.170  15.661 -0.0783 -0.0762 -0.2684
 3213W        W20060  17.934   0.909  15.195  0.1739 -0.0698 -0.1945
 3214W        W20061   0.698  18.179  13.269  0.1690 -0.0925  0.0749
 3215W        W20062   2.693   6.009  15.349  0.1035  0.1237  0.2192
 3216W        W20063  15.962  10.259  15.685  0.1685  0.0875 -0.1546
 3217W        W20064   4.205   0.062   0.965  0.0931  0.1982  0.2052
 3218W        W20065  14.994   8.310   3.315  0.4908 -0.0984  0.0747
 3219W        W20066  12.339  17.061  15.572  0.1334  0.0094  0.1775
 3220W        W20067  16.160  15.974   0.575  0.3126 -0.0215  0.0377
 3221W        W20068  16.915  12.040   5.661  0.0589 -0.1459 -0.0739
 3222W        W20069   4.885   5.204   3.807 -0.1001  0.1635  0.1093
 3223W        W20070   5.633  11.084   3.612 -0.2068  0.1304  0.2857
 3224W        W20071   0.831  14.851  13.831 -0.2301  0.2016  0.0619
 3225W        W20072   5.096  10.895   1.757 -0.0276  0.2427 -0.1584
 3226W        W20073   4.048   5.503   2.367  0.1472 -0.3689  0.2282
 3227W        W20074  14.148  12.202  12.259  0.3011  0.0372  0.0397
 3228W        W20075  16.820   1.777  14.437 -0.1668 -0.1114  0.1529
 3229W        W20076   2.887   0.754  13.137 -0.2536  0.0786 -0.0564
 3230W        W20077   7.463  10.686   4.399  0.4466 -0.2056  0.1891
 3231W        W20078   9.475   8.271  15.190  0.0838 -0.0523  0.2060
 3232W        W20079   1.132   8.854  14.018  0.0844  0.2609 -0.1792
 3233W        W20080  16.413   7.950  14.378  0.0865 -0.0050 -0.0057
 3234W        W20081   3.730  11.905  15.493  0.0755 -0.2218  0.0925
 3235W        W20082   8.660   1.655  12.583 -0.1758 -0.0187 -0.3422
 3236W        W20083   9.998   1.460   1.901 -0.4542 -0.0673 -0.0505
 3237W        W20084   9.787  16.062  14.114  0.4963 -0.0433 -0.0067
 3238W        W20085  14.033  16.691   1.975 -0.0293  0.1488 -0.0051
 3239W        W20086   4.766   0.959  15.560 -0.1240  0.1543  0.1853
 3240W        W20087   7.973  16.821  12.241  0.1141  0.0974  0.0712
 3241W        W20088   5.660   7.668   2.844 -0.1981  0.1705  0.1337
 3242W        W20089   1.570   7.402   4.584  0.0143 -0.1209  0.2405
 3243W        W20090   6.015  13.468   4.304  0.0256  0.1337  0.2796
 3244W        W20091   5.570   8.866   4.855  0.3559 -0.1730 -0.0632
 3245W        W20092   6.086   2.310   2.116  0.2736 -0.0270  0.1127
 3246W        W20093   2.199   4.708  14.369 -0.0788 -0.3236 -0.1021
 3247W        W20094   7.014  10.611  12.718 -0.2501 -0.1794  0.2145
 3248W        W20095   7.220   6.629   6.145  0.2929 -0.4522 -0.0026
 3249W        W20096   4.950  16.448   1.879 -0.1527 -0.1625  0.0430
 3250W        W20097  14.211   6.797   0.837 -0.1405 -0.2921  0.0010
 3251W        W20098   3.588  10.015   0.230  0.1862 -0.0790  0.0423
 3252W        W20099   4.962   9.019  14.979 -0.2798  0.1919  0.3777
 3253W        W20100   0.688   0.066   3.068 -0.2729  0.2409 -0.1342
 3254W        W20101  12.332   3.886  15.534 -0.3840 -0.0337 -0.0955
 3255W        W20102   1.248   2.100   2.560  0.0572  0.1579  0.1097
 3256W        W20103  15.920   4.664  15.741 -0.3240 -0.0191 -0.0862
 3257W        W20104  13.333  10.627  14.374  0.0067  0.2611  0.1167
 3258W        W20105  10.064   8.881  12.554 -0.2718 -0.4930 -0.1089
 3259W        W20106   0.921   0.090  14.455 -0.0855 -0.0302 -0.0168
 3260W        W20107   5.315   6.198   0.687  0.2282 -0.1729 -0.1678
 3261W        W20108  14.883  16.814   4.417  0.2617 -0.1227  0.2081
 3262W        W20109  18.201   5.240  13.902  0.2843 -0.0537 -0.0102
 3263W        W20110   6.561   6.982   1.450 -0.0774 -0.1693 -0.0399
 3264W        W20111   9.524   2.874  16.029 -0.1127  0.1751 -0.2591
 3265W        W20112   2.663   3.143   2.902  0.1352 -0.0138 -0.1201
 3266W        W20113   1.377   3.409  13.132 -0.1745  0.3042  0.0030
 3267W        W20114   1.717  15.450   2.438 -0.0843  0.2299 -0.4129
 3268W        W20115   0.778  16.206   5.392 -0.0142  0.1004  0.1620
 3269W        W20116  16.707   0.809   3.984  0.2366  0.0597 -0.1130
 3270W        W20117   0.086  11.916  14.085 -0.0072  0.1534 -0.0400
 3271W        W20118   1.260  14.328   4.773 -0.0224 -0.2359  0.0755
 3272W        W20119   5.040  12.579  15.157 -0.2932 -0.1819 -0.3252
 3273W        W20120  14.010   5.314   4.168 -0.1439  0.1516 -0.1673
 3274W        W20121   6.740  16.554  13.227 -0.1046  0.2482  0.1676
 3275W        W20122  13.327   5.939  10.668  0.2925 -0.1675  0.1093
 3276W        W20123  14.123  16.316  13.687  0.0074  0.3878  0.0789
 3277W        W20124  10.435  15.969  14.687 -0.0481 -0.1567 -0.0642
 3278W        W20125   0.802  12.605   4.076 -0.0657 -0.2024 -0.0658
 3279W        W20126  10.297  13.138   0.871 -0.1963  0.0119 -0.0820
 3280W        W20127  11.278  14.963   1.104  0.2126 -0.3260 -0.0706
 3281W        W20128   8.115   4.967  14.249  0.0360 -0.0891 -0.0385
 3282W        W20129   9.236  17.391  15.597 -0.0269 -0.1443 -0.3466
 3283W        W20130   4.307   2.758  14.707 -0.3035  0.1616 -0.0022
 3284W        W20131   3.657   0.316   3.987 -0.1851 -0.0432  0.3765
 3285W        W20132   3.692   7.195  15.259 -0.4436 -0.1361 -0.2751
 3286W        W20133  11.522   1.188  15.276 -0.0056  0.4820 -0.1035
 3287W        W20134  13.606   7.149   2.142  0.3300 -0.2951  0.5360
 3288W        W20135  15.420  12.377  16.039 -0.0478 -0.0279  0.0094
 3289W        W20136   8.159   0.419  12.031  0.0441 -0.2095  0.0203
 3290W        W20137   2.174  12.466  14.054 -0.1729  0.1266  0.0838
 3291W        W20138   9.926   5.862  12.187 -0.3535  0.0242 -0.3569
 3292W        W20139   2.106  16.579   2.844 -0.0981 -0.3096 -0.0413
 3293W        W20140  17.214   6.571  15.857 -0.1655 -0.0885  0.1196
 3294W        W20141  12.138   0.107   0.382 -0.0007 -0.0920 -0.0680
 3295W        W20142  13.826   0.074   1.497  0.1165  0.1945 -0.0530
 3296W        W20143   2.651   7.874   2.975 -0.1324 -0.1674  0.3749
 3297W        W20144   2.222  15.267   2.167  0.0180 -0.0287 -0.1659
 3298W        W20145   2.459   4.173   3.664 -0.2738  0.0263  0.2409
 3299W        W20146   7.554  16.164  14.572 -0.2288  0.0384  0.1079
 3300W        W20147   9.661   0.720  11.732  0.1590 -0.2299 -0.2899
 3301W        W20148   4.586  17.552  12.932  0.0377 -0.1041  0.1297
 3302W        W20149   5.677   8.420   5.049 -0.0736  0.2103 -0.2043
 3303W        W20150  10.602   0.693   4.331  0.3788 -0.1217  0.0813
 3304W        W20151   1.473  13.068  15.816  0.0723 -0.0737 -0.0514
 3305W        W20152   8.917   8.992   0.640  0.1059  0.0127 -0.1354
 3306W        W20153   8.096  12.819   0.961  0.0229 -0.2220 -0.0383
 3307W        W20154  16.906   8.634  14.306 -0.3092  0.0781 -0.0833
 3308W        W20155  10.145  12.884  15.913  0.0447 -0.2361  0.1947
 3309W        W20156   5.816   7.682   1.371 -0.2704  0.0968 -0.1063
 3310W        W20157  12.286  11.031   4.534 -0.0370 -0.1010 -0.0004
 3311W        W20158   4.521  14.577   5.757 -0.0085 -0.2091 -0.0014
 3312W        W20159  17.615   3.044  10.987  0.4625 -0.4159 -0.0045
 3313W        W20160  15.037   5.234  15.507  0.1510  0.0902  0.3681
 3314W        W20161   5.504  18.094  14.544  0.2182  0.3418 -0.0324
 3315W        W20162   0.712  16.192   1.649 -0.0879 -0.3345 -0.0514
 3316W        W20163   5.154   7.709   3.776  0.0334  0.0063 -0.0295
 3317W        W20164   2.545  11.857   6.254  0.3032  0.1067  0.0136
 3318W        W20165   9.052   2.977   3.005  0.5145 -0.0019 -0.2004
 3319W        W20166  13.024   0.425   3.104  0.1416  0.0091 -0.0742
 3320W        W20167   0.614  10.699   5.281 -0.2522 -0.1659 -0.0301
 3321W        W20168  12.322  10.533  11.122  0.0622  0.1731 -0.0651
 3322W        W20169   6.987  17.754   1.488 -0.2129  0.1406 -0.0674
 3323W        W20170   6.492  15.893   2.729  0.1758  0.0140 -0.0028
 3324W        W20171  18.071  12.585   4.746  0.0285  0.0667 -0.1496
 3325W        W20172  15.105   7.039  15.526 -0.3608 -0.0480  0.1093
 3326W        W20173   7.921  15.815   4.224 -0.1460  0.0644 -0.0919
 3327W        W20174  16.726   3.858   4.474  0.0208  0.0271  0.2857
 3328W        W20175   3.039   1.598   1.862  0.0087 -0.1066 -0.2979
 3329W        W20176  10.759   7.580  12.942  0.0772 -0.1997  0.1067
 3330W        W20177  16.729   0.628  12.817  0.1515  0.0092 -0.0158
 3331W        W20178  11.553   3.571   3.802 -0.3175 -0.0194 -0.1798
 3332W        W20179   1.578   0.179  11.939  0.0907 -0.0653  0.0712
 3333W        W20180  12.468  15.765  14.934  0.0222  0.2419 -0.2082
 3334W        W20181  15.240   8.408   0.767 -0.1958 -0.2479 -0.1117
 3335W        W20182  16.032  11.278   0.068 -0.0139 -0.0644  0.4107
 3336W        W20183  14.004  16.415   3.828 -0.0099  0.4146  0.0875
 3337W        W20184  14.572   8.866   4.689  0.0583 -0.1149 -0.0587
 3338W        W20185   8.570   1.423  15.612 -0.4183  0.0647  0.4508
 3339W        W20186  16.931   2.673  12.002  0.0371 -0.2491  0.1934
 3340W        W20187   5.933   0.161   1.419 -0.0848  0.2921 -0.0968
 3341W        W20188  14.644  15.387  11.366  0.1968 -0.0499  0.0554
 3342W        W20189  14.689  13.399   4.134  0.1338  0.0847 -0.1134
 3343W        W20190  10.724   1.878  15.498 -0.2106 -0.0344  0.0787
 3344W        W20191   1.159   2.967  13.186  0.1481 -0.3434  0.4384
 3345W        W20192  12.126  16.816  15.154  0.1312 -0.0021  0.1909
 3346W        W20193   8.816  10.013   2.211  0.0154  0.1434 -0.0257
 3347W        W20194  18.114  10.857  13.401  0.0681 -0.0866 -0.0813
 3348W        W20195  10.933   3.637   0.690  0.2343 -0.0947  0.3879
 3349W        W20196   5.831   4.875  13.691  0.1029  0.1573 -0.3357
 3350W        W20197  14.221   5.193  13.298  0.0946 -0.0886  0.1699
 3351W        W20198   0.426   5.705   5.538 -0.2284  0.2209 -0.0465
 3352W        W20199   2.311  16.885   0.357 -0.3337  0.1480 -0.3296
 3353W        W20200  14.319  15.727  11.592 -0.1940 -0.2001  0.1463
 3354W        W20201  18.108  16.234  12.215  0.3059 -0.0726 -0.0261
 3355W        W20202   8.498   3.166   1.247  0.0779 -0.4272 -0.1252
 3356W        W20203  16.825   1.470   5.378 -0.1039 -0.0963  0.1052
 3357W        W20204  13.654   7.385   0.081  0.2648  0.1080 -0.1093
 3358W        W20205  14.084   1.625   2.686 -0.0012 -0.0107 -0.0168
 3359W        W20206  12.757   6.702   1.829 -0.1756  0.1633 -0.1728
 3360W        W20207   0.518   2.853   0.676  0.2507  0.1823 -0.2907
 3361W        W20208  14.451  16.039   4.902 -0.2397 -0.1629  0.2001
 3362W        W20209   9.001  16.725   2.870  0.2239 -0.2376  0.2083
 3363W        W20210  11.771   4.541   3.948  0.0708  0.2026 -0.0992
 3364W        W20211   5.891   2.094   1.683  0.0244  0.1097  0.0613
 3365W        W20212   8.233   9.396  12.522  0.1270  0.0706 -0.1121
 3366W        W20213   3.040   7.824   1.065  0.0145  0.0766  0.0560
 3367W        W20214  13.793   6.387   0.767 -0.0073  0.4212  0.0436
 3368W        W20215  10.806   9.729  10.960  0.0892 -0.0657  0.1478
 3369W        W20216  13.214   7.935  11.934  0.1791 -0.2704 -0.1780
 3370W        W20217   1.204  16.031   5.586  0.0509  0.0691  0.1780
 3371W        W20218   1.187   6.159  11.615 -0.3473 -0.0339 -0.0424
 3372W        W20219   4.212   7.844   4.129 -0.1172 -0.0137 -0.0360
 3373W        W20220  14.846  12.262   2.133  0.0527  0.0470  0.1916
 3374W        W20221   9.494   3.988  13.511 -0.0669 -0.2050 -0.1127
 3375W        W20222  16.726   1.631  13.277  0.2125  0.0476  0.1467
 3376W        W20223   3.798  13.172  15.381 -0.0782  0.2112  0.0562
 3377W        W20224  12.126  10.350   4.219  0.1351 -0.2518  0.1095
 3378W        W20225  10.517   6.661  13.012 -0.0622 -0.0028 -0.1710
 3379W        W20226  10.480  17.073  14.294 -0.1645 -0.1098  0.1465
 3380W        W20227  14.136  13.273  14.028  0.0611 -0.3786 -0.1057
 3381W        W20228   6.622   8.394  13.319  0.1384  0.1054 -0.0098
 3382W        W20229   5.101   1.569   5.727 -0.1040  0.0678 -0.1190
 3383W        W20230   5.426  15.250  15.355  0.2645 -0.1452 -0.0474
 3384W        W20231  16.213   2.892  13.984 -0.0278 -0.1480  0.0046
 3385W        W20232  12.868   8.759  13.699 -0.0610  0.2209  0.1883
 3386W        W20233   8.973  11.009   2.848  0.3385 -0.0662  0.0371
 3387W        W20234   6.160   8.307   0.753 -0.2152 -0.0652 -0.2066
 3388W        W20235   3.040  11.090   4.121 -0.1911 -0.0973  0.0708
 3389W        W20236   2.043   1.049   1.978  0.0101 -0.0645  0.1797
 3390W        W20237   3.094  14.278  12.328 -0.2519  0.0270 -0.3000
 3391W        W20238  14.907  11.985  15.241 -0.0020 -0.0872  0.0494
 3392W        W20239  15.134  14.740   1.571 -0.0986 -0.0719 -0.2389
 3393W        W20240  16.558  16.243   2.345  0.0951  0.1187 -0.1008
 3394W        W20241  17.308   8.074   3.288  0.0853 -0.2324  0.1559
 3395W        W20242   0.623  11.716   1.017  0.0949  0.1377 -0.0842
 3396W        W20243   6.630   9.615   0.104 -0.3487  0.0116  0.1152
 3397W        W20244   6.010   9.834  14.004  0.0920  0.3443  0.1491
 3398W        W20245   6.695   0.717  15.946  0.4654 -0.0173 -0.0788
 3399W        W20246  12.388   6.315   0.857 -0.1394 -0.2592  0.3222
 3400W        W20247  17.657   3.369   4.483  0.0213 -0.1909 -0.1116
 3401W        W20248   4.633  17.356   2.786 -0.1226  0.1228 -0.1829
 3402W        W20249  12.836   0.705   5.369  0.4272  0.3574 -0.2418
 3403W        W20250  17.702   9.952  12.347 -0.0394  0.2526 -0.1213
 3404W        W20251   6.336  15.393   2.081  0.0159 -0.0353  0.2290
 3405W        W20252  10.813  11.057  15.652 -0.1880 -0.2203  0.0612
 3406W        W20253   6.283  12.903   5.429  0.2618  0.1543 -0.0489
 3407W        W20254  11.894  18.055  14.495 -0.0714 -0.1574 -0.0160
 3408W        W20255   8.491   3.108   5.441  0.0992 -0.1045 -0.1538
 3409W        W20256   7.924   4.064   1.578 -0.1161  0.1514  0.0090
 3410W        W20257   7.301  12.313  13.306  0.0128 -0.1095  0.4258
 3411W        W20258   0.187   9.664   3.806  0.0754  0.0459  0.0009
 3412W        W20259  13.529   2.534  11.986  0.0363 -0.0777 -0.1555
 3413W        W20260  10.310   5.670  14.220  0.2335  0.0422  0.0294
 3414W        W20261  17.267  15.569   2.105  0.4608 -0.1022  0.0592
 3415W        W20262   5.627  16.726  14.858 -0.2387 -0.0884 -0.1584
 3416W        W20263   9.707  14.184  15.692 -0.2755 -0.0075 -0.0460
 3417W        W20264  10.298  17.352  11.495 -0.1742 -0.0689  0.1679
 3418W        W20265  15.486  11.328  15.192  0.0827 -0.2271  0.2490
 3419W        W20266  12.012  18.232  12.720 -0.0151  0.0129 -0.1376
 3420W        W20267  16.055  14.319  13.163  0.1780 -0.0370 -0.1545
 3421W        W20268  14.766  11.504   3.521  0.1138  0.2071  0.0481
 3422W        W20269  13.045   6.684  11.081  0.1794 -0.1555  0.1235
 3423W        W20270   1.632  10.051  13.052  0.2278  0.1379 -0.0143
 3424W        W20271  11.845  13.329   3.072 -0.0975  0.0703  0.1308
 3425W        W20272  14.419   9.086  13.236  0.1413  0.1256  0.0999
 3426W        W20273  12.227  15.118  13.818  0.0162 -0.3416  0.0400
 3427W        W20274   9.138  11.960  14.749  0.1108  0.0238  0.1608
 3428W        W20275   8.739  11.151  12.864 -0.3048  0.0258  0.0484
 3429W        W20276  13.768   5.089  15.744  0.1003 -0.1516  0.0181
 3430W        W20277   5.629  18.209   4.979  0.2345 -0.0276  0.1522
 3431W        W20278  11.602   9.357  14.525  0.0971  0.1343  0.0775
 3432W        W20279   3.689   7.599  14.964  0.2223 -0.0306 -0.0948
 3433W        W20280   3.991  10.073  15.584 -0.1725  0.2071  0.0117
 3434W        W20281  16.441  15.948  12.964 -0.0917  0.0254  0.0974
 3435W        W20282  14.384  12.587  13.011 -0.0237  0.1462  0.0286
 3436W        W20283  15.738  17.437  11.874  0.0308  0.2311  0.2181
 3437W        W20284   5.671   5.189  14.725  0.0704  0.0105 -0.3529
 3438W        W20285   3.377   6.251   1.541  0.0958  0.3406  0.2024
 3439W        W20286   5.029  10.164   1.092  0.1935  0.1516 -0.1247
 3440W        W20287  15.230   5.587   4.210 -0.2248 -0.3739  0.1478
 3441W        W20288  10.382   2.961   2.688  0.0246  0.1632 -0.0354
 3442W        W20289  11.360   4.700   5.261 -0.3396  0.1454  0.1744
 3443W        W20290  14.373   4.813   1.639 -0.1495  0.0524  0.3581
 3444W        W20291   2.995  16.766  11.811 -0.1729  0.2718 -0.1243
 3445W        W20292  16.500   2.545   1.758  0.1092  0.0494 -0.1230
 3446W        W20293   4.384  15.169  12.141 -0.1072 -0.2895 -0.0217
 3447W        W20294  10.534   5.294   5.030  0.3148  0.0556 -0.4058
 3448W        W20295   9.265   9.577   2.757 -0.0244 -0.3024  0.2192
 3449W        W20296   5.568   3.635   4.329 -0.0154  0.2576  0.2023
 3450W        W20297   4.745   6.968  16.010  0.1292  0.1149  0.1326
 3451W        W20298   0.994   3.111   0.013 -0.2129 -0.0455  0.0732
 3452W        W20299   8.219  17.687  15.916  0.3013 -0.1373 -0.1449
 3453W        W20300   4.996   9.437   0.382 -0.0004  0.1949 -0.1935
 3454W        W20301   0.313   2.227   2.082  0.1034  0.1977  0.0198
 3455W        W20302  10.654   6.239   0.763 -0.1661 -0.0722  0.0877
 3456W        W20303  11.228  17.662  15.162  0.1924 -0.0429  0.0024
 3457W        W20304   0.664   7.311   4.064  0.2664  0.1233  0.0859
 3458W        W20305  14.417  16.718  15.203  0.0264 -0.1588  0.3108
 3459W        W20306  11.502  14.433   2.566  0.2007 -0.0265 -0.0599
 3460W        W20307   2.945  15.641  14.772 -0.2747  0.2747 -0.3858
 3461W        W20308   0.557   0.701  15.924 -0.2572  0.1489  0.0347
 3462W        W20309   5.782   1.832   3.047  0.3218  0.1305 -0.0999
 3463W        W20310  17.158   5.156   3.030 -0.1389  0.1365 -0.0620
 3464W        W20311   7.332   9.060   4.239 -0.0357  0.1891 -0.1591
 3465W        W20312  14.868   4.827  14.510  0.0534  0.2104  0.0636
 3466W        W20313  15.325  12.790   3.430 -0.1890  0.0953 -0.1570
 3467W        W20314   5.764  12.868   0.051  0.1202 -0.2617  0.1545
 3468W        W20315   1.949  14.239   4.307  0.0133  0.0273  0.0920
 3469W        W20316   3.107   3.556   2.232  0.1911  0.1301 -0.4177
 3470W        W20317  11.282  14.784  11.764 -0.1690 -0.1444 -0.1244
 3471W        W20318   6.290   0.469   3.799  0.3397  0.0254 -0.0661
 3472W        W20319  15.734  11.281   9.740  0.1916 -0.2376 -0.1714
 3473W        W20320   7.175  17.177   5.597  0.2178 -0.1581  0.2622
 3474W        W20321  13.706  15.102   4.626 -0.0052  0.0351 -0.0006
 3475W        W20322  13.487  16.592  15.446 -0.0742  0.3273 -0.2055
 3476W        W20323   3.624  15.196   3.488 -0.3725 -0.2752  0.2033
 3477W        W20324   9.596   0.223  14.640 -0.2199 -0.0167 -0.0291
 3478W        W20325  10.490  17.998  11.563 -0.2622 -0.1782 -0.1664
 3479W        W20326   4.267  17.709   4.013  0.2482 -0.3744 -0.0484
 3480W        W20327   5.700  10.571   2.092 -0.4740  0.0265 -0.2345
 3481W        W20328   4.092   9.836   2.711 -0.4137  0.2142  0.0104
 3482W        W20329   1.041   3.090  15.703  0.1495  0.0564  0.0778
 3483W        W20330   3.205  14.636   0.867  0.2008 -0.1965  0.0041
 3484W        W20331  13.280   2.307  12.773  0.2062  0.2156 -0.1581
 3485W        W20332  17.754   9.424  13.556 -0.2644  0.1959 -0.1175
 3486W        W20333   0.287   3.665   1.281 -0.1769  0.4561  0.0594
 3487W        W20334  15.985   0.692  13.525  0.0868  0.0272  0.0453
 3488W        W20335  15.905   0.605   3.609  0.0230  0.3124  0.2217
 3489W        W20336  12.803   2.117   2.949 -0.0435 -0.0850 -0.0367
 3490W        W20337   6.495  10.635   4.545  0.0658 -0.1603  0.2967
 3491W        W20338   6.829   0.435  15.478 -0.0420  0.0500  0.0971
 3492W        W20339  12.128   3.634   0.187  0.0714 -0.1815  0.1264
 3493W        W20340   7.374  17.635   2.396 -0.0090 -0.1051 -0.1463
 3494W        W20341   1.334   0.682  14.789  0.2222 -0.0018  0.0177
 3495W        W20342   5.217  17.728   1.124 -0.2025 -0.0247 -0.4735
 3496W        W20343   7.879   4.069   3.984 -0.0494 -0.1812  0.1308
 3497W        W20344  10.105   2.430  12.663 -0.1199 -0.0933 -0.1165
 3498W        W20345   1.113  11.933  13.275  0.1291  0.2702 -0.0771
 3499W        W20346   5.110  18.103  16.019 -0.1154 -0.0663 -0.1216
 3500W        W20347  14.446   2.735   0.726  0.1516 -0.0470 -0.0983
 3501W        W20348  11.849   4.069  15.492 -0.1649 -0.0542 -0.0977
 3502W        W20349   7.693   6.682  12.731  0.1767  0.0751 -0.2460
 3503W        W20350   6.518   0.622  13.243  0.2530 -0.0634 -0.1160
 3504W        W20351   2.505   5.749   1.551 -0.3862 -0.1718  0.2484
 3505W        W20352  13.232   6.012   0.106  0.0779  0.2402  0.0410
 3506W        W20353   3.923  13.030   0.797 -0.2509  0.1392  0.0310
 3507W        W20354  13.033  16.204   1.538  0.2607  0.3650 -0.0096
 3508W        W20355  10.429  14.524  15.371  0.1852 -0.1197 -0.0241
 3509W        W20356   0.851  14.052  14.370 -0.0311 -0.0923 -0.0480
 3510W        W20357  14.704   2.974   3.610 -0.0695  0.0306  0.0617
 3511W        W20358   8.890   0.973  10.757 -0.1071 -0.2120 -0.0001
 3512W        W20359  17.616   1.888  13.940 -0.2802 -0.1688 -0.2358
 3513W        W20360   0.208   2.368  15.549 -0.0203 -0.2369  0.1356
 3514W        W20361   6.461   4.637  13.843 -0.0017 -0.1796  0.0288
 3515W        W20362   6.301  18.147   2.554  0.3723  0.1003  0.0094
 3516W        W20363   4.145   4.442  15.330 -0.1274  0.1369 -0.2792
 3517W        W20364  11.719   3.786  12.587  0.0318 -0.2351 -0.1738
 3518W        W20365  10.934  16.129   0.154  0.0801  0.2431 -0.1182
 3519W        W20366   0.697   9.928  14.459  0.1466  0.1961 -0.0027
 3520W        W20367  17.606   5.901   3.442 -0.0934  0.1028  0.1651
 3521W        W20368   4.664  13.297   2.728 -0.0266  0.0124  0.1192
 3522W        W20369  17.293   1.544   2.915  0.1229 -0.2339 -0.2190
 3523W        W20370   6.962   7.926   2.953 -0.0291  0.3400  0.1328
 3524W        W20371   8.606  13.241  12.696  0.3416  0.0520  0.0868
 3525W        W20372  18.132   8.426  14.384  0.0047 -0.0996 -0.0995
 3526W        W20373  11.589   9.168   0.782  0.1136 -0.0774 -0.1081
 3527W        W20374   8.864   1.806  15.475 -0.0046  0.1763  0.0339
 3528W        W20375   8.644   6.371   0.385 -0.0281 -0.2124  0.1209
 3529W        W20376  18.118  10.097  11.970  0.3667 -0.0965 -0.0011
 3530W        W20377  17.866  15.663   1.624 -0.2387  0.2815 -0.0442
 3531W        W20378   5.813   5.251   3.801  0.0563 -0.2474  0.0084
 3532W        W20379   0.124   6.351   4.665 -0.1230  0.0330  0.1143
 3533W        W20380  13.713  13.691  13.427  0.0561  0.2481  0.0256
 3534W        W20381   4.662   7.836   2.876 -0.2260  0.1639 -0.0568
 3535W        W20382  12.180   1.407   4.957 -0.2550  0.0578 -0.1352
 3536W        W20383   4.184   2.519   5.871 -0.0988 -0.2638 -0.1636
 3537W        W20384  17.288  14.548   3.894  0.2323 -0.1598  0.3963
 3538W        W20385   1.566   1.942   1.930  0.1788  0.0229  0.1277
 3539W        W20386  12.224  10.289  16.082 -0.2370 -0.0750  0.1134
 3540W        W20387  13.337  14.686  13.728 -0.2062  0.1240  0.1487
 3541W        W20388   8.056  14.537  15.406 -0.0536 -0.1483  0.1100
 3542W        W20389   0.818  18.153   0.760  0.0162  0.2178 -0.1365
 3543W        W20390   7.826  13.118   3.064 -0.0669 -0.1007  0.1238
 3544W        W20391  10.584   1.333   2.850 -0.0964 -0.0507  0.1358
 3545W        W20392   6.428   2.316   0.397 -0.2162  0.0302 -0.1711
 3546W        W20393  17.874   8.415   0.140 -0.2205 -0.1761 -0.1885
 3547W        W20394   6.816   6.548  13.264 -0.1141  0.3304 -0.0252
 3548W        W20395  16.265  17.936  12.033  0.0643 -0.0696  0.1549
 3549W        W20396   2.741  15.914   5.831 -0.1224  0.0863  0.1701
 3550W        W20397  14.241  13.535  14.443 -0.3180 -0.1387  0.0923
 3551W        W20398   4.075  12.073   4.769 -0.3833 -0.0310 -0.0610
 3552W        W20399  15.769   9.644  13.512  0.2168  0.0812  0.0121
 3553W        W20400  14.772   1.138   3.202 -0.2377 -0.2526 -0.1907
 3554W        W20401  13.617  12.044  12.411  0.1756 -0.0670 -0.0039
 3555W        W20402  17.402  10.871  12.210 -0.0050  0.0764  0.1093
 3556W        W20403   1.332  12.716   2.212 -0.0667  0.0065  0.0784
 3557W        W20404   5.626   2.385   3.894 -0.0177  0.0125 -0.2918
 3558W        W20405   5.738   1.257  12.773  0.1241 -0.0400  0.0589
 3559W        W20406   9.037  17.678   4.413 -0.0090  0.0270 -0.2944
 3560W        W20407   1.924   1.953   5.168 -0.1104 -0.0438 -0.1759
 3561W        W20408  10.795  17.443  15.051 -0.0973  0.0580 -0.1090
 3562W        W20409  16.178   0.437   3.147  0.0983  0.0915  0.1639
 3563W        W20410   0.722  14.610  14.831 -0.0354  0.1458 -0.0045
 3564W        W20411  12.617  10.798  15.521  0.0104  0.1158  0.1556
 3565W        W20412  11.609  18.006   1.424  0.0281 -0.3491 -0.1653
 3566W        W20413  17.339   5.269   1.798  0.3050 -0.1061  0.1612
 3567W        W20414   5.367   5.487   3.704 -0.3427  0.1448 -0.1716
 3568W        W20415   6.381  13.069   2.581  0.1581  0.0383 -0.1469
 3569W        W20416   3.441  10.496   0.111 -0.1335  0.1444  0.0645
 3570W        W20417  12.991  10.379  12.466  0.0776 -0.0166 -0.2943
 3571W        W20418  13.302  10.139   2.298 -0.1995 -0.0656  0.0693
 3572W        W20419   9.992  15.923  14.908 -0.0517 -0.0422  0.1473
 3573W        W20420   6.993   6.118   0.517  0.1699  0.0667 -0.1562
 3574W        W20421   9.973  14.695   1.463 -0.2826  0.0326  0.0712
 3575W        W20422   8.661  16.516  11.814  0.0217 -0.0269 -0.0496
 3576W        W20423   8.920   7.584  14.340 -0.0545 -0.1746  0.0204
 3577W        W20424   3.520   4.747  11.809 -0.4200 -0.2568 -0.2324
 3578W        W20425   8.986  13.905   5.211 -0.1357 -0.0899  0.1799
 3579W        W20426   9.353   4.562  14.825  0.3131 -0.0511  0.1732
 3580W        W20427  11.915   0.209   4.121  0.1343  0.0786 -0.1575
 3581W        W20428  12.785   4.130  14.800  0.0210 -0.0323 -0.1753
 3582W        W20429   4.880   9.636   1.741  0.0601  0.1597 -0.0460
 3583W        W20430  10.159  16.705  13.776  0.1933 -0.0005 -0.0249
 3584W        W20431   9.277  10.219  14.274  0.1573  0.0479 -0.0108
 3585W        W20432  12.716  11.984  11.544  0.2336 -0.1143 -0.0641
 3586W        W20433   3.831  10.247   3.464  0.0054  0.2746  0.0813
 3587W        W20434  11.167   2.948   4.456 -0.0955  0.0754 -0.1438
 3588W        W20435  17.462  11.835  15.652 -0.0605  0.2417 -0.0441
 3589W        W20436  11.177  16.265   3.631  0.2026  0.1529 -0.1559
 3590W        W20437  11.588  17.512  15.578  0.0900  0.2277  0.2305
 3591W        W20438   8.904  16.456  13.184  0.2790  0.0453  0.1358
 3592W        W20439  14.888  15.908   5.163 -0.0867 -0.1777 -0.3628
 3593W        W20440   4.120   7.489   2.531  0.0821 -0.1786 -0.0043
 3594W        W20441   1.607  12.679   2.686  0.0539 -0.1345  0.3287
 3595W        W20442   5.893  10.667  12.060 -0.0079 -0.0209 -0.2362
 3596W        W20443   1.376   1.258   2.444 -0.1097  0.1256  0.3122
 3597W        W20444  15.050   5.483   2.004  0.0704 -0.1641 -0.0091
 3598W        W20445  16.552  16.812  14.844 -0.0892 -0.2920  0.0005
 3599W        W20446  13.315   1.803   4.090  0.0771  0.1976  0.3073
 3600W        W20447   9.645   5.961  11.529  0.0095 -0.0515 -0.0603
 3601W        W20448   0.695  13.547  12.867  0.3739 -0.3233 -0.1713
 3602W        W20449  11.347   5.786  15.980 -0.1735  0.0252 -0.1921
 3603W        W20450  10.393  12.562   0.656 -0.0637  0.0523  0.0768
 3604W        W20451   4.267   3.537   4.716  0.1156  0.3739  0.0119
 3605W        W20452  16.400  10.973  11.829 -0.2416  0.0317  0.2404
 3606W        W20453   3.295  17.511  12.137 -0.0104 -0.1149 -0.0888
 3607W        W20454   6.433   0.122  12.492 -0.2555  0.1322  0.1671
 3608W        W20455   0.204   6.552   4.165 -0.1201 -0.2130  0.0413
 3609W        W20456   1.238  14.027   4.265  0.0291  0.3753  0.0011
 3610W        W20457   8.882   3.159  12.343 -0.2341  0.2037  0.3327
 3611W        W20458   5.979  13.386  13.150  0.2663  0.0853 -0.0319
 3612W        W20459   3.804   4.010   0.605  0.2413 -0.2434  0.0627
 3613W        W20460  13.932   8.719   1.685  0.1072  0.0046 -0.0088
 3614W        W20461   0.361   8.936   1.857  0.0111 -0.1297  0.1274
 3615W        W20462  17.168   3.262   4.585 -0.2877 -0.2916  0.2259
 3616W        W20463  17.415   3.735  14.368 -0.2283  0.1142 -0.2111
 3617W        W20464  18.246  10.769  12.601 -0.1987 -0.0077  0.1928
 3618W        W20465   8.721   6.139   2.289 -0.1917 -0.3941  0.2250
 3619W        W20466  15.361  15.272  14.556 -0.0170 -0.0377  0.0041
 3620W        W20467  10.732   9.859   3.334  0.0723 -0.1931  0.0639
 3621W        W20468   2.598  10.009   1.272  0.0508  0.1229 -0.0818
 3622W        W20469   9.521  12.970   2.515  0.1508 -0.2234  0.0046
 3623W        W20470   3.511   5.499   5.054 -0.2324  0.3728  0.0530
 3624W        W20471   0.962  11.531  15.027 -0.0369 -0.2577 -0.0191
 3625W        W20472  17.683  16.340   9.981  0.1987 -0.1001  0.1398
 3626W        W20473  12.050   3.112  12.060  0.0692 -0.2650  0.2474
 3627W        W20474   6.995  18.308  14.287 -0.0866 -0.0844  0.0523
 3628W        W20475  10.712   1.076   5.340 -0.0312 -0.0029 -0.2198
 3629W        W20476  17.966   3.000   4.446  0.2555  0.0111 -0.1470
 3630W        W20477   1.413   9.260  14.270  0.1588 -0.1892 -0.2431
 3631W        W20478   2.770  17.385  13.766 -0.0788  0.2824 -0.1306
 3632W        W20479   7.781   6.129  14.415  0.1533 -0.0570  0.1918
 3633W        W20480  13.228   8.730  13.214 -0.0663 -0.0861  0.0464
 3634W        W20481  10.489  17.137  15.321 -0.0233 -0.1225 -0.0863
 3635W        W20482  14.188  14.291  14.732 -0.2519 -0.1689  0.1148
 3636W        W20483   0.126   4.592   2.921 -0.0349 -0.0821  0.0601
 3637W        W20484   4.088   4.898   0.236 -0.0588 -0.2793 -0.1488
 3638W        W20485  12.244   9.490   0.064 -0.2909  0.1173 -0.1702
 3639W        W20486   9.377   4.695  11.209  0.1322 -0.2297 -0.0161
 3640W        W20487   2.959  17.669   1.101  0.0888 -0.0839 -0.0374
 3641W        W20488   8.817   2.433  11.276  0.0626  0.1107  0.0606
 3642W        W20489   8.238  13.661   4.064 -0.3625  0.2436 -0.1760
 3643W        W20490   3.008  17.700  14.734 -0.1029  0.0999 -0.0032
 3644W        W20491   6.801  17.148  12.432 -0.3640  0.2967 -0.1111
 3645W        W20492   3.944  14.722   1.706 -0.2856  0.1742  0.0246
 3646W        W20493  13.247   6.237  13.401  0.0054 -0.4326 -0.1367
 3647W        W20494   2.705   0.450  15.302  0.0196  0.2285 -0.1316
 3648W        W20495   0.328   6.460   2.286 -0.0335  0.0543 -0.1067
 3649W        W20496   9.256   3.005   5.025 -0.0301  0.0924 -0.4349
 3650W        W20497  12.017   8.560  14.299  0.3508 -0.0729  0.1002
 3651W        W20498  17.064  16.589  10.769  0.0698 -0.0070 -0.0861
 3652W        W20499   2.613  14.868   3.300  0.0156 -0.2846  0.0025
 3653W        W20500   7.938  17.962  12.454 -0.0153 -0.0695  0.1274
 3654W        W20501  16.741  15.983  14.497 -0.1673 -0.2273  0.1197
 3655W        W20502   6.270  13.302   4.649 -0.0346 -0.0520  0.0049
 3656W        W20503  18.123  17.672  14.539 -0.0675 -0.0107  0.2508
 3657W        W20504   9.043   2.960  11.519  0.1600 -0.3464  0.0560
 3658W        W20505   6.515  15.762  15.722  0.0705 -0.0970  0.2340
 3659W        W20506   4.899   6.611   4.034 -0.2828 -0.0769  0.1442
 3660W        W20507   7.136  14.010   3.737 -0.2155 -0.2521  0.0382
 3661W        W20508  11.836   8.294  11.106 -0.1639  0.2663 -0.0349
 3662W        W20509   3.908  13.542   0.572 -0.0331 -0.3254 -0.0826
 3663W        W20510  13.835   2.793   2.897 -0.3504 -0.0246  0.0908
 3664W        W20511   8.534   6.236   1.809 -0.0962  0.1023  0.1431
 3665W        W20512  13.107   0.634   2.317 -0.1360  0.0737  0.0256
 3666W        W20513   9.399   8.422  15.658 -0.3021 -0.0664 -0.1452
 3667W        W20514  13.169  12.949  14.310 -0.0287 -0.3340 -0.0442
 3668W        W20515   9.272   5.961  11.191  0.1742 -0.0706  0.0299
 3669W        W20516  11.642  11.398   2.244 -0.0654 -0.0540 -0.2304
 3670W        W20517  18.105  15.262   1.394  0.3311  0.0559 -0.0656
 3671W        W20518   9.121  13.810   4.741  0.2641  0.1060 -0.0331
 3672W        W20519  15.113  17.468  14.820 -0.4371  0.3698 -0.2006
 3673W        W20520  15.694   8.673   2.659 -0.0630 -0.1025  0.0651
 3674W        W20521   4.007   8.206   3.292  0.1561  0.3539 -0.2245
 3675W        W20522  14.090   7.567   0.319  0.0819 -0.1241 -0.0151
 3676W        W20523  10.114  11.317  14.318 -0.2097 -0.0383 -0.0833
 3677W        W20524   8.041  15.041   4.122 -0.1221 -0.0677 -0.0361
 3678W        W20525   3.611  12.988   4.746 -0.5282  0.1291  0.1693
 3679W        W20526   4.505   5.371  12.344 -0.3286 -0.1202  0.0839
 3680W        W20527   4.478  10.111  13.871 -0.0207  0.3435  0.1312
 3681W        W20528  16.057   3.067   4.968  0.1894  0.4400  0.0100
 3682W        W20529  12.043  14.561  14.426 -0.0953 -0.1871  0.1256
 3683W        W20530   6.716   2.418   2.984 -0.0738 -0.0255 -0.2707
 3684W        W20531   8.218  14.907   1.485  0.0605  0.0793  0.2524
 3685W        W20532   5.118   4.869  12.941 -0.3866  0.0219 -0.0069
 3686W        W20533  16.429   3.897  13.248 -0.1733 -0.0258  0.1388
 3687W        W20534   2.270   6.160  13.298  0.2881  0.2851  0.0990
 3688W        W20535  17.171   9.260  13.423  0.1101 -0.0872  0.0975
 3689W        W20536   9.257  16.639   2.065  0.0837 -0.2065 -0.1115
 3690W        W20537   4.501   0.705  14.658  0.3063  0.3006 -0.1752
 3691W        W20538  12.621  11.821   2.153  0.1461 -0.0217  0.0146
 3692W        W20539   4.713   8.956   3.580 -0.0977 -0.2977 -0.1492
 3693W        W20540  12.886  11.777  13.289 -0.0445  0.3009 -0.0938
 3694W        W20541   2.681  16.823   2.017 -0.0850 -0.2942  0.2001
 3695W        W20542   8.895   2.811  10.552  0.1964  0.0237 -0.0937
 3696W        W20543   4.607  15.028   2.444  0.0407 -0.1031  0.1481
 3697W        W20544   9.528  12.967   5.167 -0.2333  0.3135  0.2679
 3698W        W20545   9.478  13.704   5.222  0.1833 -0.0215  0.3347
 3699W        W20546  18.106  16.975   4.983 -0.0160  0.1601 -0.1935
 3700W        W20547  11.440  14.203  12.429  0.0267 -0.1647  0.0332
 3701W        W20548   3.592   0.128   0.208  0.3229 -0.0957 -0.3355
 3702W        W20549  13.793   2.541  14.599 -0.1283  0.0061  0.1117
 3703W        W20550   2.436   4.643   0.859 -0.2673 -0.1282 -0.1701
 3704W        W20551   1.265  16.222  15.939  0.1937  0.0669 -0.2367
 3705W        W20552   5.343   6.454  15.449 -0.0447  0.0268 -0.1032
 3706W        W20553   7.299  12.333   2.431 -0.1128  0.0971 -0.0887
 3707W        W20554  13.050   9.556  12.106 -0.0721 -0.1106 -0.0733
 3708W        W20555  18.256  15.336   3.946  0.1041  0.2722  0.1492
 3709W        W20556  11.266   0.714  10.915  0.2208  0.0976 -0.1523
 3710W        W20557   6.676  11.702   1.209  0.1672 -0.1571 -0.5149
 3711W        W20558   1.463  11.219  13.437 -0.2373  0.1634  0.0616
 3712W        W20559   6.105  16.818   4.749  0.1022  0.0187  0.2075
 3713W        W20560   4.717  12.986  10.569  0.0051  0.0144  0.0616
 3714W        W20561   1.636   3.559  14.977  0.2327 -0.1682 -0.2880
 3715W        W20562   1.420   6.508  14.774 -0.0185  0.1527  0.0061
 3716W        W20563   7.111  13.841   5.070 -0.1841  0.1876 -0.2831
 3717W        W20564   1.986   6.952  15.769 -0.1080 -0.0332  0.1430
 3718W        W20565   3.115  10.533  14.375  0.0880  0.2277  0.1508
 3719W        W20566   3.741   6.698   2.200 -0.0774  0.1655  0.1048
 3720W        W20567  16.486   4.319  11.733 -0.1981 -0.3051  0.1922
 3721W        W20568  12.098   6.432  15.672  0.2516 -0.1995 -0.0142
 3722W        W20569  16.687   4.677   4.349  0.0429 -0.0516 -0.0274
 3723W        W20570   6.762   8.412   3.733 -0.0711 -0.0416  0.3770
 3724W        W20571  11.749   3.594  12.028  0.0770 -0.0159  0.4504
 3725W        W20572   2.089   3.838   0.092 -0.2171 -0.1175 -0.2847
 3726W        W20573  11.256  16.636  13.974 -0.0127 -0.2123 -0.2505
 3727W        W20574   8.401   4.191  11.459 -0.1064  0.0722  0.1966
 3728W        W20575   0.248   5.879  13.192  0.2372  0.2230 -0.3709
 3729W        W20576   8.329  16.630  14.274 -0.0115 -0.1544 -0.0160
 3730W        W20577   8.062   7.783   4.421 -0.0751  0.1792 -0.1775
 3731W        W20578   6.956  16.794  11.440  0.1636  0.0885  0.0363
 3732W        W20579   6.842  12.281  13.402  0.1081  0.1353  0.3233
 3733W        W20580  13.163   8.438  12.831  0.0340  0.0502 -0.0214
 3734W        W20581   8.912   3.734   3.272 -0.1687 -0.1308 -0.1362
 3735W        W20582   8.288   6.984   3.488  0.0099  0.1613  0.1385
 3736W        W20583   9.523  11.841   4.302  0.2582 -0.1966 -0.0623
 3737W        W20584  15.455  10.179   4.486 -0.1363 -0.0985 -0.2153
 3738W        W20585  13.136   8.448   4.030 -0.3666 -0.1957  0.0364
 3739W        W20586   9.114  16.269  11.836  0.0099 -0.2007  0.3096
 3740W        W20587  11.499   2.231  11.998 -0.1115  0.0365 -0.2400
 3741W        W20588   6.500   8.724  16.042 -0.0824  0.0052  0.0563
 3742W        W20589  10.968  10.624  15.282  0.4834 -0.0210  0.2186
 3743W        W20590  16.653   7.739   2.288  0.2239 -0.3404  0.0429
 3744W        W20591  15.317   8.973  15.574  0.0971 -0.2442  0.3325
 3745W        W20592   1.645   3.910  12.586 -0.1040  0.1861 -0.1940
 3746W        W20593  11.464   8.611   5.117  0.0178 -0.3354  0.1043
 3747W        W20594  11.391  16.096   5.910 -0.0050 -0.0440  0.0615
 3748W        W20595  13.124  12.075   2.656 -0.2183 -0.2686  0.1333
 3749W        W20596  11.790  11.957   3.882  0.4575  0.1544  0.0658
 3750W        W20597  12.369  11.302  14.382  0.1336  0.0641  0.2408
 3751W        W20598  16.735   2.049  12.532 -0.1567  0.0224 -0.1219
 3752W        W20599   0.744   4.528   2.274  0.0813  0.0453  0.0586
 3753W        W20600   5.584   7.374   0.944 -0.0529 -0.2265  0.0920
 3754W        W20601   6.713   8.387   0.598  0.3069  0.0884 -0.1646
 3755W        W20602   7.911  16.849  14.478  0.0836  0.1565  0.1513
 3756W        W20603   8.113   6.753   3.874 -0.0401 -0.0480  0.2120
 3757W        W20604  17.671  16.869  11.536 -0.0629 -0.0574 -0.1486
 3758W        W20605  11.228   3.313   1.051  0.1718  0.0868  0.2007
 3759W        W20606  15.267   9.199  15.122 -0.1975  0.0454  0.0434
 3760W        W20607   2.154  17.277   3.929 -0.0452  0.0150 -0.0015
 3761W        W20608  17.913  10.979  12.268 -0.0742  0.1174  0.0019
 3762W        W20609   7.239   1.549   2.547  0.2252  0.1305 -0.0034
 3763W        W20610  12.121   0.502   3.146  0.2798 -0.2358  0.1068
 3764W        W20611   2.343  13.023  12.618 -0.1701  0.0644  0.3916
 3765W        W20612  17.100  10.673  13.422  0.0395 -0.2250 -0.0713
 3766W        W20613   9.737   8.107  14.278 -0.1730  0.0910  0.3501
 3767W        W20614  10.286   8.021  14.598 -0.3051 -0.2735  0.0515
 3768W        W20615  15.721   9.837  14.827  0.3365 -0.1346 -0.0392
 3769W        W20616  10.665   2.164  12.082 -0.0178 -0.1528 -0.0551
 3770W        W20617  14.746  11.144   3.045  0.1067  0.1066  0.0275
 3771W        W20618  16.126  16.968  14.088  0.1193 -0.1504 -0.1601
 3772W        W20619   6.388  18.154  15.593 -0.1605 -0.1439 -0.0573
 3773W        W20620  11.624   6.118   5.358 -0.1140 -0.0701 -0.0675
 3774W        W20621   9.988   6.954   4.713  0.0132 -0.2573 -0.0725
 3775W        W20622   4.742   3.715   3.490 -0.0306 -0.1890 -0.1168
 3776W        W20623   6.553   2.041  12.169  0.2399 -0.2381 -0.2787
 3777W        W20624   0.730   9.224   5.404 -0.2008 -0.1296  0.0081
 3778W        W20625  14.939  13.852  12.743  0.2891  0.3155  0.1372
 3779W        W20626   2.425  18.163   0.766  0.1610  0.1055  0.2567
 3780W        W20627   9.550  12.763   3.656  0.1028  0.1488 -0.1842
 3781W        W20628  17.315   8.118  12.573 -0.0698 -0.0269 -0.3340
 3782W        W20629  15.922  16.415   5.285 -0.2519  0.0603 -0.0475
 3783W        W20630   6.897   0.207  16.024  0.2336 -0.2270  0.0052
 3784W        W20631   8.814   0.856  14.333 -0.0838 -0.0227 -0.1374
 3785W        W20632   6.384   3.646   3.091  0.0079  0.2643  0.1487
 3786W        W20633   2.213  11.216   1.704 -0.0932  0.3073 -0.1176
 3787W        W20634   9.992   7.858  15.429  0.0987  0.2144 -0.0957
 3788W        W20635   2.206   0.418  15.788  0.3019 -0.1115  0.2098
 3789W        W20636   2.544  17.947  13.169  0.0356  0.1477 -0.2958
 3790W        W20637  16.335   1.472  10.631  0.1477  0.0789 -0.0791
 3791W        W20638   6.755   4.185   5.528 -0.2918 -0.3642  0.1183
 3792W        W20639  16.977   3.503   1.217 -0.2320  0.1857  0.1644
 3793W        W20640  15.213   2.819   2.809  0.0755 -0.0475  0.0788
 3794W        W20641  14.831   3.101   9.841 -0.0335 -0.0514  0.1000
 3795W        W20642  16.376  11.111   5.241  0.0570  0.1621  0.2026
 3796W        W20643   0.373  14.578   5.684  0.1105  0.2767 -0.0753
 3797W        W20644   2.972   9.125   0.989 -0.2677 -0.2128  0.0589
 3798W        W20645   9.629  14.683   3.192  0.2691 -0.1858 -0.1573
 3799W        W20646   5.701   1.607   1.720 -0.0694 -0.0273  0.0390
 3800W        W20647  17.140  17.245  13.031 -0.0307  0.0260  0.2144
 3801W        W20648  16.491  16.359  13.338  0.1733 -0.1042 -0.0726
 3802W        W20649  14.719   1.801  11.657 -0.4794  0.0174  0.2002
 3803W        W20650   8.708   2.985  11.868 -0.3324  0.2744 -0.0427
 3804W        W20651  16.434  10.080  15.934  0.2219 -0.1779 -0.2883
 3805W        W20652  17.797   8.387   1.680  0.0722 -0.3813  0.0520
 3806W        W20653  14.033  14.956   3.721 -0.1793  0.0594 -0.3099
 3807W        W20654   0.066   4.252  15.408 -0.1403  0.4186 -0.0129
 3808W        W20655   3.303  12.045  16.074  0.0166 -0.1916 -0.0536
 3809W        W20656  10.525   0.561   1.118 -0.2534  0.2360 -0.0791
 3810W        W20657   4.211   0.459  15.130  0.0068 -0.2247  0.0229
 3811W        W20658  11.405  17.500  12.569 -0.1996 -0.0670  0.0875
 3812W        W20659   6.944   5.400  12.992 -0.2060 -0.1177 -0.0554
 3813W        W20660   5.270  14.107  12.242 -0.0793 -0.0782  0.0830
 3814W        W20661  16.201   0.677   4.045  0.0488 -0.1347 -0.0878
 3815W        W20662  15.769  11.965   0.985  0.1175 -0.1851 -0.2084
 3816W        W20663  11.441   0.253  13.907  0.1646 -0.4649 -0.0206
 3817W        W20664   0.508   7.565   5.272 -0.1919 -0.2392  0.1269
 3818W        W20665   4.029   1.146   2.818  0.0573  0.4096 -0.2592
 3819W        W20666  14.155   5.090  10.122 -0.0534  0.0536 -0.0229
 3820W        W20667   6.006  13.192   2.196 -0.3977  0.1299  0.1341
 3821W        W20668  14.734  11.334   2.531  0.0000  0.0824  0.2470
 3822W        W20669   0.688  11.002  12.447 -0.1967 -0.1439 -0.2546
 3823W        W20670  16.745   6.517   3.830  0.0378 -0.0360 -0.0813
 3824W        W20671  11.874  15.022  14.669 -0.0504  0.0068 -0.0379
 3825W        W20672  15.128  17.207   4.177 -0.3721 -0.0820  0.0218
 3826W        W20673  15.965  10.583  11.510  0.1887 -0.1262  0.0734
 3827W        W20674  17.408   4.908  10.653  0.3227  0.3274  0.0890
 3828W        W20675   9.153   6.439   1.334 -0.1814 -0.2797 -0.2311
 3829W        W20676  13.477  14.062  12.134 -0.0798 -0.0231 -0.1982
 3830W        W20677  14.206  13.012   4.853 -0.2833  0.2942 -0.0584
 3831W        W20678  15.334   3.993  13.644  0.2963 -0.1106  0.2853
 3832W        W20679  10.786   9.223  12.453 -0.0321 -0.0017  0.0258
 3833W        W20680  17.329  17.035   3.412 -0.0997  0.1882  0.2038
 3834W        W20681  10.918  15.098   2.340 -0.0348 -0.2649 -0.1554
 3835W        W20682  14.660   6.791   1.311  0.1029 -0.1105 -0.1263
 3836W        W20683  13.827   8.734   4.124  0.0032  0.0297  0.0364
 3837W        W20684   7.764  14.626  12.388 -0.2544  0.0448  0.1152
 3838W        W20685   4.634  12.521  11.612  0.0785 -0.1034  0.0527
 3839W        W20686   4.466  16.035  12.367  0.1375  0.0184  0.2997
 3840W        W20687  16.777  13.204   0.755 -0.0924 -0.1824 -0.0962
 3841W        W20688   2.164  11.416   2.971 -0.0055 -0.1307 -0.3929
 3842W        W20689   8.208   5.481   4.011  0.2167 -0.0771 -0.2009
 3843W        W20690   1.095  10.857   3.013  0.3268  0.0330 -0.0396
 3844W        W20691   5.499   8.239   3.055  0.0768 -0.0145 -0.0952
 3845W        W20692  13.376   0.673   3.329  0.1310  0.1601 -0.1374
 3846W        W20693   7.223   3.815  12.951 -0.3699  0.0415  0.0905
 3847W        W20694   2.219   5.324   3.152 -0.0346  0.1393 -0.2933
 3848W        W20695   4.141  17.433  12.813 -0.1021  0.0069 -0.4242
 3849W        W20696   0.272  18.086   1.356 -0.0644  0.1766  0.0180
 3850W        W20697   0.539  11.617  15.539  0.1314  0.0224 -0.0389
 3851W        W20698  15.596  15.727  14.556  0.0002 -0.4524 -0.0927
 3852W        W20699   8.168   2.233   0.934  0.3026 -0.0315  0.0339
 3853W        W20700  13.649  14.293  13.597 -0.3550  0.1240  0.2490
 3854W        W20701  14.280  17.327   3.359  0.1494  0.2896 -0.0472
 3855W        W20702   8.248   9.262  14.853 -0.2369  0.1270 -0.2718
 3856W        W20703  10.917   0.374   4.087  0.1457 -0.0173  0.0797
 3857W        W20704   5.987  15.499   3.032  0.0473 -0.0056 -0.0934
 3858W        W20705   6.960   8.574  15.687  0.1795 -0.1525  0.0070
 3859W        W20706  10.963   2.079   1.715  0.5072  0.2476 -0.2523
 3860W        W20707   8.341  13.886   4.498  0.1851  0.2029 -0.0015
 3861W        W20708   2.199   7.451  12.399  0.0272 -0.0275  0.0878
 3862W        W20709  15.228  17.576   3.045 -0.0966 -0.3171 -0.0753
 3863W        W20710   1.106   1.001  11.196 -0.0348 -0.0263 -0.2451
 3864W        W20711   9.581   0.425   2.825  0.1753  0.1056 -0.0020
 3865W        W20712  14.076  14.052   3.730 -0.4194 -0.2407 -0.2444
 3866W        W20713  16.928   7.113  11.071  0.2306 -0.4074 -0.0397
 3867W        W20714   1.568   6.842   0.840  0.1782  0.2289 -0.4153
 3868W        W20715   2.300  12.405   1.016  0.4492  0.0500 -0.0009
 3869W        W20716   8.336  11.619  12.385  0.3084  0.1875 -0.0824
 3870W        W20717   3.647   1.887   3.323  0.0806 -0.1947  0.1675
 3871W        W20718   9.103   8.995   2.455  0.0678  0.0827  0.0487
 3872W        W20719  10.417  10.246   3.597  0.0007  0.0678 -0.2266
 3873W        W20720   8.919   2.234   5.281 -0.0429 -0.0744  0.2108
 3874W        W20721  15.106   0.547  13.142  0.0724  0.0792 -0.2249
 3875W        W20722   0.413  18.065  12.857 -0.0277  0.0363  0.3643
 3876W        W20723  17.522   1.856  12.730 -0.1758  0.0275  0.1185
 3877W        W20724   0.517  14.871   4.774 -0.4316  0.0765  0.0208
 3878W        W20725   4.372  17.443   0.024  0.0538  0.0193 -0.0998
 3879W        W20726   3.468   0.878   1.381  0.0939 -0.1737  0.2017
 3880W        W20727   9.333   8.424  14.106  0.0865 -0.5855  0.1049
 3881W        W20728   4.058  16.274  13.351 -0.1256  0.2109  0.0249
 3882W        W20729   3.075   7.190   4.297 -0.0957  0.1051  0.0555
 3883W        W20730  16.128  16.967  15.189 -0.1089 -0.0169  0.0246
 3884W        W20731  18.282   0.859  15.629 -0.0191  0.4320 -0.0024
 3885W        W20732  13.818   4.350  12.042  0.1385 -0.1797  0.0299
 3886W        W20733   3.673  12.268  13.003 -0.3749  0.0869  0.0589
 3887W        W20734  10.025   9.817   4.551  0.2908 -0.1647 -0.1225
 3888W        W20735  14.673   3.974   2.322 -0.6278 -0.1922  0.1494
 3889W        W20736  17.868  17.291  14.370  0.2677 -0.0884  0.0220
 3890W        W20737   3.879   9.484   3.961 -0.0545  0.1648  0.0620
 3891W        W20738   6.426   7.236   1.935  0.2481 -0.3284 -0.2189
 3892W        W20739   0.759   1.168   5.434  0.1196 -0.1366 -0.0072
 3893W        W20740  10.010  13.250   1.827 -0.0553  0.2435 -0.0356
 3894W        W20741   7.655   4.456   0.347 -0.0344  0.1491  0.1408
 3895W        W20742   5.280   5.829   6.126  0.1066  0.2140 -0.0234
 3896W        W20743   1.339   8.080  15.878 -0.1582 -0.0794  0.4427
 3897W        W20744   0.795   0.714  14.664 -0.0049 -0.4838 -0.1643
 3898W        W20745   9.953   0.686  15.853  0.2063  0.1135 -0.1335
 3899W        W20746   0.915   0.973  15.567 -0.0562  0.0993  0.0449
 3900W        W20747   4.854   6.075   0.905 -0.0555  0.0881 -0.1051
 3901W        W20748   1.760  13.045   5.558 -0.2002 -0.2240 -0.2128
 3902W        W20749   5.666   7.238  16.018  0.0974  0.0782  0.0046
 3903W        W20750   3.028   3.959  11.299 -0.1314  0.1995  0.1685
 3904W        W20751  17.030   6.318  14.903 -0.0573 -0.1578  0.0876
 3905W        W20752   7.368   5.477  13.225  0.0331  0.0261 -0.0073
 3906W        W20753   1.361  17.345  12.604 -0.2868  0.2010 -0.1834
 3907W        W20754  18.305   5.751  15.096  0.2706 -0.3496  0.3782
 3908W        W20755  15.095  13.063  14.208  0.1373  0.2280 -0.2172
 3909W        W20756   9.855  11.137   1.082 -0.1286  0.0283  0.0755
 3910W        W20757   4.922  10.552  13.098 -0.0859  0.1330 -0.2731
 3911W        W20758   4.776   1.604   2.921 -0.0189 -0.1323 -0.1810
 3912W        W20759   5.914   8.609   1.443 -0.0497  0.0809  0.1202
 3913W        W20760   6.111  14.236   4.427  0.1969 -0.2606  0.0573
 3914W        W20761   9.634   6.530   2.964 -0.0925  0.0071  0.4233
 3915W        W20762  16.462   6.345   2.486 -0.0461  0.2714 -0.3489
 3916W        W20763  17.528  12.828  15.096  0.0997  0.0981  0.0921
 3917W        W20764  15.445   4.573   0.001 -0.0503 -0.0688 -0.2683
 3918W        W20765   3.710   0.741  15.676 -0.2331  0.5653  0.0251
 3919W        W20766  14.062   6.394  14.778 -0.3642  0.0369  0.0632
 3920W        W20767  10.365   0.503   4.741 -0.2369  0.0364  0.2824
 3921W        W20768   5.811  14.969  13.803 -0.3218 -0.0732 -0.1552
 3922W        W20769   8.400   9.746   0.798 -0.1166 -0.0256  0.0568
 3923W        W20770   0.660  14.909  11.648  0.2021 -0.1026 -0.0148
 3924W        W20771   5.205  11.040  14.621  0.1116 -0.2336 -0.1813
 3925W        W20772   0.105   7.296   2.842  0.0010 -0.0391 -0.2060
 3926W        W20773   0.252   5.273   0.747  0.0360 -0.0458 -0.3176
 3927W        W20774  14.094  11.340  13.547 -0.0875 -0.1716  0.1102
 3928W        W20775   5.677   6.245   4.402 -0.1489  0.0651  0.2410
 3929W        W20776   0.798   9.792  14.006 -0.2518 -0.1533 -0.1333
 3930W        W20777  10.395   9.421  14.674 -0.3803 -0.1119 -0.1057
 3931W        W20778  12.043   6.403  11.308  0.3368 -0.1574 -0.1032
 3932W        W20779  12.205  18.059   2.682  0.1000 -0.0797 -0.4346
 3933W        W20780  13.749   3.147   0.059 -0.0092  0.0574  0.0263
 3934W        W20781  10.330  14.539   4.862 -0.2302 -0.0449  0.1307
 3935W        W20782  12.913   8.983   0.943 -0.0986 -0.0349  0.0745
 3936W        W20783   7.871  18.081  11.525 -0.1114 -0.2700 -0.1243
 3937W        W20784  11.945  13.124  11.744  0.0397  0.0364 -0.2093
 3938W        W20785   0.572   5.963   1.135 -0.2736  0.0107 -0.0275
 3939W        W20786  14.581   3.539   2.568 -0.0234 -0.0935 -0.0312
 3940W        W20787   8.130   5.811   4.472 -0.2316  0.3260 -0.2529
 3941W        W20788   3.280  11.216  15.969 -0.1466  0.0048 -0.1638
 3942W        W20789  13.279   4.767   3.874 -0.0219  0.0679 -0.2279
 3943W        W20790  12.692  12.427   3.886  0.1510  0.1092 -0.0503
 3944W        W20791   9.338   5.410  11.843  0.1830  0.4210 -0.0369
 3945W        W20792   8.670   3.562   4.752 -0.0476  0.0518  0.3008
 3946W        W20793   6.125   3.750   2.262 -0.0760 -0.2212  0.1451
 3947W        W20794   2.250  14.118   0.197 -0.0948 -0.5011 -0.2950
 3948W        W20795   3.211   9.779  13.645 -0.0027  0.2744 -0.2671
 3949W        W20796  11.263  16.772   1.693 -0.0610  0.4211 -0.2931
 3950W        W20797   7.550   9.681  14.689  0.5330  0.0039 -0.0823
 3951W        W20798  12.760  10.779   4.243 -0.1453 -0.1270  0.1128
 3952W        W20799  10.935  10.725   1.462 -0.3202 -0.1145 -0.0004
 3953W        W20800  10.791   5.712  12.664 -0.1690 -0.1269 -0.1392
 3954W        W20801  12.489  13.552   2.052  0.0969 -0.2572 -0.0023
 3955W        W20802  10.637  14.549  13.028 -0.0387  0.1638  0.1749
 3956W        W20803   4.633  12.509   3.912 -0.0184  0.1634 -0.0378
 3957W        W20804   4.624   2.623  12.835 -0.0379 -0.1076 -0.2137
 3958W        W20805   4.727   2.577  13.421 -0.3724 -0.2217  0.1668
 3959W        W20806   3.655   4.014  15.352  0.0089 -0.3652  0.1263
 3960W        W20807   4.711   4.566   2.531  0.2321 -0.3476 -0.1012
 3961W        W20808  17.403   5.715  15.604 -0.2542  0.0203  0.3150
 3962W        W20809   6.475   0.299  11.474  0.5402 -0.1265 -0.1006
 3963W        W20810  17.727   4.936  14.069  0.2896  0.1095 -0.0729
 3964W        W20811  14.842   0.081  12.839  0.1378  0.2949  0.2050
 3965W        W20812  11.706   6.888   2.546 -0.2114 -0.0760  0.0472
 3966W        W20813  14.377  10.748   3.518  0.0603  0.0375  0.1800
 3967W        W20814   9.337   9.945   5.718 -0.5631 -0.1131  0.3694
 3968W        W20815   4.811   0.851  13.355 -0.2178 -0.1963  0.2906
 3969W        W20816   7.824  12.531   4.156  0.2077 -0.0845  0.0556
 3970W        W20817   9.446  12.500  13.438 -0.1119  0.0352 -0.2897
 3971W        W20818   7.349   4.082  14.383 -0.1428 -0.1420  0.0914
 3972W        W20819   9.302   7.454  13.945  0.1994 -0.0329 -0.1044
 3973W        W20820   5.789  16.083   5.032 -0.0111 -0.0816 -0.0303
 3974W        W20821   3.334  11.916  11.838 -0.0063 -0.2182  0.0803
 3975W        W20822   1.113   3.373   3.606 -0.1856  0.0314  0.0058
 3976W        W20823  16.132  15.901   1.500 -0.1661 -0.3017  0.1163
 3977W        W20824   9.644   1.238   5.429  0.0935 -0.2445  0.0993
 3978W        W20825   5.916  12.109  12.880 -0.2252 -0.0024  0.3582
 3979W        W20826   1.979   5.560  12.136  0.1871  0.0131 -0.0502
 3980W        W20827   9.018   8.972  11.681 -0.1394 -0.0336  0.0479
 3981W        W20828   6.833  18.139   1.788 -0.0262 -0.0522  0.0525
 3982W        W20829   3.174   1.064   4.334  0.1626 -0.0086  0.1425
 3983W        W20830  17.169  15.032  15.448 -0.1288  0.0535  0.0097
 3984W        W20831   2.735   6.637  15.245  0.0554 -0.2088  0.1654
 3985W        W20832  16.847  10.471   1.185  0.0604  0.0101 -0.2224
 3986W        W20833   0.384   4.817  15.030  0.0577 -0.0553 -0.1484
 3987W        W20834  15.681  12.851   0.849  0.2834 -0.1880  0.0537
 3988W        W20835  12.101  14.531   4.682  0.2101  0.2370  0.0398
 3989W        W20836  16.627  12.951   3.751 -0.0507  0.3106 -0.0093
 3990W        W20837  16.172   9.489   4.173  0.0188 -0.1525  0.1362
 3991W        W20838  11.935  17.115  10.333  0.0296 -0.2392 -0.1487
 3992W        W20839   1.055  14.262  15.774 -0.2302 -0.1436 -0.1187
 3993W        W20840  13.698  16.947  15.866  0.1031  0.0735 -0.0104
 3994W        W20841  14.513   8.165  12.091  0.0630  0.0915 -0.0685
 3995W        W20842   8.748  18.027   3.146  0.1451 -0.4939  0.1328
 3996W        W20843   1.142  16.817   4.888  0.1068  0.3891  0.0751
 3997W        W20844  15.403   2.218   3.309  0.0673 -0.1581 -0.1057
 3998W        W20845  15.647   5.809   0.507 -0.1446 -0.3193  0.1721
 3999W        W20846   7.404  15.982   4.089 -0.2420 -0.1210 -0.0436
 4000W        W20847   7.598   9.929  11.497  0.3156  0.2785 -0.2069
 4001W        W20848  13.167   1.005  11.011  0.2479 -0.1067  0.2731
 4002W        W20849  10.356   3.092   0.365 -0.0590  0.1021 -0.0811
 4003W        W20850  12.351  14.994   3.834 -0.1851 -0.0232  0.0599
 4004W        W20851   0.405  10.912  13.383  0.1274  0.4085 -0.2051
 4005W        W20852  16.815   2.710  10.549  0.3013 -0.0056 -0.1607
 4006W        W20853   0.676   8.225  11.587  0.0986  0.2055 -0.1504
 4007W        W20854   9.648   4.043   4.632  0.0871  0.1119  0.0247
 4008W        W20855  16.908  12.856   4.259  0.1027 -0.0405 -0.1209
 4009W        W20856  17.221  15.703   0.048  0.1941 -0.1874 -0.2077
 4010W        W20857  15.600  17.817   3.874  0.2692 -0.1579 -0.1127
 4011W        W20858  10.958   2.944   3.596 -0.3550  0.1056  0.1290
 4012W        W20859   6.001  11.317  16.008  0.3554  0.2963 -0.0478
 4013W        W20860   8.334   2.081   4.294 -0.0216 -0.1637  0.2295
 4014W        W20861  16.679  14.821  15.478 -0.0403  0.2924  0.0520
 4015W        W20862  13.490   8.245  12.403 -0.0886  0.1728  0.0887
 4016W        W20863   7.861  11.602   1.802  0.4352  0.2001 -0.3339
 4017W        W20864  13.661   8.262   2.422  0.0090 -0.1439  0.1883
 4018W        W20865   5.381  13.257   3.441  0.2621  0.3375  0.0028
 4019W        W20866  11.403  12.401  11.637  0.0234  0.3727  0.1062
 4020W        W20867   5.441  12.356   6.058  0.1023  0.0033 -0.3302
 4021W        W20868  14.265  18.254   3.363  0.0237  0.1273  0.1411
 4022W        W20869  13.819   8.996  14.871  0.1259 -0.2939 -0.0867
 4023W        W20870  15.192   3.597   1.675  0.1108 -0.0654 -0.0174
 4024W        W20871   8.525   2.558  10.327  0.1688 -0.0139 -0.0959
 4025W        W20872   5.939  17.135   3.913  0.0755  0.0513 -0.0039
 4026W        W20873  18.214   2.452  15.159 -0.1991  0.0086  0.1074
 4027W        W20874   7.806  17.806   3.554 -0.2637 -0.4645 -0.1498
 4028W        W20875   2.386  10.067  10.802  0.1012  0.1173 -0.1114
 4029W        W20876  10.303  15.078  13.076 -0.2621 -0.2301 -0.0990
 4030W        W20877   1.312  12.187   1.466  0.1144 -0.1882  0.1512
 4031W        W20878   7.938   2.675   3.712  0.2445  0.2497  0.1773
 4032W        W20879   9.892   4.707  16.145  0.2806  0.0703 -0.2447
 4033W        W20880   3.396  11.523   0.160  0.3083 -0.2185  0.0209
 4034W        W20881  15.295  12.490   4.435  0.1981 -0.0376 -0.0496
 4035W        W20882   5.380  12.087   0.616  0.1310 -0.0120 -0.0403
 4036W        W20883   0.715   5.850  12.350  0.1722 -0.1767  0.0309
 4037W        W20884  12.120   3.826  11.701 -0.0253  0.2326 -0.1438
 4038W        W20885   2.852  17.267  12.036  0.1058  0.1798  0.2328
 4039W        W20886   6.291   5.957  11.987  0.3091 -0.1747 -0.0486
 4040W        W20887   7.668  10.403  11.756 -0.1694 -0.1921  0.0689
 4041W        W20888   2.416  15.261  15.512  0.1733 -0.1483  0.2355
 4042W        W20889  13.687  16.220  12.765  0.2434  0.1700 -0.3127
 4043W        W20890   4.052  14.858  11.698  0.2941 -0.0326 -0.1860
 4044W        W20891  12.008  12.428  10.912 -0.1902  0.1669 -0.1593
 4045W        W20892   3.359  14.559  16.030  0.0292  0.0037 -0.0818
 4046W        W20893  11.091   9.720   1.985 -0.0464 -0.0891 -0.0800
 4047W        W20894  10.978   5.256  11.844 -0.0880 -0.1133  0.1802
 4048W        W20895  10.912  13.110  11.424  0.1050 -0.0189 -0.0822
 4049W        W20896  17.247   5.860  11.883 -0.0610 -0.1847 -0.1837
 4050W        W20897   1.720  15.268   2.934  0.2359  0.0527  0.2270
 4051W        W20898  14.843  15.679   0.097 -0.1290 -0.3588 -0.0245
 4052W        W20899  18.185  13.466   2.674 -0.2212 -0.3410  0.0866
 4053W        W20900  16.089   6.704   1.923 -0.0114 -0.0869  0.1691
 4054W        W20901  15.562   5.833  10.665  0.1881 -0.2017 -0.2821
 4055W        W20902  15.556  12.377  11.789  0.1776  0.1428 -0.0882
 4056W        W20903  16.659  16.836  13.802 -0.0154 -0.3278  0.1160
 4057W        W20904   9.550  13.425   1.884  0.1144  0.2762  0.0626
 4058W        W20905   5.723  16.778   3.097 -0.0442 -0.2839 -0.2292
 4059W        W20906   8.145   3.857   3.033  0.0975 -0.1502  0.0702
 4060W        W20907  12.967   1.638  10.022 -0.0734  0.1807  0.0030
 4061W        W20908   3.009  12.088   4.986  0.2501 -0.0274  0.4444
 4062W        W20909   7.072  12.493   0.279  0.2006 -0.1452  0.1626
 4063W        W20910   7.298  11.134  14.670  0.3132 -0.0039 -0.1517
 4064W        W20911   7.147   5.930  11.894 -0.0456  0.1388 -0.1109
 4065W        W20912  13.660   1.348  14.749 -0.1541 -0.0192  0.3871
 4066W        W20913   7.071  11.906   0.860  0.1860 -0.2407  0.0366
 4067W        W20914   2.123   7.777   1.213 -0.2103  0.3080  0.0250
 4068W        W20915  10.460   4.279  12.749  0.0089  0.0967  0.0774
 4069W        W20916  15.482   7.368  10.929 -0.3380 -0.0761  0.1074
 4070W        W20917  16.784   4.201  14.860 -0.0825 -0.0568  0.1699
 4071W        W20918   2.672  18.234  15.310  0.2365 -0.0051 -0.2665
 4072W        W20919   8.244   0.435   2.625  0.0473  0.2754  0.0667
 4073W        W20920  15.029   3.207   1.298 -0.1487  0.1743 -0.0278
 4074W        W20921  14.875   2.327  11.646  0.1688 -0.1108  0.0774
 4075W        W20922   8.479   3.623   0.982 -0.0998  0.1727  0.1530
 4076W        W20923   6.806  17.445  11.996  0.0503 -0.0937 -0.1527
 4077W        W20924  16.231  16.017   5.557  0.1626  0.1060  0.0422
 4078W        W20925   2.544  17.640   4.810 -0.1121 -0.1868 -0.0783
 4079W        W20926   8.786  15.488   2.220 -0.1100 -0.1746  0.0828
 4080W        W20927  11.073  11.672  12.079 -0.1371  0.0529 -0.1223
 4081W        W20928   2.705   9.741   2.644 -0.2277 -0.1387  0.0472
 4082W        W20929  10.199   6.019  13.372  0.1294 -0.0596  0.0997
 4083W        W20930   3.321   3.574   3.262  0.1121 -0.0490 -0.1446
 4084W        W20931   4.723  18.035   1.751  0.2943  0.0174 -0.0708
 4085W        W20932  17.462   3.657   1.388  0.2831 -0.4338  0.5191
 4086W        W20933  12.275   1.995   1.181  0.6172 -0.0424 -0.0250
 4087W        W20934   1.966  16.300   0.830 -0.1485  0.0226 -0.0788
 4088W        W20935  15.473  11.168   1.933  0.2319  0.0425  0.0495
 4089W        W20936   7.262   4.115   1.454 -0.1201  0.2482 -0.3605
 4090W        W20937  11.448  17.273   4.989 -0.1642  0.1447 -0.1628
 4091W        W20938  12.691  13.403   5.182 -0.0414 -0.3595  0.0732
 4092W        W20939   7.422  13.294   0.328 -0.1912 -0.3841  0.1110
 4093W        W20940   9.076  11.995   1.715 -0.0346  0.0755 -0.0141
 4094W        W20941  10.160   1.675  11.606 -0.1079 -0.0809 -0.0359
 4095W        W20942   8.454   6.103  13.719  0.2443  0.1923  0.4529
 4096W        W20943   3.368   6.487   1.085 -0.1711  0.1776 -0.2345
 4097W        W20944  16.530   5.167  12.099  0.1370  0.1449  0.1229
 4098W        W20945   1.777  16.644   4.473 -0.4128 -0.0095 -0.3932
 4099W        W20946   5.494   4.097   3.007  0.0737  0.0206 -0.1922
 4100W        W20947  14.184  16.404   0.317  0.0163 -0.1371 -0.1411
 4101W        W20948   8.673  14.002  14.654 -0.0045  0.1948 -0.0247
 4102W        W20949  13.070   3.761   1.232  0.0756  0.2746 -0.2012
 4103W        W20950  14.951   0.688  10.709  0.0246  0.1131  0.0468
 4104W        W20951  12.964   9.241  11.532 -0.0378  0.0475  0.0971
 4105W        W20952   3.609   4.895   1.677  0.0220 -0.1002  0.0624
 4106W        W20953  11.995  10.132   0.495 -0.0619 -0.1830 -0.4168
 4107W        W20954  10.818  11.434   3.802 -0.0959  0.3974  0.1217
 4108W        W20955   7.322   4.733  12.521  0.2630 -0.2746 -0.1231
 4109W        W20956  11.166  15.574   3.165  0.0383 -0.1367 -0.1754
 4110W        W20957  12.370   8.229  15.165 -0.0999  0.2397  0.0020
 4111W        W20958   7.696  16.789  11.748  0.0693 -0.0493 -0.0134
 4112W        W20959  18.190  13.870   4.704  0.0760 -0.1789 -0.0645
 4113W        W20960  15.008  15.274   0.476 -0.3566 -0.0275  0.1749
 4114W        W20961   5.293   3.430  15.879  0.3036 -0.3578  0.1220
 4115W        W20962  12.621   5.225   3.047  0.0265  0.0616 -0.0056
 4116W        W20963   7.771   3.814   2.589  0.1322 -0.2178  0.1382
 4117W        W20964   4.275  14.358  11.434 -0.1823 -0.0755 -0.0886
 4118W        W20965   1.199  17.363   1.719  0.0039  0.0462 -0.1766
 4119W        W20966   7.607   0.604  11.470 -0.1157  0.1595  0.0283
 4120W        W20967   4.917  15.614   4.360 -0.0503 -0.0539 -0.0919
 4121W        W20968  15.067   9.524  12.947  0.2054  0.0972  0.0032
 4122W        W20969  14.542   4.088   4.369  0.0537  0.1732 -0.0402
 4123W        W20970  15.396   0.815  13.944 -0.0776  0.0233  0.2689
 4124W        W20971  15.248   8.724   4.010 -0.1695 -0.1024 -0.2761
 4125W        W20972   2.157  17.884   5.189 -0.1590  0.2486 -0.1601
 4126W        W20973  10.344   2.191  13.944  0.3362 -0.0622  0.2977
 4127W        W20974   2.761   9.985   0.727 -0.0924 -0.1265 -0.0179
 4128W        W20975   8.382   9.498  14.455 -0.1434  0.1454  0.1041
 4129W        W20976   3.585   7.980   3.159  0.0250  0.1256 -0.2096
 4130W        W20977  14.759  17.560   4.409 -0.0583  0.0858 -0.0249
 4131W        W20978   5.748   3.130  13.012  0.0275 -0.0046  0.1415
 4132W        W20979   1.931   6.574   2.510  0.2361  0.2666  0.1224
 4133W        W20980   6.968   2.708  15.875 -0.1900  0.3252 -0.3273
 4134W        W20981  12.968   6.097   5.019 -0.3226  0.0765 -0.3385
 4135W        W20982  18.103  17.612  12.001 -0.0998  0.2937 -0.1353
 4136W        W20983  13.792   7.749   1.461  0.0874  0.0041  0.3535
 4137W        W20984  16.824  16.295   4.992 -0.3281  0.1355 -0.0014
 4138W        W20985   0.706   4.456  13.176  0.2909  0.3552 -0.1704
 4139W        W20986   0.917  12.662   2.837  0.2137 -0.1485  0.0370
 4140W        W20987   4.458   5.833   6.060  0.1915 -0.1183  0.0222
 4141W        W20988   8.854  11.873  13.299 -0.0635 -0.0796 -0.0181
 4142W        W20989  15.065   7.750   4.670 -0.2314 -0.1925  0.1347
 4143W        W20990   7.595   2.896   5.423 -0.2922  0.2058  0.0155
 4144W        W20991  16.465  10.913   1.024 -0.0365  0.3562 -0.1968
 4145W        W20992   0.769   9.419  15.690 -0.2951  0.0132 -0.0060
 4146W        W20993   3.904   1.116  14.458 -0.2697 -0.2097  0.2071
 4147W        W20994   8.505  15.189  15.979 -0.1641  0.1831 -0.2800
 4148W        W20995  17.119  17.846   2.254  0.1347 -0.2674 -0.1265
 4149W        W20996  18.000  16.651   1.820 -0.1801  0.2124  0.1809
 4150W        W20997   8.273  18.130   3.408  0.1705 -0.0200 -0.0013
 4151W        W20998   7.327  13.432   2.182 -0.0034 -0.1345  0.1951
 4152W        W20999   4.007  14.019   5.099 -0.1544  0.1895  0.0305
 4153W        W21000   5.238  16.724  13.183 -0.2147  0.0468 -0.2185
 4154W        W21001  11.952   2.497  14.609 -0.3321 -0.4014  0.2404
 4155W        W21002  11.994   0.302  15.052  0.0519 -0.1014 -0.0598
 4156W        W21003  11.741  17.295   0.265 -0.2312  0.0734 -0.3810
 4157W        W21004   7.439  11.124   4.638 -0.1812  0.0590  0.0811
 4158W        W21005  18.028   4.017  11.333  0.2226  0.2257 -0.1647
 4159W        W21006   9.775  16.344   3.917 -0.2069 -0.4051 -0.0613
 4160W        W21007  11.820  12.179  11.843 -0.1242 -0.0380 -0.1324
 4161W        W21008   2.990  13.188   3.984 -0.0139  0.0687 -0.2840
 4162W        W21009  18.096   7.928  14.306 -0.0006 -0.1101 -0.0189
 4163W        W21010  10.716  16.942  14.782 -0.1127 -0.1050  0.0248
 4164W        W21011  11.935   7.348   1.142 -0.0026 -0.2655 -0.2695
 4165W        W21012  15.134  14.707  13.085 -0.2033 -0.2117  0.0739
 4166W        W21013   4.929   9.884   3.528  0.0997  0.3454  0.2248
 4167W        W21014   0.826  13.959   5.437 -0.1210  0.2953 -0.1149
 4168W        W21015   1.869   9.404  11.590 -0.1695  0.0539 -0.0757
 4169W        W21016   2.557   5.078   3.413 -0.0362 -0.3159 -0.1860
 4170W        W21017   4.204   7.115  11.989 -0.3009 -0.2879  0.2047
 4171W        W21018   5.173   2.724   3.250  0.0158 -0.0304  0.0622
 4172W        W21019   5.763   5.019  14.211 -0.1056  0.0924  0.1819
 4173W        W21020  10.643   5.436   3.916 -0.0910  0.0098 -0.2537
 4174W        W21021   7.980   8.169  13.623  0.0286  0.0782 -0.0354
 4175W        W21022  11.697   2.356   3.317  0.1385 -0.0201 -0.1488
 4176W        W21023  16.775  14.509   3.799  0.1340  0.0307  0.0092
 4177W        W21024  14.437  10.604  13.242  0.2899 -0.5560  0.0718
 4178W        W21025  14.265   3.917   1.425  0.1382  0.0413  0.4294
 4179W        W21026   1.816   4.252  11.712  0.0048  0.0414  0.2664
 4180W        W21027   4.595   7.844  16.014 -0.0253 -0.0164  0.3853
 4181W        W21028   4.319   4.201   3.211  0.2295  0.0769 -0.0479
 4182W        W21029  17.346  11.339   5.123  0.2998  0.1592  0.2608
 4183W        W21030   2.904  13.401   4.692 -0.1531  0.0300  0.2747
 4184W        W21031  12.201  11.999  15.958 -0.0823 -0.0614  0.0920
 4185W        W21032   8.162   5.298   1.478  0.1615 -0.1589  0.0406
 4186W        W21033  17.056  16.010   3.931  0.0365  0.1814  0.0911
 4187W        W21034   1.446  16.868   1.911 -0.0298 -0.1152  0.1339
 4188W        W21035  11.584   5.342  13.878  0.0384 -0.4440  0.0308
 4189W        W21036  11.725  13.818  12.314  0.2109 -0.0570 -0.1178
 4190W        W21037   1.408  11.244  11.741  0.1225  0.0529  0.2295
 4191W        W21038   2.461  17.669   0.963  0.0000 -0.2514  0.0150
 4192W        W21039   2.833   9.373  11.782  0.1210 -0.0653  0.1402
 4193W        W21040  14.804   4.192   1.401 -0.0300  0.1172  0.1206
 4194W        W21041  10.915  14.530   3.208 -0.0054  0.0468  0.0461
 4195W        W21042   8.471   4.906  15.481 -0.2817  0.0740 -0.0173
 4196W        W21043  13.586   6.956   3.555  0.1836  0.1024  0.1323
 4197W        W21044   1.586   1.697   1.387  0.2258  0.0068 -0.0843
 4198W        W21045  10.730   8.804  15.329 -0.0789 -0.1228  0.1045
 4199W        W21046  13.980   2.226  12.910  0.1216 -0.0855 -0.0721
 4200W        W21047  11.771  12.592  11.356  0.0855  0.2360  0.1857
 4201W        W21048  16.642  12.261  11.564 -0.0970  0.1332 -0.0219
 4202W        W21049   5.183   1.511   2.581  0.1238 -0.2683 -0.0759
 4203W        W21050   8.231   3.939  12.482 -0.0802 -0.0899 -0.2462
 4204W        W21051   9.631   3.174  13.892  0.2074 -0.0661  0.1832
 4205W        W21052  10.231   7.784   2.545  0.4002 -0.2847 -0.0650
 4206W        W21053   7.724   4.280   1.190  0.0966 -0.1395 -0.0693
 4207W        W21054  12.494   0.884   4.558 -0.0868  0.1375 -0.2437
 4208W        W21055   9.051   0.503  15.575 -0.1322  0.5247 -0.0949
 4209W        W21056  16.379   7.046  13.933  0.2030 -0.1846 -0.0768
 4210W        W21057   2.050   9.875  11.534  0.1685 -0.1239 -0.3028
 4211W        W21058   6.912   9.898   5.089 -0.2218 -0.2551 -0.0404
 4212W        W21059   1.358   5.468  14.081  0.0475  0.0770 -0.1503
 4213W        W21060   1.710   0.873  13.415 -0.0780  0.2130 -0.0028
 4214W        W21061   8.308  12.161  14.206  0.0657  0.1469 -0.2335
 4215W        W21062  12.708   7.171   1.792 -0.2224  0.0336 -0.0796
 4216W        W21063   5.966   5.490  14.383  0.1662  0.0985 -0.1180
 4217W        W21064   4.204  10.295   5.521  0.1249  0.2930  0.1208
 4218W        W21065   0.218   7.424  11.809 -0.1716  0.1281 -0.2521
 4219W        W21066   5.083  10.450   2.038 -0.0237  0.0527  0.0308
 4220W        W21067  17.214   2.607  14.945  0.3269  0.0162  0.3157
 4221W        W21068   3.523  14.649  11.634 -0.0788 -0.0512  0.0231
 4222W        W21069   3.457   9.307   5.433  0.0134 -0.1905  0.1123
 4223W        W21070   6.999  13.182  14.736  0.0609  0.2615  0.0331
 4224W        W21071   5.764  11.745  12.106  0.2040 -0.0624 -0.1620
 4225W        W21072  10.959   4.217  14.650 -0.2530  0.0836 -0.1613
 4226W        W21073  12.672  14.084   1.358  0.5068 -0.1817  0.1632
 4227W        W21074   3.771   2.801  14.583 -0.1737  0.3357 -0.3133
 4228W        W21075   6.233   2.966  13.170  0.0824  0.1719  0.3773
 4229W        W21076   6.450   1.566  13.677  0.0045 -0.1396  0.0274
 4230W        W21077  10.912  15.112   4.047  0.0523  0.0639 -0.2079
 4231W        W21078  10.395   5.241  12.788  0.0881 -0.0977  0.2034
 4232W        W21079  12.075  14.770  13.241  0.0460  0.0624  0.0403
 4233W        W21080   1.981   1.133   3.038  0.0110  0.2347  0.0443
 4234W        W21081   8.375  10.828  14.105 -0.4866 -0.0741  0.1827
 4235W        W21082   1.828   0.872   3.700 -0.0541 -0.1959 -0.1401
 4236W        W21083  16.666  14.400   1.309  0.0611 -0.1227  0.1701
 4237W        W21084   9.383   5.557   1.047 -0.1487  0.1411 -0.1674
 4238W        W21085  12.120  13.178   3.871  0.0281 -0.1295 -0.0765
 4239W        W21086  15.106  11.296  13.433  0.2212  0.1816 -0.1844
 4240W        W21087   1.717   9.375  14.699 -0.1277 -0.1387  0.0388
 4241W        W21088  11.243  14.358  14.194 -0.1284  0.1374 -0.2765
 4242W        W21089  13.935   1.231   3.423  0.0572 -0.0404 -0.0091
 4243W        W21090  17.275   3.566   0.819  0.0444  0.0743 -0.3481
 4244W        W21091   5.833  15.067   1.637  0.0202 -0.0055  0.2113
 4245W        W21092   4.528  12.045   4.163 -0.0658  0.0105  0.1369
 4246W        W21093   9.094  14.931   0.408  0.1637 -0.0563  0.1237
 4247W        W21094   0.254   0.130  13.325  0.0572 -0.2253  0.0601
 4248W        W21095  11.927  14.701   2.333 -0.0763  0.0292  0.0868
 4249W        W21096  17.178   9.995  12.433 -0.2943  0.0153  0.0739
 4250W        W21097  15.732   5.432   0.175  0.2970  0.0439  0.1590
 4251W        W21098   7.577  10.269  10.921  0.0010  0.3176  0.0299
 4252W        W21099  10.549   1.528  12.336 -0.1199 -0.0798  0.0381
 4253W        W21100   9.231   1.985  10.093  0.2714 -0.1527 -0.1597
 4254W        W21101   6.408  10.724   3.231  0.1700 -0.0833  0.1778
 4255W        W21102   3.011  14.933  12.992 -0.1914  0.0776  0.0120
 4256W        W21103  13.309   2.219   2.218 -0.0085  0.1189 -0.1918
 4257W        W21104   5.388   1.817   6.160 -0.3570 -0.0952 -0.1521
 4258W        W21105   7.584   9.423   4.433  0.0024 -0.1112 -0.2666
 4259W        W21106  12.421   2.356   0.341 -0.0032  0.0583  0.2224
 4260W        W21107  13.108  17.954   3.024 -0.2294  0.2540 -0.1296
 4261W        W21108  10.249   3.198   1.068 -0.4214  0.1063  0.1471
 4262W        W21109  13.055   7.586  15.389 -0.1750 -0.0098 -0.2702
 4263W        W21110   7.380  11.808   3.421  0.0700 -0.1001  0.0299
 4264W        W21111   3.138  16.663   4.652 -0.1254  0.0907  0.1398
 4265W        W21112   7.163  10.898   1.904 -0.1652  0.2832  0.0284
 4266W        W21113  16.355  13.469   0.991  0.0636  0.1023 -0.0055
 4267W        W21114  14.873   2.079   0.122 -0.0861  0.1233 -0.0440
 4268W        W21115  12.844  14.638  16.018 -0.0868  0.2253 -0.2797
 4269W        W21116   5.608   2.271   2.088 -0.1390 -0.0027  0.0558
 4270W        W21117  11.188   5.024   1.328 -0.1582  0.1795  0.1302
 4271W        W21118  17.636  15.062   1.282  0.0262  0.1002 -0.0741
 4272W        W21119   4.685   5.044   5.191  0.0749 -0.1051  0.1527
 4273W        W21120   6.860   0.850   0.702 -0.0830  0.2474  0.2452
 4274W        W21121   2.002  15.024   2.555  0.2525 -0.0694 -0.0539
 4275W        W21122   1.814   5.106  11.997  0.1522  0.2386  0.0100
 4276W        W21123  12.928   9.004   3.277  0.1494  0.1569 -0.0188
 4277W        W21124   6.616   7.401   0.216 -0.0209 -0.4945 -0.0271
 4278W        W21125   1.011   9.814   4.985 -0.0294 -0.0636  0.3199
 4279W        W21126   0.848  13.423   5.650  0.0786 -0.1899  0.2032
 4280W        W21127   2.343  10.174  13.676 -0.0546 -0.0326 -0.0965
 4281W        W21128  12.716   5.179  10.870  0.2348 -0.1825 -0.0460
 4282W        W21129  10.916   0.975   1.807 -0.1460  0.1500 -0.0687
 4283W        W21130  17.746   5.163   1.382  0.2670  0.0651 -0.3664
 4284W        W21131   9.022   7.764   4.585  0.0238  0.0842 -0.0428
 4285W        W21132   7.372  14.607  13.497 -0.2558  0.3330  0.1089
 4286W        W21133   8.998   3.603   0.197 -0.2441  0.1366 -0.0846
 4287W        W21134   9.092  17.016  12.367 -0.1693  0.0261  0.1096
 4288W        W21135  17.316   8.468  14.547  0.0526  0.1145  0.1177
 4289W        W21136   6.188   9.587  15.929  0.3887  0.1303  0.0847
 4290W        W21137  10.913  17.045   3.462 -0.3041  0.1512 -0.0278
 4291W        W21138  11.130  10.714  12.464  0.0204  0.1353 -0.3214
 4292W        W21139   4.981   8.967   0.590  0.0158  0.0423 -0.3287
 4293W        W21140  13.595  18.312   2.557  0.0613  0.2064  0.1124
 4294W        W21141   0.030   3.339  13.232  0.3833  0.0319 -0.1531
 4295W        W21142  13.941  14.699  13.486  0.2295 -0.1019 -0.3171
 4296W        W21143   8.635  12.204   4.605 -0.3915 -0.4008  0.0348
 4297W        W21144   2.595  13.537  15.215  0.3102 -0.1290 -0.0039
 4298W        W21145   5.137  12.027  11.585  0.4177  0.1777  0.2456
 4299W        W21146  15.071  15.082   4.513 -0.0451 -0.3575 -0.0964
 4300W        W21147   2.575  12.920   2.635 -0.2447  0.3025  0.1387
 4301W        W21148   5.573  13.807  12.556  0.0953 -0.0765 -0.4050
 4302W        W21149   6.654  16.039   0.104  0.1030 -0.0669 -0.0080
 4303W        W21150  16.342   3.339   4.351 -0.1029 -0.1959 -0.1788
 4304W        W21151   1.367   2.876  12.261 -0.3235  0.2484 -0.1062
 4305W        W21152  13.025   4.880  11.389 -0.3083  0.0394  0.0574
 4306W        W21153   3.383   6.155   5.079 -0.1832  0.2133  0.2417
 4307W        W21154  13.982  11.750   1.753 -0.1010 -0.1014  0.1575
 4308W        W21155  10.337   7.221  12.878  0.2302  0.1013 -0.0360
 4309W        W21156   1.514   5.617   3.183  0.2021  0.2548 -0.0618
 4310W        W21157  17.949   9.070   4.318  0.0582 -0.3253 -0.2631
 4311W        W21158  15.063  18.233  13.653 -0.0843  0.0640  0.3285
 4312W        W21159   2.989  14.567  11.025  0.0580 -0.0903 -0.1752
 4313W        W21160  15.468   1.328  12.306 -0.1316 -0.2157 -0.1204
 4314W        W21161   8.940   9.739  12.601 -0.0857  0.0490  0.0181
 4315W        W21162  14.321  15.342   3.128 -0.1313  0.1148  0.2683
 4316W        W21163   8.611   5.638   2.180 -0.1393 -0.1772 -0.0492
 4317W        W21164  12.654   0.601   3.984 -0.3154  0.2132  0.0656
 4318W        W21165  16.502   8.991   3.926  0.0552 -0.1010 -0.1164
 4319W        W21166   2.691  16.133  12.987 -0.0288 -0.2818  0.0772
 4320W        W21167   1.827   1.939  16.155 -0.0473 -0.3942  0.2459
 4321W        W21168   4.328  16.252   4.606  0.0640 -0.1497 -0.1214
 4322W        W21169   0.846  12.215  12.480  0.0602 -0.4633 -0.4411
 4323W        W21170   6.682  12.147   1.134  0.0335 -0.0704  0.2105
 4324W        W21171   7.937  14.967  14.471 -0.1931 -0.1359  0.3205
 4325W        W21172  14.566  14.367   2.346  0.4545  0.0333  0.1065
 4326W        W21173  11.872   2.663   0.849 -0.1064 -0.2236  0.0517
 4327W        W21174   3.312   6.801  15.208  0.2746  0.0418  0.0269
 4328W        W21175  14.985  16.423   5.005  0.5191 -0.3192  0.0184
 4329W        W21176   3.059   1.209  11.372  0.1545 -0.0213  0.2391
 4330W        W21177  14.282  17.958   1.602  0.1377  0.0213  0.1669
 4331W        W21178   2.526  17.959  11.489  0.1944  0.0061 -0.2441
 4332W        W21179  14.373  16.066  12.346 -0.2914  0.0497 -0.2141
 4333W        W21180   5.404  12.271   1.433 -0.1331  0.0462 -0.0939
 4334W        W21181  18.313   8.272   3.483  0.0883  0.1892  0.4533
 4335W        W21182   2.128   2.174  15.849 -0.0978 -0.0501  0.0197
 4336W        W21183  14.244   4.714  13.332 -0.1130  0.2628  0.1442
 4337W        W21184   0.234  10.474   1.489  0.0962 -0.0154  0.4060
 4338W        W21185   2.628   9.554   1.530  0.2274 -0.0751  0.1435
 4339W        W21186  18.289  16.895  15.051 -0.0729  0.1256 -0.2645
 4340W        W21187   9.300  11.535  16.047  0.4367 -0.1579  0.0145
 4341W        W21188  17.346  15.025   2.155 -0.1668  0.0327  0.0830
 4342W        W21189  16.816   8.488   0.153 -0.0681  0.1004  0.0320
 4343W        W21190  11.725   1.446   4.207  0.1053 -0.2831 -0.0506
 4344W        W21191   7.803  15.421   3.866 -0.3077 -0.1159  0.3060
 4345W        W21192   0.842  14.878  12.486 -0.2301  0.1050 -0.1708
 4346W        W21193   6.122  16.914  13.939 -0.0307  0.1693  0.0363
 4347W        W21194  17.584   3.995  13.146  0.0731  0.1817 -0.2983
 4348W        W21195  14.001  17.853  14.079  0.1427  0.1905 -0.1318
 4349W        W21196  11.625   0.517   3.644  0.3429  0.0649  0.0426
 4350W        W21197  11.677  14.704  11.279 -0.1355 -0.3030  0.0243
 4351W        W21198  10.685   5.779  13.230 -0.1745 -0.2756  0.0875
 4352W        W21199  16.478   7.155   1.100 -0.2455 -0.0675  0.0865
 4353W        W21200   7.042   5.011  14.931  0.1118  0.0399 -0.0793
 4354W        W21201  14.857   4.675   1.579  0.1697 -0.0345  0.0374
 4355W        W21202   1.129   2.301   2.986  0.1434  0.1294  0.0285
 4356W        W21203  14.225   1.880   5.741 -0.1409 -0.3151  0.1604
 4357W        W21204   1.425   6.756  15.555  0.0650 -0.3265 -0.0432
 4358W        W21205  14.179   7.720  11.844  0.0407 -0.2252 -0.0494
 4359W        W21206  14.724   3.937   5.507 -0.0297  0.3348 -0.0156
 4360W        W21207   3.276   2.917  14.452  0.1572 -0.3093  0.2771
 4361W        W21208   5.862  12.219   1.672  0.0701  0.0480  0.0249
 4362W        W21209   8.514  12.088   1.656  0.1327  0.0611  0.0164
 4363W        W21210  15.934  14.504  10.734 -0.0018 -0.0321  0.2344
 4364W        W21211  14.291  12.411   2.942  0.0858  0.0830  0.0756
 4365W        W21212   6.749   2.253   2.250 -0.1184 -0.0618 -0.2478
 4366W        W21213   7.485  14.458  11.778  0.2151 -0.1378 -0.1478
 4367W        W21214  16.135   3.327   3.759  0.0611  0.3658  0.1390
 4368W        W21215   5.769  12.409   3.420 -0.0125  0.2141 -0.1008
 4369W        W21216   7.348   2.001  12.861  0.0014  0.0159  0.0460
 4370W        W21217  18.125   4.606   2.029 -0.1432  0.1159  0.2618
 4371W        W21218  17.955   6.548   4.902 -0.0072 -0.2089  0.0258
 4372W        W21219  15.508   6.116  12.071 -0.1958  0.0888  0.1430
 4373W        W21220   5.460   6.097   2.660 -0.0651 -0.2081 -0.0483
 4374W        W21221   5.457   9.692  15.250 -0.1625  0.2531  0.1870
 4375W        W21222   7.295  14.542   3.552  0.1571 -0.3237  0.0849
 4376W        W21223   8.258   8.296  14.748 -0.1873  0.2134  0.1794
 4377W        W21224   2.177   2.178   4.428  0.0620 -0.1742  0.2988
 4378W        W21225   2.317  10.377   1.460 -0.2475  0.1112 -0.1673
 4379W        W21226   0.490  17.841   2.609 -0.2356 -0.2243  0.2108
 4380W        W21227  17.320  11.491   2.981 -0.6697 -0.3366 -0.2852
 4381W        W21228  11.380  12.956  11.443 -0.1073 -0.1248  0.0866
 4382W        W21229  10.487  13.181   0.380 -0.0007 -0.1072  0.0400
 4383W        W21230   8.182  14.539  14.099 -0.0641 -0.2272 -0.0654
 4384W        W21231   3.897   2.594   0.723 -0.0460  0.1833 -0.1184
 4385W        W21232  14.510   8.485   2.315  0.4748 -0.0863  0.1215
 4386W        W21233   0.140   0.979   1.114 -0.2727  0.0594  0.0531
 4387W        W21234  12.530   3.728  15.086  0.0922 -0.0924  0.2353
 4388W        W21235   9.884  13.585   0.965  0.1249 -0.1150 -0.1896
 4389W        W21236  11.642  10.209   4.222 -0.0531  0.5685 -0.2281
 4390W        W21237  12.500   2.886  12.229  0.1509 -0.1354 -0.0455
 4391W        W21238   0.313   2.046   3.081  0.2166  0.1293  0.2197
 4392W        W21239   8.283   1.008   3.614 -0.0697  0.1260  0.1954
 4393W        W21240  16.612  14.277   2.883 -0.0025 -0.2244  0.3651
 4394W        W21241  16.078   3.449   1.520 -0.0151  0.2870  0.3526
 4395W        W21242   9.908  17.986  15.289  0.0521  0.0347  0.2168
 4396W        W21243  11.374   6.080  12.187 -0.1539 -0.0478  0.0996
 4397W        W21244  14.006  17.563   1.391 -0.0133 -0.1028 -0.0900
 4398W        W21245   3.636  14.446   0.450 -0.2573  0.1996 -0.0240
 4399W        W21246   6.939  11.591  11.706  0.2460 -0.1381 -0.0954
 4400W        W21247   2.111  15.856   4.481  0.1677  0.0526 -0.0255
 4401W        W21248  10.489  12.731   3.281  0.1854  0.0432 -0.0439
 4402W        W21249  13.164   1.515  11.028 -0.2532 -0.3026  0.0260
 4403W        W21250   0.237  11.100  11.943  0.0622 -0.1732  0.0956
 4404W        W21251   4.786   3.705   4.937  0.0068 -0.3470  0.0194
 4405W        W21252   6.021   3.918  14.344  0.0972 -0.1185 -0.3006
 4406W        W21253   2.811  16.840   3.618 -0.1489 -0.2060  0.1116
 4407W        W21254   6.962  11.406  12.179 -0.1343  0.2267  0.0505
 4408W        W21255  16.742   1.115  13.019  0.1352 -0.1091 -0.1293
 4409W        W21256   2.247   7.395   0.833  0.1127 -0.0743  0.1519
 4410W        W21257  17.060   6.280   5.297 -0.3211  0.0284  0.4681
 4411W        W21258  11.576  14.461   4.247 -0.0205 -0.1634  0.2538
 4412W        W21259   5.193   4.467   4.598  0.1750 -0.1716 -0.1406
 4413W        W21260  14.006  16.012   6.223  0.0574 -0.0161 -0.0012
 4414W        W21261   3.896   4.445   0.927 -0.3502  0.1654 -0.1900
 4415W        W21262  11.609   0.451   2.041 -0.0032  0.2728  0.2252
 4416W        W21263   5.546  17.628  13.816 -0.4629  0.2077  0.1404
 4417W        W21264   2.640   2.414  15.495  0.1432 -0.1083  0.0598
 4418W        W21265  11.280  14.909  14.288  0.2824 -0.1180  0.3378
 4419W        W21266   3.881  17.256   4.222 -0.1585 -0.1981  0.3185
 4420W        W21267   4.899  12.957  13.347  0.0124  0.1066 -0.0990
 4421W        W21268   0.058   2.088  13.613  0.2150  0.2298  0.2893
 4422W        W21269   3.221   9.626   2.282  0.0353 -0.0117  0.0812
 4423W        W21270  16.454   4.564   3.539 -0.1473 -0.0594 -0.1472
 4424W        W21271  12.344   7.205   4.184  0.0444  0.2059  0.0355
 4425W        W21272   5.760   2.104   2.547  0.0536  0.0176  0.3789
 4426W        W21273   3.566   9.101   2.905 -0.3019  0.1053  0.0150
 4427W        W21274  10.257   8.963  14.729 -0.0752  0.0210  0.0148
 4428W        W21275  10.959  10.311  14.750  0.2467  0.1106 -0.1295
 4429W        W21276  13.702  14.865   3.385  0.0042  0.2293  0.0829
 4430W        W21277  12.173   6.828  13.755 -0.2419 -0.0658 -0.0057
 4431W        W21278   9.230   0.931  15.345  0.0807  0.1070 -0.0152
 4432W        W21279   9.128  10.563  14.598 -0.0480 -0.2986 -0.1976
 4433W        W21280   2.022   3.486   0.509  0.2387  0.0714 -0.0773
 4434W        W21281   7.265   6.048   5.998 -0.0774 -0.0434 -0.1243
 4435W        W21282   5.578  10.835   1.575 -0.2936 -0.3617  0.2334
 4436W        W21283  12.304   0.708  15.161 -0.1111  0.3770  0.0286
 4437W        W21284   7.153   6.770  12.730 -0.0584 -0.1097 -0.0824
 4438W        W21285  16.553   6.582   1.237 -0.1498 -0.0172 -0.0640
 4439W        W21286  14.752  17.129  12.263  0.1327  0.2550  0.1036
 4440W        W21287   8.265  14.088  12.912 -0.0249 -0.0084 -0.0938
 4441W        W21288   7.506  12.525  13.961  0.0973  0.1484  0.5230
 4442W        W21289   7.586   0.372  13.102 -0.3264  0.0571 -0.1740
 4443W        W21290   4.908  10.387   4.300 -0.0080 -0.1004 -0.0458
 4444W        W21291   5.167   4.736   2.184  0.1832  0.1786 -0.0780
 4445W        W21292  13.462  12.981   3.319 -0.2014 -0.0223 -0.1608
 4446W        W21293   2.827   9.745  12.111  0.0091 -0.2501  0.3429
 4447W        W21294   5.514   0.164   0.523  0.1053 -0.0176 -0.0921
 4448W        W21295  16.335  12.567   1.297 -0.0091  0.1364 -0.1440
 4449W        W21296   4.714  11.284  13.490 -0.3886 -0.0819  0.2549
 4450W        W21297  13.058   4.737   0.554  0.2043  0.3095 -0.1556
 4451W        W21298  16.271  14.245   4.949  0.0432 -0.2398 -0.0789
 4452W        W21299  10.895  13.959  11.233  0.1994  0.3343  0.2560
 4453W        W21300  17.897   8.380  15.319 -0.2030 -0.3952 -0.0413
 4454W        W21301   9.615   7.798   4.386  0.4238 -0.0580 -0.0435
 4455W        W21302   6.056   4.584  14.190 -0.0455 -0.0600  0.1058
 4456W        W21303   8.831   0.817  11.719  0.1028 -0.0690 -0.1524
 4457W        W21304   7.055   9.303   0.707  0.1389  0.2299 -0.3413
 4458W        W21305  13.868   4.139   1.650  0.1607 -0.0855  0.0228
 4459W        W21306   4.635  12.924  14.671 -0.3079  0.0881  0.0060
 4460W        W21307   5.525  13.471   4.251 -0.0060 -0.0098  0.0475
 4461W        W21308   4.222  14.678   2.848 -0.3405 -0.2051  0.2473
 4462W        W21309   9.718  11.767  13.747  0.1037  0.0366  0.1008
 4463W        W21310  13.886   3.284   2.159  0.0480 -0.2530 -0.0027
 4464W        W21311   0.036  13.210   3.970  0.0416 -0.0240  0.2535
 4465W        W21312   1.116   4.572  11.417 -0.0906 -0.0282  0.2987
 4466W        W21313  17.126  12.454  14.233 -0.3399  0.2458  0.0169
 4467W        W21314   0.957  10.892  16.007 -0.1743  0.0411  0.1756
 4468W        W21315  10.167  12.554  13.079  0.2491  0.0581  0.0320
 4469W        W21316  16.462  12.381  14.818 -0.0278  0.3172 -0.2319
 4470W        W21317  13.866   3.284   5.747 -0.2869 -0.1671  0.1056
 4471W        W21318  12.119  11.779  12.611 -0.0237 -0.2424  0.0555
 4472W        W21319   4.102   1.270   4.341 -0.1785  0.1864  0.0538
 4473W        W21320   4.129   2.033  12.102 -0.2203 -0.0650 -0.1904
 4474W        W21321  14.325  14.044  14.330  0.0161 -0.0356  0.0883
 4475W        W21322   3.669   8.422   5.334 -0.0734 -0.1355  0.0613
 4476W        W21323   9.658  15.600  12.330  0.3018  0.0681 -0.0708
 4477W        W21324   3.301   1.558  12.133  0.0960  0.1628  0.0623
 4478W        W21325   9.801  13.305   2.267  0.1019 -0.0304 -0.1935
 4479W        W21326   6.190  17.376  13.824 -0.1143 -0.0669  0.1129
 4480W        W21327  10.038  11.701   3.135  0.5285  0.0216 -0.0404
 4481W        W21328   9.914  11.754  15.856 -0.0099 -0.1706  0.1187
 4482W        W21329  15.442  11.714  13.618  0.4804  0.0077  0.0577
 4483W        W21330   3.398   0.042  11.620  0.0938 -0.4325  0.4713
 4484W        W21331  14.996  14.936  15.887  0.0910 -0.2102 -0.0244
 4485W        W21332  11.836  17.399  11.756  0.0908  0.0191  0.0574
 4486W        W21333   8.497   2.636   4.453  0.0372  0.1495 -0.1912
 4487W        W21334  15.079   1.668   4.700  0.0683  0.1173 -0.1121
 4488W        W21335   2.838  16.564   0.939  0.0095 -0.1522 -0.1609
 4489W        W21336   0.058  16.472  11.234  0.2631 -0.0071  0.0282
 4490W        W21337   2.555   3.768  15.302 -0.0107 -0.1244  0.0063
 4491W        W21338  15.887  14.089   1.719 -0.2102  0.0950  0.2071
 4492W        W21339   9.537  17.606   4.631  0.2348  0.0259 -0.0595
 4493W        W21340   6.177  14.502  13.029 -0.3200  0.0029 -0.1554
 4494W        W21341   0.506  12.956   1.174  0.0143  0.0835 -0.4739
 4495W        W21342  10.026  16.919  14.448 -0.0248 -0.1356  0.1109
 4496W        W21343   9.189  13.612  12.515  0.5530 -0.0246  0.2702
 4497W        W21344  17.627   5.160   3.835 -0.2361  0.1512  0.0604
 4498W        W21345   6.452   0.582  12.142 -0.0425 -0.1038  0.3565
 4499W        W21346  16.534   4.656   2.605  0.1282 -0.2119 -0.0019
 4500W        W21347  18.028   3.170  14.071 -0.0718  0.1130 -0.1011
 4501W        W21348  13.733  16.497  13.293 -0.0424  0.4229  0.0145
 4502W        W21349   3.893   5.752   3.180  0.3700  0.3587  0.3106
 4503W        W21350  15.141  10.237  12.049 -0.0463  0.1874  0.0826
 4504W        W21351  16.104  17.189   1.650  0.0977 -0.2237 -0.1297
 4505W        W21352   3.557  17.171  14.131 -0.1137 -0.0630  0.1922
 4506W        W21353  13.270   8.396  13.598  0.0832 -0.5089 -0.2804
 4507W        W21354  13.395  13.442   2.931  0.0844 -0.0423 -0.3514
 4508W        W21355   9.086  13.493   0.267  0.2952  0.2229 -0.1422
 4509W        W21356  15.709   9.411  12.270 -0.1920 -0.0023  0.1309
 4510W        W21357   0.455  14.571  15.566 -0.3100  0.1272  0.2078
 4511W        W21358   3.679  17.604  13.365 -0.0466  0.1253  0.1172
 4512W        W21359   3.748  14.644  14.365 -0.1988  0.2093  0.3595
 4513W        W21360   4.664  12.623   0.008  0.2940 -0.2721 -0.1253
 4514W        W21361  14.458   7.518  14.453 -0.0798 -0.0199  0.0541
 4515W        W21362   2.778   1.579   4.468  0.3551  0.0462  0.4114
 4516W        W21363   1.657  13.045   4.605  0.1886  0.3834 -0.0375
 4517W        W21364  13.464  18.201  14.767  0.1008 -0.1977 -0.2735
 4518W        W21365   5.055   7.535   4.501  0.1696 -0.0696  0.3569
 4519W        W21366   9.153   9.871  15.688  0.1482 -0.1065  0.2048
 4520W        W21367  17.315  12.032   2.735  0.0469  0.1648 -0.0591
 4521W        W21368  17.935   4.275  14.101 -0.0369  0.0802  0.0235
 4522W        W21369  10.814  10.480   3.245 -0.0283 -0.2495  0.0005
 4523W        W21370  15.472   5.010   0.231  0.2002  0.1843 -0.1125
 4524W        W21371  13.740  16.938  11.799  0.2126 -0.1537 -0.1565
 4525W        W21372  12.040   1.600   2.442 -0.1942  0.0797 -0.1751
 4526W        W21373   2.431  16.477  13.891  0.2846 -0.1853  0.1191
 4527W        W21374   3.601   6.237   6.370  0.0442  0.1195  0.1956
 4528W        W21375  14.907  10.847   5.065 -0.0892  0.2212 -0.1174
 4529W        W21376   0.556  13.023   5.473  0.1587 -0.2498 -0.2333
 4530W        W21377  11.491   9.327   3.075 -0.2585  0.0606  0.1502
 4531W        W21378   5.622   4.279  12.744 -0.1606  0.1025 -0.1292
 4532W        W21379   7.671   8.237   3.940 -0.2647  0.0037  0.1123
 4533W        W21380   8.896  15.961  13.961 -0.1160  0.0632  0.2263
 4534W        W21381  11.685  10.933   2.965 -0.0553 -0.1502 -0.1184
 4535W        W21382   2.521  17.577  14.530 -0.0525  0.0034  0.0230
 4536W        W21383   7.701  13.136   2.441 -0.3192  0.0588 -0.0622
 4537W        W21384  10.693   1.778  13.284 -0.0024 -0.3881 -0.2161
 4538W        W21385   2.473  17.900  10.479  0.1518  0.1562 -0.2105
 4539W        W21386  15.299  10.472   3.002 -0.4242 -0.1197 -0.0198
 4540W        W21387  12.814  15.734  15.334  0.0699 -0.1550 -0.1468
 4541W        W21388   9.203  17.646  13.545  0.0109 -0.1361 -0.1888
 4542W        W21389   7.270  13.677  13.291  0.0334 -0.2069 -0.1465
 4543W        W21390   4.241   5.122  11.883 -0.0033 -0.1911  0.0296
 4544W        W21391   4.150  12.495   3.815  0.1526  0.1056 -0.0068
 4545W        W21392  15.358  16.719   2.919  0.1410  0.2411 -0.0546
 4546W        W21393   4.708   1.300   5.633  0.0168 -0.1568  0.1336
 4547W        W21394  17.673   6.167   2.214 -0.1512  0.0893 -0.0422
 4548W        W21395   8.417  12.147  13.300 -0.0233  0.2704  0.0977
 4549W        W21396   0.589   7.606  14.719  0.1596 -0.0173 -0.0138
 4550W        W21397   6.240  13.553   3.819  0.0677 -0.0905  0.0914
 4551W        W21398   4.815   1.696   4.746  0.2310  0.1561  0.0928
 4552W        W21399  13.833   4.319  10.844 -0.2011 -0.0590  0.2312
 4553W        W21400   7.215   2.010  15.396  0.0588 -0.0360 -0.0363
 4554W        W21401  10.742   0.446  11.748 -0.3635 -0.0028  0.1407
 4555W        W21402   7.012   4.898   2.012 -0.0002 -0.0241  0.0231
 4556W        W21403   9.555   1.185  15.677  0.3977 -0.1357 -0.0426
 4557W        W21404   3.799  16.135   2.341 -0.2707  0.2122 -0.0843
 4558W        W21405   6.477   5.167   1.972  0.0567  0.2803  0.2820
 4559W        W21406   0.288  12.530  11.598  0.0816 -0.0201 -0.0683
 4560W        W21407   4.910   5.797   5.248  0.2634 -0.0071 -0.3468
 4561W        W21408   6.582   5.780  15.855  0.1702 -0.1025  0.0340
 4562W        W21409  13.851   3.519   0.717 -0.0379  0.0316  0.1675
 4563W        W21410   4.385  16.937  13.791 -0.1094 -0.1479  0.1601
 4564W        W21411  17.131   5.593   4.599  0.1391  0.0780  0.1646
 4565W        W21412  11.656   2.385  15.550  0.0102  0.0772  0.2948
 4566W        W21413   8.295  15.520   5.919  0.0759  0.1014 -0.1161
 4567W        W21414   1.700  12.617   0.394 -0.3091  0.1025 -0.0797
 4568W        W21415   4.375  11.742   2.574 -0.0681 -0.0828  0.1647
 4569W        W21416  15.899   0.846  13.063  0.2429  0.0338 -0.3310
 4570W        W21417   3.191  18.191  14.211  0.1210 -0.1208 -0.0459
 4571W        W21418   2.884   3.423  14.316 -0.0401  0.0585 -0.2059
 4572W        W21419  14.235   8.966  15.177 -0.2672 -0.0722  0.3486
 4573W        W21420  16.590  12.536  14.332 -0.1256 -0.0428  0.1421
 4574W        W21421  14.062  12.091   1.090 -0.0773  0.2199 -0.1603
 4575W        W21422  11.035  10.531   5.953 -0.2163 -0.0867  0.0935
 4576W        W21423  12.149   2.293   3.984  0.1112  0.0305 -0.1425
 4577W        W21424   5.552   0.364  11.650 -0.1991 -0.1523 -0.2454
 4578W        W21425  13.831   0.823  14.847  0.1220  0.2117  0.0811
 4579W        W21426  12.147  17.969   5.225 -0.0283 -0.0486  0.0641
 4580W        W21427  13.404   0.572  11.257 -0.0402  0.0327 -0.1071
 4581W        W21428  16.769  13.509   4.527  0.0617 -0.0309  0.0889
 4582W        W21429   0.212  17.241   4.799  0.0131 -0.1415  0.0984
 4583W        W21430  12.732   2.590  14.987 -0.1377 -0.2424  0.1581
 4584W        W21431  10.153   1.910   1.293  0.3012 -0.0111 -0.1771
 4585W        W21432   8.430   7.901  11.954  0.0464 -0.2751  0.1451
 4586W        W21433   0.752  12.052   1.439 -0.1563  0.1227  0.2413
 4587W        W21434  12.029   1.089   5.686  0.0607  0.1750  0.0150
 4588W        W21435  16.741  10.093   4.927 -0.0150 -0.2273 -0.0521
 4589W        W21436   5.638   3.907   3.467  0.2822  0.3117 -0.0413
 4590W        W21437  14.843  15.311  14.399 -0.3028  0.0150 -0.2157
 4591W        W21438   8.517   9.678   5.269  0.0957  0.1362  0.2799
 4592W        W21439  12.058   2.070   0.097  0.1072 -0.0942 -0.2173
 4593W        W21440   0.905  14.473  12.830  0.1457 -0.0084  0.1159
 4594W        W21441  13.817  10.623  12.374  0.0366  0.1914 -0.0519
 4595W        W21442   2.498   1.064   2.993 -0.3208  0.1385 -0.4270
 4596W        W21443  10.413  13.640   2.960  0.0494 -0.0799 -0.0162
 4597W        W21444  14.210  10.236  11.014  0.1468 -0.1457  0.4001
 4598W        W21445  13.247  12.637  15.199 -0.0467  0.0011  0.2293
 4599W        W21446  17.409   4.988  13.235 -0.1329  0.0506 -0.0905
 4600W        W21447  14.650   9.707   2.912 -0.0063  0.0695  0.2461
 4601W        W21448   0.338   7.786  11.476  0.1862  0.1975  0.1938
 4602W        W21449  13.727   5.948  15.005  0.2388  0.0202  0.1377
 4603W        W21450   4.085  17.755   3.200 -0.1772  0.0231  0.2462
 4604W        W21451   1.901  12.683  10.479  0.1159 -0.0381  0.1323
 4605W        W21452   8.831  17.545   1.383  0.0819 -0.0033 -0.2420
 4606W        W21453  13.174   8.890  16.120  0.0200  0.0033 -0.2380
 4607W        W21454   9.902  16.373  11.543  0.1129  0.0401 -0.0558
 4608W        W21455   7.600  12.700   2.866  0.1149  0.0124  0.0725
 4609W        W21456   5.158   2.902   4.586  0.0145  0.0608 -0.1703
 4610W        W21457   5.599   8.139  11.592  0.1506 -0.2603  0.3641
 4611W        W21458  10.470   0.668  11.431  0.3231 -0.1303  0.0350
 4612W        W21459   4.505  13.741   1.743 -0.1153 -0.0337  0.1801
 4613W        W21460  14.770   8.343  14.834 -0.0345  0.1625 -0.0624
 4614W        W21461  13.623   8.591   3.241  0.2371  0.1084 -0.1528
 4615W        W21462  14.074  15.892  12.738 -0.0154  0.1880  0.2721
 4616W        W21463   1.766   0.210   0.401 -0.0248  0.0464  0.1398
 4617W        W21464   4.852   5.264  12.718 -0.0465 -0.0220  0.0773
 4618W        W21465  13.728  17.441   3.225 -0.2026  0.0316  0.2348
 4619W        W21466  12.362   3.841   1.811 -0.3038  0.5951 -0.0639
 4620W        W21467  13.153   7.204  15.021  0.0038  0.0069 -0.0347
 4621W        W21468  15.399   4.847  15.745  0.1508 -0.1574  0.2164
 4622W        W21469   3.458   0.088   3.243  0.0706  0.0194  0.0507
 4623W        W21470  13.881  10.277   0.451  0.1026  0.0528  0.0006
 4624W        W21471   6.287   0.754  11.627 -0.1700 -0.0451 -0.1247
 4625W        W21472  15.120  17.301   5.243  0.3435  0.2025 -0.0991
 4626W        W21473  13.670   2.202  12.429  0.1359  0.0245  0.1931
 4627W        W21474   8.171   8.261   4.427 -0.0626 -0.0509 -0.2445
 4628W        W21475  14.236  11.414   2.866 -0.2883  0.2178  0.2777
 4629W        W21476  13.561   3.955   0.840 -0.0637 -0.0435  0.2557
 4630W        W21477   5.926  15.574   1.336 -0.3884  0.3514  0.0337
 4631W        W21478   6.296  10.194  11.442 -0.0036 -0.0642  0.1579
 4632W        W21479  15.292   0.885  15.636  0.0976  0.2714  0.2211
 4633W        W21480  12.819   8.036  13.915  0.3041 -0.2460  0.1448
 4634W        W21481  17.064   2.820  12.521  0.1985 -0.1530 -0.1259
 4635W        W21482  11.436   3.909   2.510 -0.0149 -0.0267 -0.1033
 4636W        W21483  10.178   8.532  13.644 -0.0310  0.0396 -0.0425
 4637W        W21484  10.569  16.088   1.840  0.2428 -0.0071 -0.0515
 4638W        W21485  17.256   0.025  13.849  0.0542  0.0667 -0.1902
 4639W        W21486  16.008  16.518  14.239  0.0284 -0.1133  0.1982
 4640W        W21487   5.171   4.447  14.523 -0.1432  0.2996 -0.0469
 4641W        W21488   7.108  14.965  15.184  0.0421  0.1459 -0.1257
 4642W        W21489  10.438   9.400   0.782 -0.3376  0.0249  0.1953
 4643W        W21490  14.909  17.807   5.120  0.0026 -0.1149  0.3291
 4644W        W21491   6.276   2.273  13.518 -0.0846  0.6082 -0.2367
 4645W        W21492  17.643  16.476  13.098  0.0013 -0.1764 -0.1059
 4646W        W21493  15.147   0.859   4.863  0.1833  0.0709 -0.0645
 4647W        W21494  16.136   6.009  10.804 -0.0915  0.0524  0.1867
 4648W        W21495   5.694   7.690  14.767  0.1566  0.1915 -0.1330
 4649W        W21496   7.689  15.576   2.200 -0.0882  0.3253  0.0365
 4650W        W21497   3.652   1.269  15.480 -0.3721  0.1429  0.2326
 4651W        W21498   9.764   2.152   4.326  0.0157  0.1577  0.1023
 4652W        W21499  10.150  10.431  15.979 -0.2278  0.1763 -0.1872
 4653W        W21500  18.194  17.588   5.049  0.1907  0.4178  0.2115
 4654W        W21501  13.017   1.981   1.428  0.1124  0.0506 -0.2593
 4655W        W21502   4.809   7.022  11.193 -0.3217  0.0834  0.1906
 4656W        W21503   2.875   9.118   3.976  0.1347 -0.3967  0.1813
 4657W        W21504   4.657   7.396   0.545  0.4215 -0.0174 -0.1839
 4658W        W21505  10.517   5.362   0.368 -0.1747 -0.4037  0.1695
 4659W        W21506   8.473   6.834   0.545 -0.0729  0.0730 -0.0875
 4660W        W21507   4.383   7.795   1.052 -0.1883  0.0767  0.0509
 4661W        W21508   4.075  10.404   6.006  0.1082 -0.1374  0.3205
 4662W        W21509  15.752  16.584   4.854  0.0221 -0.0992 -0.1378
 4663W        W21510   8.259   1.024   0.467  0.1994 -0.2150  0.0382
 4664W        W21511  17.232  14.680   5.252  0.0184  0.0202 -0.2394
 4665W        W21512   3.325   0.381   2.193  0.0302  0.1021  0.1163
 4666W        W21513   4.909   6.156  13.225  0.0498  0.0040  0.1989
 4667W        W21514  16.774  15.679   3.028  0.0876  0.0397  0.2900
 4668W        W21515  17.725   5.440   2.206 -0.2042  0.1327  0.1902
 4669W        W21516  12.714  11.882   1.553  0.2437 -0.1191 -0.1585
 4670W        W21517   3.375  10.745   0.557  0.2076  0.3167  0.2098
 4671W        W21518   8.659   6.162  11.797  0.0803 -0.0732  0.1049
 4672W        W21519   5.261  11.587   4.658  0.0608  0.0836  0.2140
 4673W        W21520  11.078   1.700  15.955  0.2236 -0.2977 -0.3222
 4674W        W21521  13.669   6.270  15.356  0.2055 -0.0502  0.0227
 4675W        W21522   7.283   8.812  12.477  0.1687  0.0163  0.1754
 4676W        W21523   6.733  12.252  14.358  0.2181  0.0904 -0.0418
 4677W        W21524  16.891  18.035   4.436 -0.3615  0.0685  0.1417
 4678W        W21525  12.143   0.481  14.142  0.0406  0.0239 -0.0922
 4679W        W21526  17.741  16.593  12.245 -0.0416  0.0394  0.0334
 4680W        W21527  12.617   2.428  10.892  0.1968  0.1336  0.0597
 4681W        W21528  17.749  14.795   0.859 -0.0991  0.0595 -0.0769
 4682W        W21529  17.946   3.793  14.277 -0.0963  0.0217 -0.3345
 4683W        W21530  16.329  12.695  16.164  0.0122  0.1189  0.0810
 4684W        W21531  18.001   5.664  12.026 -0.2890  0.0579  0.3005
 4685W        W21532   3.169  12.739   3.895  0.0056 -0.1108  0.2061
 4686W        W21533   8.694   5.743  15.513  0.1307 -0.0696  0.1574
 4687W        W21534   6.268  10.741   3.706  0.0770  0.1525  0.2006
 4688W        W21535   2.804   3.133   5.689 -0.5185  0.0488  0.0689
 4689W        W21536  15.286  11.549   1.593  0.1223  0.0744 -0.0968
 4690W        W21537  17.921  16.505  14.058  0.2160 -0.1566 -0.0164
 4691W        W21538  17.573   6.339  14.046  0.1482  0.0002 -0.1425
 4692W        W21539  15.944  10.270  15.191  0.2859  0.0159  0.2073
 4693W        W21540   6.518   8.858   3.930 -0.1301 -0.0520 -0.0118
 4694W        W21541  11.590  15.587   1.794 -0.1254  0.1099 -0.0372
 4695W        W21542  14.129   3.334   3.964 -0.1245  0.0863  0.0911
 4696W        W21543   5.533   2.155  12.008 -0.0309  0.0133  0.4043
 4697W        W21544  14.722   1.659  14.941 -0.2905  0.2191 -0.0463
 4698W        W21545  10.017   3.841  11.233 -0.0304 -0.1532  0.0395
 4699W        W21546  12.323   1.427  11.552  0.3943  0.1369 -0.1351
 4700W        W21547  18.155   9.740  12.305  0.0112  0.3130 -0.1985
 4701W        W21548   9.852   0.775   5.301 -0.0851 -0.2022  0.1603
 4702W        W21549  17.449   3.822  10.481 -0.0327 -0.0000 -0.2331
 4703W        W21550  17.420   0.504   2.702  0.1023 -0.3334  0.2295
 4704W        W21551   5.631   5.043   1.080 -0.1374 -0.0539 -0.2537
 4705W        W21552   4.817  11.565   4.891 -0.0960  0.2901 -0.1062
 4706W        W21553  14.659   4.361  10.891  0.0737 -0.0838  0.0916
 4707W        W21554   2.785  12.618  12.956 -0.0318  0.0333 -0.1237
 4708W        W21555   2.001   5.322  15.156  0.0168 -0.0425  0.0034
 4709W        W21556  18.202  15.629   3.448 -0.0165  0.2022 -0.1528
 4710W        W21557   9.633  14.453   1.690  0.1020  0.0464  0.0551
 4711W        W21558   2.366  13.520   6.261  0.3250  0.0766 -0.1288
 4712W        W21559  10.888  10.277   0.519 -0.0240 -0.1734 -0.1041
 4713W        W21560   5.658   9.891   4.724  0.1104 -0.1681 -0.0148
 4714W        W21561   3.662  13.037  11.876  0.0202  0.0959  0.1026
 4715W        W21562   1.725   6.071   3.209  0.1138  0.0028 -0.0070
 4716W        W21563   0.778   4.434  16.171 -0.3784  0.1954  0.2474
 4717W        W21564   7.245   4.759   5.652 -0.0218  0.0477 -0.0146
 4718W        W21565   6.773  13.111   1.544 -0.1803  0.0446 -0.2522
 4719W        W21566  14.440   8.399  12.978  0.0628 -0.0692  0.0957
 4720W        W21567  14.201   2.241  15.824  0.0565  0.0214 -0.3014
 4721W        W21568   1.829   6.689   3.571 -0.1704 -0.0305  0.1890
 4722W        W21569  10.424  17.278  11.957 -0.2908 -0.0341 -0.0708
 4723W        W21570   4.936  10.952   2.248  0.0319  0.0407 -0.2044
 4724W        W21571   1.248   0.072   1.661 -0.1678  0.0862  0.0451
 4725W        W21572   4.460   9.086   0.393 -0.2732 -0.1968  0.0182
 4726W        W21573   6.123   8.833  14.505  0.0254  0.2582 -0.3333
 4727W        W21574  17.949   6.199  11.197  0.4853 -0.0686 -0.0347
 4728W        W21575   0.564   7.124   0.067  0.2003  0.2982  0.0163
 4729W        W21576   1.194   4.697   0.148 -0.1810 -0.0184 -0.0115
 4730W        W21577  13.120  12.023   4.116 -0.1255 -0.2336  0.0534
 4731W        W21578  15.442  10.045   2.703 -0.0610  0.0016 -0.4256
 4732W        W21579  14.275   5.239   5.019 -0.0359 -0.0501 -0.0860
 4733W        W21580   7.575  16.263   4.615  0.3999  0.0179  0.0022
 4734W        W21581  10.194   9.702   3.505 -0.0706  0.0173 -0.1432
 4735W        W21582   8.158   3.330   0.494 -0.1364 -0.0794 -0.0439
 4736W        W21583   1.578   1.030   0.140 -0.0520 -0.1924  0.0671
 4737W        W21584   6.793   1.971   4.279  0.2344 -0.1703  0.0910
 4738W        W21585   8.287  11.081   1.850 -0.0975 -0.0987 -0.0960
 4739W        W21586   1.233  13.393  13.471  0.0393  0.1621 -0.2436
 4740W        W21587  13.337  11.314  14.943  0.0124 -0.1193  0.1515
 4741W        W21588  18.196  10.985  11.295 -0.1349 -0.0478  0.0723
 4742W        W21589   0.614   5.856   2.647 -0.1192 -0.1208 -0.1316
 4743W        W21590   0.673  13.310   1.611  0.0549  0.2072  0.1669
 4744W        W21591  14.862   3.851   4.801  0.1667 -0.2607 -0.1291
 4745W        W21592   1.906  15.532   3.698  0.1384 -0.3224 -0.0762
 4746W        W21593  12.601  17.804   4.883 -0.2383  0.2026  0.1450
 4747W        W21594  12.401   1.347   5.467 -0.1109 -0.0039  0.3784
 4748W        W21595   7.300  13.532   3.130  0.5513 -0.0758 -0.1007
 4749W        W21596  17.709   6.368  15.482  0.0554 -0.0241 -0.0851
 4750W        W21597  11.750  12.496  12.986 -0.1460 -0.0653 -0.1283
 4751W        W21598   1.525   8.243  13.761  0.0178 -0.0191  0.1480
 4752W        W21599  10.944   1.050   2.382  0.0002 -0.0136 -0.1737
 4753W        W21600  16.537  14.910  13.813 -0.0654 -0.0209 -0.1692
 4754W        W21601   3.736  16.989  14.603  0.1056  0.1159 -0.2175
 4755W        W21602  11.539   8.605  13.550 -0.0386 -0.0605  0.1064
 4756W        W21603   9.399  11.422   2.491  0.1431 -0.0866 -0.0591
 4757W        W21604   4.586  13.176   1.234  0.1716 -0.1556  0.3935
 4758W        W21605   9.616   4.761   3.919 -0.1462 -0.0067  0.0182
 4759W        W21606   1.666   3.554  15.555  0.0861 -0.0225 -0.0531
 4760W        W21607  13.970   2.377   1.526  0.0600  0.2371  0.1413
 4761W        W21608  16.403  17.776  11.545 -0.2387  0.0616 -0.2727
 4762W        W21609  17.093   1.725  11.748  0.0998  0.0650  0.0425
 4763W        W21610  11.346   1.005  12.803 -0.0594 -0.0435  0.0303
 4764W        W21611   0.484   1.747   4.338 -0.0920  0.3048  0.3297
 4765W        W21612  11.149   4.393  12.085  0.0079 -0.2147  0.1338
 4766W        W21613  16.096   9.715  14.424 -0.5114 -0.0790 -0.2398
 4767W        W21614  11.553  12.332  15.177  0.1650 -0.0991  0.2142
 4768W        W21615   9.186   3.121  13.550 -0.0094 -0.0005 -0.0269
 4769W        W21616  17.933  13.217   4.194  0.1452  0.2024 -0.4157
 4770W        W21617  14.680   4.900   2.040 -0.0342  0.2449 -0.0058
 4771W        W21618  10.766  15.916   2.715 -0.2561  0.0861  0.6275
 4772W        W21619  14.725  12.430   3.990  0.0858 -0.0036 -0.0217
 4773W        W21620  12.330   1.185   1.991 -0.0309 -0.0307  0.0621
 4774W        W21621   7.307   3.751  13.974 -0.0502  0.2308  0.1414
 4775W        W21622   5.712   9.684   2.468  0.0460  0.1739 -0.1036
 4776W        W21623  16.226   3.251  11.705  0.3990 -0.2565 -0.1040
 4777W        W21624   8.853   6.092   3.944  0.0531  0.2054 -0.1176
 4778W        W21625   8.312  14.752   2.115  0.2450 -0.0562  0.0895
 4779W        W21626   8.927   9.345  11.915 -0.1805 -0.1299  0.2543
 4780W        W21627  15.902   5.709   1.901 -0.1926  0.1505 -0.2934
 4781W        W21628   4.058  14.752  15.290  0.1248 -0.2875  0.0235
 4782W        W21629   7.405  11.777  11.567  0.1373  0.0876  0.0069
 4783W        W21630   9.565  11.396   4.023 -0.0427  0.3741  0.2048
 4784W        W21631   7.705   0.130  13.986 -0.1123  0.1145 -0.1737
 4785W        W21632   0.729   0.925  11.940  0.0075  0.3280 -0.0294
 4786W        W21633   1.315  13.188  14.025  0.0441  0.0847  0.3498
 4787W        W21634   5.684  11.514  10.837  0.2203 -0.4272  0.1851
 4788W        W21635   0.548   2.794  15.532 -0.0352 -0.0406  0.1679
 4789W        W21636  14.021   9.857   3.278 -0.3068 -0.0460  0.0888
 4790W        W21637  16.326   0.627  15.411  0.2574  0.0021  0.0732
 4791W        W21638   4.031  10.554  15.517  0.0457 -0.6225  0.0534
 4792W        W21639  16.945   3.045   3.621  0.0777 -0.0641  0.2297
 4793W        W21640   1.891  16.655   1.498 -0.1174 -0.0552 -0.1905
 4794W        W21641  16.286   3.278   0.360 -0.0442 -0.1229  0.0509
 4795W        W21642  17.905  13.222   5.405 -0.0038 -0.1909  0.1112
 4796W        W21643   1.973  16.513   0.373  0.3277 -0.0237 -0.1704
 4797W        W21644   0.658  14.895   5.333 -0.1380 -0.3232  0.0054
 4798W        W21645   7.612   1.950  14.948  0.3366  0.2762 -0.1485
 4799W        W21646  14.432  17.972  13.711  0.1276  0.1293  0.0748
 4800W        W21647  16.067  17.955  12.700  0.1466  0.0089 -0.0542
 4801W        W21648  15.509   5.279  15.422 -0.4121 -0.1275  0.1943
 4802W        W21649   0.158  17.199  15.688  0.0222 -0.2426  0.0107
 4803W        W21650  12.599   8.161   0.957 -0.1050 -0.1193 -0.3259
 4804W        W21651   4.703   0.483  12.898  0.1917 -0.2695  0.0500
 4805W        W21652   7.091  16.847   1.228 -0.0732  0.3459 -0.2970
 4806W        W21653  12.221   2.979   2.856  0.4533  0.2335 -0.0527
 4807W        W21654   1.585  14.086  12.201  0.0368  0.2352 -0.2036
 4808W        W21655   3.165  11.189   0.435 -0.2071 -0.2490  0.3901
 4809W        W21656  17.068   1.833   0.167 -0.0066  0.2148  0.2191
 4810W        W21657   0.985  12.906   5.257  0.2901  0.0179 -0.1277
 4811W        W21658   1.368   5.273   2.893  0.2073  0.2498  0.0433
 4812W        W21659  12.177  12.819  14.632 -0.3708  0.0674 -0.0832
 4813W        W21660   6.627   5.368   5.548  0.0646  0.1623 -0.0278
 4814W        W21661   7.835  17.587  13.695 -0.1117  0.0873 -0.2860
 4815W        W21662   0.824   0.002   0.239  0.1020 -0.3497 -0.0316
 4816W        W21663  13.452  10.265  12.619  0.2956  0.0517  0.2594
 4817W        W21664   8.405   1.397   0.801  0.0620  0.0346  0.1811
 4818W        W21665   1.868   8.936   5.826  0.0773  0.1706 -0.0722
 4819W        W21666  16.398  12.914  14.035 -0.2550  0.3504 -0.3577
 4820W        W21667   9.863  13.844   2.479 -0.1515  0.3361  0.0943
 4821W        W21668  11.790  16.908   2.117  0.1717  0.1935  0.0577
 4822W        W21669  16.114   7.437   3.116 -0.0198  0.3453  0.0184
 4823W        W21670  11.611   9.882  12.210  0.0859 -0.1063 -0.2217
 4824W        W21671   5.908  16.587  12.186 -0.2178  0.1309 -0.2351
 4825W        W21672  13.088   6.156   3.505 -0.0670  0.2440  0.3239
 4826W        W21673   7.316   1.549  12.584  0.1502  0.1584 -0.0004
 4827W        W21674   9.125  14.885   2.984  0.3343  0.0908  0.0958
 4828W        W21675   7.597  17.684   4.918 -0.0067  0.0802  0.0378
 4829W        W21676  12.857   2.977   1.927 -0.0939 -0.1336 -0.0337
 4830W        W21677   1.834   3.828  13.612 -0.2097  0.1649 -0.1573
 4831W        W21678   0.399  14.495  11.833  0.4701  0.0049 -0.1868
 4832W        W21679  16.043  12.131  11.828 -0.0538 -0.0726  0.3132
 4833W        W21680   7.505  11.544   0.804  0.1642 -0.1011 -0.0168
 4834W        W21681  12.874   0.005   1.658  0.2654 -0.2498  0.1545
 4835W        W21682   1.513  15.560   5.639  0.0262  0.1022  0.0998
 4836W        W21683  11.892   5.786   3.177  0.1914  0.1553  0.3720
 4837W        W21684   5.255   6.148  12.839  0.0757  0.0741  0.0116
 4838W        W21685  12.590   2.962  12.729 -0.0764  0.0102  0.0940
 4839W        W21686  17.722   6.367  12.229 -0.1738  0.0253  0.0283
 4840W        W21687   1.840  15.644  13.552 -0.1882  0.1043 -0.0269
 4841W        W21688   1.552   1.744   2.392  0.3094  0.2301  0.1440
 4842W        W21689  10.447   2.573   4.478 -0.1763  0.1252 -0.2045
 4843W        W21690   4.726   2.080   4.219 -0.1297 -0.2755 -0.3184
 4844W        W21691   1.725   8.845  15.874 -0.0996  0.0125  0.1903
 4845W        W21692  15.184  15.384  16.156 -0.0154 -0.1266  0.0127
 4846W        W21693  16.261  11.642  15.121  0.0722  0.0844  0.0142
 4847W        W21694  17.462   3.140   0.156 -0.2453 -0.1182  0.0082
 4848W        W21695   3.585   0.586   1.822 -0.1148  0.0345  0.1659
 4849W        W21696   5.294  13.288  11.659  0.0955  0.4661  0.1987
 4850W        W21697   1.734   2.806  13.983  0.0734 -0.2188  0.1084
 4851W        W21698   2.272   0.043  11.545 -0.2348 -0.0789 -0.1116
 4852W        W21699   4.103   7.891   2.867 -0.0578  0.2917 -0.1039
 4853W        W21700   4.236   3.922  15.248  0.1275 -0.0550 -0.2192
 4854W        W21701   6.876   1.169  15.825 -0.1202  0.0153  0.0279
 4855W        W21702  18.202  13.119  14.652  0.0449 -0.0134 -0.1965
 4856W        W21703  10.799  14.699   5.108 -0.1468 -0.0630  0.1043
 4857W        W21704  11.012  13.324  12.714 -0.2587  0.1355  0.0904
 4858W        W21705   2.640   1.760  13.308  0.1262 -0.2056 -0.2214
 4859W        W21706  13.272  10.368  11.208  0.6014  0.1244 -0.0324
 4860W        W21707   6.218  14.753   4.937  0.1433  0.3508  0.0933
 4861W        W21708  13.441  17.294  16.126  0.2661 -0.0890  0.1767
 4862W        W21709   1.849   9.878  13.471 -0.2340  0.0996  0.1323
 4863W        W21710   2.778  16.626   5.597  0.0087  0.1685  0.0866
 4864W        W21711   7.282   2.745   3.052 -0.0460 -0.2997 -0.2517
 4865W        W21712  15.071  13.612   3.858  0.1750 -0.1407  0.2263
 4866W        W21713   6.290   2.116   3.093 -0.2252 -0.0570  0.1079
 4867W        W21714   2.519  16.598   3.259 -0.3088  0.1916 -0.0400
 4868W        W21715   7.506  11.371  11.296 -0.2756 -0.2622 -0.0630
 4869W        W21716   3.386  16.983   4.976 -0.0150 -0.1857 -0.1672
 4870W        W21717   6.569   8.772   5.751 -0.1745 -0.1300 -0.1345
 4871W        W21718   0.927   6.304  12.486  0.2699 -0.0497  0.1013
 4872W        W21719   1.096   1.450   4.159 -0.0789  0.3214 -0.2153
 4873W        W21720   0.018  10.675   2.410  0.1232  0.1093 -0.2300
 4874W        W21721  12.330  15.190   0.404  0.0654 -0.2217 -0.1508
 4875W        W21722  15.084  18.249   1.552  0.3790  0.1555  0.0397
 4876W        W21723   6.855  12.929  11.751  0.1139 -0.4068 -0.4135
 4877W        W21724   4.778   2.117  12.543 -0.1017  0.0149 -0.1786
 4878W        W21725   5.126   4.657  12.015  0.0312  0.2732 -0.1768
 4879W        W21726  12.631   5.023   0.988  0.1313  0.0282 -0.2755
 4880W        W21727  12.410   3.767  11.306 -0.3177 -0.1152  0.4717
 4881W        W21728  10.655   3.429   3.857 -0.1257 -0.1073 -0.2300
 4882W        W21729   9.719  13.145  11.412 -0.1419 -0.1851  0.1508
 4883W        W21730   8.734   7.769  15.736 -0.0497 -0.0992  0.4348
 4884W        W21731   3.901   8.587   3.692 -0.1347  0.2740 -0.3015
 4885W        W21732   9.898  11.540  13.362 -0.0682  0.2489 -0.0341
 4886W        W21733   1.790   1.348  16.053 -0.0222 -0.0746 -0.0899
 4887W        W21734   1.591  17.168  13.234 -0.1039  0.0512 -0.1815
 4888W        W21735   2.803   6.366  15.763 -0.2218 -0.2300 -0.2564
 4889W        W21736  14.883  10.748  11.651 -0.1522 -0.0902  0.2719
 4890W        W21737  10.659   5.560   1.506 -0.0808  0.0560 -0.1408
 4891W        W21738   3.183   4.789  13.454 -0.1799  0.0675 -0.2054
 4892W        W21739   0.985  17.751   2.879  0.1982 -0.2430 -0.3693
 4893W        W21740   6.212  12.089   0.005 -0.0342  0.0762  0.0657
 4894W        W21741   1.986   2.451   4.824 -0.1206 -0.3491 -0.0174
 4895W        W21742  11.327   5.551  10.963  0.2662  0.0546  0.3103
 4896W        W21743   9.756  11.136  12.383 -0.3456 -0.0973  0.3654
 4897W        W21744  17.343   8.006  15.574 -0.1240 -0.0489 -0.0906
 4898W        W21745  10.569   8.943   3.944  0.1240  0.1068  0.4664
 4899W        W21746   4.896  12.497  13.129 -0.0602  0.3082  0.0357
 4900W        W21747  13.197   2.839  13.537  0.0779 -0.0213 -0.1009
 4901W        W21748  15.690   4.816   0.664 -0.0401  0.3010  0.0817
 4902W        W21749  12.688  11.600  15.203 -0.0577  0.0842 -0.2090
 4903W        W21750   9.745  10.000  14.435 -0.0725  0.0695  0.0366
 4904W        W21751  10.852   9.195  13.958  0.3139 -0.0618  0.2356
 4905W        W21752   9.440  11.682   0.390  0.1993 -0.0706 -0.1375
 4906W        W21753   4.420  17.060  13.016 -0.1560  0.0115 -0.0990
 4907W        W21754  14.565  14.981  14.121  0.0448 -0.0476 -0.1349
 4908W        W21755  11.175   0.107   1.261  0.2026 -0.1105 -0.1225
 4909W        W21756  16.896  16.980   3.634 -0.0324  0.1519 -0.3656
 4910W        W21757   4.957   0.598  14.734 -0.3054  0.2447 -0.3311
 4911W        W21758   3.019   6.286  12.797  0.0880  0.1964 -0.2545
 4912W        W21759  15.646  12.071   0.198 -0.0998 -0.2636  0.2373
 4913W        W21760   7.298   9.973   1.301  0.1022  0.1419 -0.0330
 4914W        W21761  16.221  13.434   2.915 -0.1786  0.2780  0.1428
 4915W        W21762  15.714  12.783   1.892  0.1790 -0.0325 -0.1328
 4916W        W21763  13.615   0.919  12.662  0.0376 -0.2594  0.2308
 4917W        W21764   1.225   3.573  12.662 -0.1500 -0.3755 -0.1020
 4918W        W21765  10.996   8.949  15.735  0.3443 -0.0294 -0.2427
 4919W        W21766  18.064   3.724  13.051 -0.4548 -0.0346 -0.2019
 4920W        W21767   4.190   8.977   2.283 -0.0020  0.0122 -0.1810
 4921W        W21768   3.430  17.481   5.141  0.3674  0.0605  0.2134
 4922W        W21769   0.195   1.230  14.802 -0.2645 -0.0039  0.1735
 4923W        W21770   8.550   7.362  12.028 -0.1539  0.0142  0.2918
 4924W        W21771  10.558  11.068  15.222 -0.1561  0.2796  0.0328
 4925W        W21772  13.474   3.463   1.398 -0.2510  0.0474  0.2425
 4926W        W21773  15.624   1.739   0.517  0.0074  0.1734  0.0469
 4927W        W21774   1.228  14.687  14.920  0.0290  0.1033 -0.3434
 4928W        W21775  13.732  11.219   3.046  0.0979  0.1846 -0.0766
 4929W        W21776  14.972  18.090  14.930  0.1312 -0.0210  0.1615
 4930W        W21777   6.514   4.405   3.648  0.0339  0.1299  0.0290
 4931W        W21778   2.722   2.727   3.789  0.5261 -0.1771  0.0750
 4932W        W21779  15.596  14.604  14.044  0.3103 -0.1326 -0.1091
 4933W        W21780   2.355  17.715  13.765  0.2626 -0.1714 -0.2669
 4934W        W21781   1.712  16.074   4.618 -0.4035 -0.0489 -0.1129
 4935W        W21782  18.135   7.129  13.668 -0.2007 -0.0096 -0.0253
 4936W        W21783   8.226  12.038  12.718 -0.0107  0.1951 -0.2482
 4937W        W21784  16.288   3.874  13.746  0.2269 -0.0804 -0.1600
 4938W        W21785   1.748  16.947  14.887 -0.0078 -0.0128  0.1935
 4939W        W21786  18.079   0.447  13.925  0.1731 -0.0253  0.1764
 4940W        W21787  17.122  10.333  14.291 -0.2230 -0.1608  0.1067
 4941W        W21788   8.621   2.649  12.277 -0.1523  0.1753  0.0146
 4942W        W21789  11.464   4.217   0.698  0.5409  0.0431 -0.2719
 4943W        W21790  17.213  17.141   4.200 -0.1152  0.0416  0.3657
 4944W        W21791   5.092   6.564  14.026  0.0237 -0.1714  0.1420
 4945W        W21792  17.836  12.057  15.384  0.1745 -0.0965  0.0733
 4946W        W21793   4.468  13.540  13.724 -0.3404 -0.0385 -0.0619
 4947W        W21794  15.022   8.896  16.040 -0.0051  0.1870  0.0455
 4948W        W21795  10.526   7.609  14.458 -0.1973 -0.0271 -0.1524
 4949W        W21796   6.206  15.937   3.127  0.0309  0.1064  0.2052
 4950W        W21797  10.757   9.103  11.085 -0.1090 -0.0040  0.1200
 4951W        W21798  14.428   8.264   0.079  0.0293  0.2198 -0.1369
 4952W        W21799  12.904  10.990  11.645  0.1165  0.1575  0.2656
 4953W        W21800   9.802  17.822   2.267 -0.0864 -0.0794  0.2744
 4954W        W21801   3.939  12.579   3.170  0.1725  0.0806 -0.2227
 4955W        W21802  13.239  11.569  12.126 -0.0510  0.0249  0.2289
 4956W        W21803  18.025   8.849  12.494 -0.0284  0.2423  0.0225
 4957W        W21804   8.156   4.674   5.328 -0.0904 -0.2818  0.1973
 4958W        W21805  16.008   4.198  10.621 -0.1289  0.1782  0.4776
 4959W        W21806   3.811   7.078   0.042  0.0322  0.0939  0.0994
 4960W        W21807   6.003   0.184   2.434 -0.1374 -0.1360 -0.2072
 4961W        W21808   2.648  15.013  15.111 -0.1652  0.1779 -0.0997
 4962W        W21809   7.997  17.007   5.732 -0.2361 -0.0384  0.1306
 4963W        W21810   2.942   9.906  15.087 -0.3183  0.0462 -0.0331
 4964W        W21811   9.353  11.467  13.440 -0.0395 -0.0444  0.1035
 4965W        W21812   8.516   9.640  15.035  0.1339 -0.0974 -0.0205
 4966W        W21813   2.560  16.886  15.423  0.4204 -0.1985  0.3285
 4967W        W21814  15.404   8.346   3.005 -0.3759  0.0254 -0.0328
 4968W        W21815  11.799  10.779  14.956  0.0592  0.1005  0.2307
 4969W        W21816  17.902   6.315  12.681 -0.0547  0.0160  0.0320
 4970W        W21817   3.275   6.863  13.558 -0.0662  0.2844  0.0960
 4971W        W21818  11.098   5.584  13.716 -0.2155 -0.0241  0.2106
 4972W        W21819   0.262  17.429   1.725 -0.3501  0.1951  0.2005
 4973W        W21820   4.210  11.775   4.410 -0.0232  0.1797  0.0138
 4974W        W21821   6.129  15.097  14.874  0.1087  0.0411 -0.1119
 4975W        W21822  11.427  16.169  15.681 -0.1461  0.1039 -0.0793
 4976W        W21823   1.018  12.379   1.043 -0.0455 -0.0566  0.2537
 4977W        W21824   3.956  15.129  12.362  0.1294 -0.2260  0.0693
 4978W        W21825  13.141   1.668  10.498 -0.0705 -0.1177 -0.1449
 4979W        W21826  17.155  12.892   5.739 -0.2014 -0.0409 -0.2576
 4980W        W21827   5.982  15.575   2.446 -0.0995  0.2193  0.0432
 4981W        W21828  14.581   2.107   1.959 -0.1255 -0.0821  0.0364
 4982W        W21829   3.354   3.136   2.966 -0.0242 -0.3138  0.2342
 4983W        W21830  12.254   0.070  12.281  0.0125  0.1289 -0.4127
 4984W        W21831  17.228   6.018  13.720  0.1520  0.0804  0.1542
 4985W        W21832  15.243   9.325  11.091  0.1565  0.2100  0.1865
 4986W        W21833   7.055   2.049  12.026 -0.0351  0.0119  0.0917
 4987W        W21834  11.308  10.279  14.408 -0.0904  0.2409 -0.0044
 4988W        W21835   0.696   8.219  14.306  0.0829  0.0421 -0.1065
 4989W        W21836   1.852   9.879   3.385  0.0693  0.0945  0.3369
 4990W        W21837   4.029   7.738   4.656 -0.0855  0.1038  0.0596
 4991W        W21838  10.707  12.919   0.787  0.1653 -0.1122  0.3632
 4992W        W21839   7.485   6.768   2.108  0.1308  0.0897  0.1514
 4993W        W21840   8.107  11.702  13.999 -0.1807  0.1989  0.0992
 4994W        W21841  15.442   3.852   2.558 -0.2957  0.1373 -0.0456
 4995W        W21842  11.279  17.460  11.934  0.2069 -0.0118 -0.0032
 4996W        W21843  14.371   7.648   0.722 -0.1652  0.0498 -0.0274
 4997W        W21844   7.993   1.025   1.492 -0.3082  0.1401  0.0778
 4998W        W21845  11.813   6.185  15.270 -0.0046 -0.0269  0.0924
 4999W        W21846  12.294  15.650  10.709 -0.0117  0.3809  0.0436
 5000W        W21847   1.338   4.198   0.339  0.1395  0.0825  0.0964
 5001W        W21848  16.413   0.061   1.873  0.0763  0.1726 -0.1960
 5002W        W21849   5.020  13.133   1.387  0.1489 -0.0019 -0.2369
 5003W        W21850   3.380   0.668  13.175 -0.1723 -0.3317 -0.0396
 5004W        W21851   1.935   8.143   0.302 -0.0431 -0.2026  0.2083
 5005W        W21852   3.437  17.405   4.508  0.0203  0.1349  0.0652
 5006W        W21853   4.285   4.401  14.661 -0.2014 -0.4424 -0.0318
 5007W        W21854   9.592   5.038   3.069  0.1881  0.1267  0.0637
 5008W        W21855   8.102   4.766   4.384 -0.2088  0.0282 -0.2546
 5009W        W21856   4.496   1.791  15.396  0.1790 -0.1919  0.1301
 5010W        W21857  11.250   1.230  11.049 -0.2955  0.3229 -0.0994
 5011W        W21858   1.105  13.083  14.505  0.0554 -0.0493  0.1121
 5012W        W21859  15.313   5.417  15.885  0.3154  0.4495  0.0134
 5013W        W21860   5.584   0.443  12.751 -0.3373  0.0866  0.4960
 5014W        W21861   2.536  15.139  13.055 -0.0890 -0.0904 -0.0901
 5015W        W21862  10.942  12.437   2.783  0.1959  0.1532 -0.1094
 5016W        W21863  17.491  18.184   3.207  0.1328 -0.3126 -0.0879
 5017W        W21864  16.898   7.885   0.241  0.1052  0.0045  0.1335
 5018W        W21865  11.042  12.509   0.013  0.0199 -0.2966  0.0692
 5019W        W21866  12.554   3.396  16.187  0.2565  0.1611  0.2106
 5020W        W21867  13.158  16.823  15.206 -0.3155  0.1299  0.2655
 5021W        W21868  16.230   7.794  13.299 -0.0550 -0.3059  0.0768
 5022W        W21869   4.693  12.773  11.065 -0.1703  0.1106  0.2123
 5023W        W21870  16.282   0.481  13.003 -0.0381  0.0698  0.0599
 5024W        W21871  13.832  17.262  12.188 -0.2609 -0.0065  0.3150
 5025W        W21872   3.936   7.154   3.172  0.1054  0.0484  0.2405
 5026W        W21873   2.117   2.407  14.936 -0.1944  0.1546  0.3913
 5027W        W21874  15.481  17.767   2.118  0.1745 -0.0820 -0.0778
 5028W        W21875   3.360  12.338   2.934  0.0345 -0.0162  0.0770
 5029W        W21876  10.552   4.911   0.540  0.3769 -0.0750  0.0265
 5030W        W21877   0.680  12.015   0.285 -0.3022 -0.2775  0.1680
 5031W        W21878   5.921   2.215   3.488 -0.2005 -0.3352 -0.0268
 5032W        W21879  10.266   0.253  16.011  0.5104 -0.3575  0.0679
 5033W        W21880  10.812  16.208   5.700  0.2699  0.0797 -0.1261
 5034W        W21881  16.785   8.131  15.891  0.0847 -0.0732 -0.2129
 5035W        W21882   3.273   3.139  15.668 -0.1174  0.1402  0.0976
 5036W        W21883   7.974   0.990  12.219 -0.1971  0.1381  0.0952
 5037W        W21884  17.215   9.961   5.156 -0.0230 -0.0150  0.0547
 5038W        W21885  13.721   5.428   3.442  0.0457 -0.0869  0.1176
 5039W        W21886  13.163   5.205  12.596 -0.0014 -0.1877 -0.0293
 5040W        W21887   2.254   6.938   5.500  0.6015  0.0830  0.0919
 5041W        W21888   3.447   1.552   0.052 -0.2228 -0.2364  0.1567
 5042W        W21889   4.296   3.799  14.727  0.2607 -0.1906  0.5442
 5043W        W21890   3.695   8.088  14.582  0.0973 -0.0111 -0.2465
 5044W        W21891  12.921   5.533   3.906  0.2267  0.3031  0.0484
 5045W        W21892   2.337  11.105  13.421 -0.0232  0.1364 -0.1424
 5046W        W21893  13.478   6.888  10.991  0.1376 -0.3127 -0.4021
 5047W        W21894   6.583   6.935   2.326  0.0505 -0.0948 -0.1313
 5048W        W21895   3.218   1.604  12.644  0.0101  0.0584 -0.5021
 5049W        W21896  10.152  10.390  12.044  0.3504  0.2337  0.0724
 5050W        W21897   1.341  15.450   0.244 -0.0008 -0.0012 -0.0758
 5051W        W21898   0.209  10.553   0.152  0.1159  0.2083  0.1227
 5052W        W21899   6.897   5.352  15.318  0.1964 -0.2112  0.1560
 5053W        W21900   2.248   7.714  11.986 -0.1176  0.0092  0.1794
 5054W        W21901   1.318  15.850  12.469 -0.0047 -0.0181  0.1656
 5055W        W21902  11.045   6.112   3.527 -0.4112 -0.0658 -0.0782
 5056W        W21903  17.788   2.353   3.646 -0.0388 -0.1183  0.0401
 5057W        W21904  13.807   4.610   2.440  0.0012 -0.1737 -0.0877
 5058W        W21905  11.553   4.441  11.071  0.0274  0.0624  0.2040
 5059W        W21906  16.221   8.451  13.016 -0.2564 -0.1372 -0.1503
 5060W        W21907  17.861   4.222   4.122  0.2536 -0.0254 -0.0230
 5061W        W21908  18.081   1.173   0.835 -0.0461 -0.0129 -0.0782
 5062W        W21909  15.386  16.570   1.713  0.1425  0.0709  0.1416
 5063W        W21910  10.260  15.931   4.012 -0.2564  0.3423 -0.1708
 5064W        W21911   3.801  16.516  12.971  0.0408 -0.1787 -0.0374
 5065W        W21912   1.887  10.686   4.598  0.0099  0.1199 -0.2825
 5066W        W21913   3.204  12.167   1.926 -0.0146  0.2574  0.0021
 5067W        W21914  10.296   8.687   2.546 -0.1103  0.1040 -0.2937
 5068W        W21915   4.207  17.011  14.824  0.3049 -0.0592 -0.2140
 5069W        W21916   9.200  13.784  13.176 -0.2732 -0.0814 -0.0294
 5070W        W21917  13.347   0.787   1.223 -0.2277  0.0802  0.0885
 5071W        W21918   6.781   7.249  15.061  0.2169 -0.2611 -0.0550
 5072W        W21919   3.200  16.025  14.912 -0.3290  0.0056 -0.0766
 5073W        W21920   4.721   3.590   2.653 -0.2956 -0.2522 -0.1836
 5074W        W21921   0.040   4.067  14.176 -0.1659 -0.2383  0.1972
 5075W        W21922   3.577  11.344   4.101 -0.0069 -0.0266 -0.0397
 5076W        W21923   8.617   5.295  15.122 -0.1880  0.1483 -0.0418
 5077W        W21924  14.113  10.909   2.930  0.1716  0.0194 -0.0048
 5078W        W21925  16.734   4.539  15.947  0.0622 -0.0444 -0.1965
 5079W        W21926   4.120   1.087   6.111 -0.0727  0.0656 -0.1664
 5080W        W21927  11.164   0.316  15.506 -0.1148 -0.0653  0.1166
 5081W        W21928   1.768   9.623  15.786 -0.0194 -0.0345  0.0039
 5082W        W21929   9.906  15.475   0.821 -0.2083 -0.1137 -0.2085
 5083W        W21930   9.762  16.694   1.985  0.1389 -0.0835 -0.2667
 5084W        W21931  17.359   5.419   3.498  0.1942  0.0084  0.0356
 5085W        W21932   4.342  18.292  15.858  0.2583 -0.0629 -0.3079
 5086W        W21933  10.065   2.555   1.034 -0.1695  0.0360  0.2011
 5087W        W21934   0.483   2.760   4.538  0.0466  0.0244  0.0726
 5088W        W21935   3.224  15.768   1.179 -0.2230  0.2872  0.1413
 5089W        W21936  16.837  11.754   1.287 -0.2542  0.2631 -0.1753
 5090W        W21937  10.099   3.717  14.988 -0.0265  0.1157  0.0096
 5091W        W21938  17.182  15.145   1.035 -0.1545 -0.0120  0.0896
 5092W        W21939   4.363   8.163   1.407 -0.0214 -0.0762  0.0419
 5093W        W21940   2.656   1.474  15.614  0.1120 -0.0296 -0.0848
 5094W        W21941   6.670   2.109  11.675  0.1064  0.3544  0.0465
 5095W        W21942  13.841   7.606   0.737 -0.1397 -0.1762 -0.0862
 5096W        W21943  13.846   9.436   2.967  0.1097  0.0756 -0.1725
 5097W        W21944   7.811  17.332   1.625  0.1483  0.0654 -0.0816
 5098W        W21945  17.200   1.103  15.890 -0.1242  0.0917 -0.0665
 5099W        W21946  16.295   8.402  11.347  0.0641 -0.2062  0.2838
 5100W        W21947  17.537  13.507   4.040 -0.0399 -0.3996  0.2793
 5101W        W21948  16.491  18.184  10.942 -0.1450 -0.1063 -0.1489
 5102W        W21949   6.266   1.002   1.212 -0.0330 -0.0522 -0.0289
 5103W        W21950  12.954   1.980   0.052 -0.2891 -0.1559  0.1224
 5104W        W21951   3.185  17.005   4.244 -0.0673  0.1878  0.3262
 5105W        W21952  12.823  13.757   3.363 -0.1005 -0.1307 -0.1004
 5106W        W21953  13.290   1.649   2.233 -0.1635  0.0193  0.2836
 5107W        W21954   2.230  17.258   0.003  0.1231  0.2568 -0.0468
 5108W        W21955  14.720   6.705   2.705  0.0876 -0.2392 -0.0564
 5109W        W21956   8.197  13.792   1.738  0.0061 -0.2056 -0.2431
 5110W        W21957   1.385  16.742  15.717 -0.2110  0.1092  0.0288
 5111W        W21958   9.661  12.746  15.715  0.1863 -0.1618  0.1377
 5112W        W21959   9.101  17.430  12.070 -0.1946  0.0175 -0.0285
 5113W        W21960   8.346  15.676  11.583  0.2020 -0.1820  0.2122
 5114W        W21961  13.298  12.589   2.752  0.0912 -0.2889 -0.2458
 5115W        W21962  11.777   9.948   5.041 -0.0914 -0.0321  0.4599
 5116W        W21963  12.492  17.066  13.415 -0.2349  0.0526  0.1148
 5117W        W21964   1.128   1.225   0.394  0.0346 -0.1521 -0.2232
 5118W        W21965  11.610  10.948   0.268 -0.0642  0.0833  0.1626
 5119W        W21966   7.315  11.563   3.960 -0.1697 -0.2262 -0.2575
 5120W        W21967  15.743   8.201   1.497 -0.0143  0.2332  0.0535
 5121W        W21968  14.553  17.139   2.977  0.0699  0.1143  0.0083
 5122W        W21969  17.351   8.683  11.868  0.1099 -0.0314 -0.0693
 5123W        W21970  15.646  12.292   1.707 -0.1844  0.4500  0.1385
 5124W        W21971   7.497   8.894   5.507  0.2043  0.2892 -0.2759
 5125W        W21972  14.816   8.856  13.495  0.0379 -0.1286  0.0565
 5126W        W21973   3.830  11.335   5.603 -0.0614  0.4765 -0.0707
 5127W        W21974  14.184   5.620   3.367 -0.0049  0.1762 -0.2785
 5128W        W21975  11.645  12.514   0.683 -0.0916 -0.2188  0.1377
 5129W        W21976   7.657  14.798  15.468 -0.0434  0.1650 -0.1844
 5130W        W21977   6.111   5.322   1.676  0.0369 -0.3255  0.2197
 5131W        W21978   7.658   0.457  12.163  0.1277 -0.0565  0.0753
 5132W        W21979  15.624  14.348  15.582  0.0175 -0.1975 -0.0514
 5133W        W21980  14.752   3.892  11.087 -0.3063 -0.2227 -0.3026
 5134W        W21981   9.123   5.782   0.124 -0.4734  0.0260  0.4355
 5135W        W21982   1.697  15.976   2.444 -0.3341 -0.4746  0.1359
 5136W        W21983  16.727  17.656  14.245 -0.0739 -0.1430 -0.0233
 5137W        W21984  12.453  12.270   1.868 -0.1270  0.0147 -0.1986
 5138W        W21985   1.676  16.831  14.238 -0.1745 -0.0642  0.3350
 5139W        W21986   5.641   4.231   0.592  0.0256 -0.0110  0.1241
 5140W        W21987   0.308   3.720  12.982 -0.3241 -0.0772  0.0826
 5141W        W21988  10.025   0.447  13.923 -0.4265  0.1792 -0.0322
 5142W        W21989   9.703  10.556   0.661 -0.1084  0.3751  0.2674
 5143W        W21990  17.663  18.039  15.142 -0.2786 -0.0569 -0.0085
 5144W        W21991  15.230   7.758  12.937  0.2150  0.0481 -0.3963
 5145W        W21992  12.592  11.896   4.004 -0.1475  0.1618 -0.2195
 5146W        W21993   2.256  12.150   0.620 -0.0100  0.0022  0.0450
 5147W        W21994   1.188   0.751  14.266 -0.0288 -0.1376  0.2028
 5148W        W21995  17.712   7.880  16.020  0.3182  0.3333 -0.2133
 5149W        W21996   8.302   4.673  13.761  0.0263  0.3386  0.0191
 5150W        W21997  10.636  16.160  12.021 -0.0386 -0.0312  0.3514
 5151W        W21998   0.411  11.334   3.482  0.2088  0.0229  0.2562
 5152W        W21999  10.956  16.063  15.830  0.0788  0.3218  0.0689
 5153W        W22000  13.227  17.981   4.029  0.2630 -0.3242 -0.0318
 5154W        W22001   5.060  15.333   1.046  0.1792 -0.1160  0.0197
 5155W        W22002  11.248  11.564   2.591  0.0806 -0.1789  0.0282
 5156W        W22003   0.284   9.467   2.756  0.1230 -0.2474 -0.0583
 5157W        W22004  11.035  11.119  12.799 -0.2942 -0.2096  0.1878
 5158W        W22005   7.863  13.697   0.772 -0.1733  0.2336 -0.1206
 5159W        W22006   0.876   0.362   3.953 -0.2519  0.1731 -0.0491
 5160W        W22007  16.270  16.854   3.061 -0.1359 -0.2217 -0.2472
 5161W        W22008  18.061  14.732  14.989  0.0797 -0.1990 -0.1262
 5162W        W22009  12.302   1.790  12.055 -0.2323 -0.0517 -0.1668
 5163W        W22010  12.559   0.343   3.388  0.1888 -0.0130  0.0921
 5164W        W22011  10.925  10.953   3.928 -0.1830  0.0778 -0.1055
 5165W        W22012   1.772   4.643   0.789  0.1237 -0.2007 -0.0600
 5166W        W22013  16.421  15.924  15.735  0.3724 -0.1627  0.0659
 5167W        W22014  10.732  10.394   5.012  0.0214 -0.5910 -0.0451
 5168W        W22015   5.722  13.419   4.743  0.1659  0.1333  0.1485
 5169W        W22016   1.792   7.310   1.252 -0.0009  0.1313  0.2733
 5170W        W22017   0.803  12.560  13.273  0.1813 -0.0219  0.2091
 5171W        W22018   2.360  16.311   3.665 -0.3120  0.0498 -0.0764
 5172W        W22019  16.349   1.500   5.036  0.1625  0.1043 -0.1661
 5173W        W22020  14.603   0.081  14.665  0.0175  0.0119 -0.0149
 5174W        W22021  12.186  12.342  11.397  0.0551  0.1271  0.3244
 5175W        W22022   9.009   4.938  14.478 -0.0177  0.1014  0.1853
 5176W        W22023   7.950   6.673  14.518 -0.2223  0.3144 -0.0796
 5177W        W22024   1.193  18.102  14.196  0.2213 -0.0354  0.0914
 5178W        W22025  18.242  17.801   3.982  0.1370  0.2980 -0.0639
 5179W        W22026  13.349   3.422   0.707 -0.0812 -0.3965  0.1981
 5180W        W22027  14.160  17.286  13.070 -0.1457  0.0223 -0.0509
 5181W        W22028  16.548   7.366   4.847 -0.0741 -0.0965 -0.0071
 5182W        W22029  10.372  15.344   4.767 -0.1037 -0.0093 -0.1239
 5183W        W22030   5.397   2.569  15.592 -0.0216 -0.2183  0.2375
 5184W        W22031  15.061   5.958   2.326 -0.1404 -0.2100 -0.0157
 5185W        W22032   8.882   2.461   3.718 -0.0297  0.0024 -0.1080
 5186W        W22033   6.480  16.704   5.829  0.2751 -0.0001  0.0920
 5187W        W22034  17.736   6.533   1.772 -0.0170 -0.0509 -0.1593
 5188W        W22035   1.085  13.903   4.897  0.0644  0.2131 -0.3093
 5189W        W22036   8.014  12.428   3.036  0.1059  0.0260 -0.0948
 5190W        W22037   7.972   3.354  13.758 -0.1220  0.0756 -0.1229
 5191W        W22038  16.667  16.397  15.876  0.2620  0.2215 -0.0894
 5192W        W22039  16.605  14.303   1.877 -0.1383 -0.1067 -0.4260
 5193W        W22040  15.995   6.197  14.262  0.1607  0.2796  0.0980
 5194W        W22041  17.244   4.700   0.451 -0.0334  0.1418  0.0518
 5195W        W22042  14.243  15.044  12.781 -0.0793 -0.1569 -0.0002
 5196W        W22043  12.962  11.454  12.900  0.1519  0.1285 -0.1518
 5197W        W22044   4.482  12.186  13.429 -0.1291 -0.0518  0.2270
 5198W        W22045   9.584  12.457   2.606  0.1259  0.0721  0.0212
 5199W        W22046  16.881   3.236  10.895 -0.0494 -0.0629 -0.1520
 5200W        W22047  16.907   2.351   2.038 -0.4083 -0.0803  0.0894
 5201W        W22048   6.913  16.387   2.080 -0.4442 -0.0644 -0.4168
 5202W        W22049   8.273   6.618   0.115 -0.0428  0.2081  0.1533
 5203W        W22050  15.585   6.802  15.979  0.0434  0.2200 -0.0431
 5204W        W22051   8.161  17.829  11.946  0.1854  0.0835  0.2860
 5205W        W22052  16.121  17.540  12.321  0.0847  0.2456  0.3076
 5206W        W22053  16.402   3.250  13.049 -0.0587  0.0000 -0.0791
 5207W        W22054  11.309   5.038   0.791 -0.1474  0.2595 -0.3537
 5208W        W22055   3.193   8.230  11.649 -0.1968  0.1618 -0.0259
 5209W        W22056  13.964  14.634  12.997 -0.1446  0.1547 -0.1280
 5210W        W22057  12.988   9.092   2.332  0.1768 -0.1799  0.1370
 5211W        W22058   6.649  17.808   2.479  0.0074  0.0655  0.0081
 5212W        W22059   8.055   1.414  11.838  0.0812  0.0871 -0.1418
 5213W        W22060  18.112   0.160   0.822 -0.2647  0.2281 -0.0359
 5214W        W22061   8.639   4.018   0.254  0.0964 -0.1826 -0.3838
 5215W        W22062   2.599   6.557   5.383 -0.2372 -0.0461 -0.0332
 5216W        W22063   3.079  11.655  15.804 -0.0187  0.0673  0.0022
 5217W        W22064  17.997  13.403  12.940 -0.1569 -0.0693 -0.0031
 5218W        W22065  10.771  12.953  14.239  0.0937  0.1087  0.2832
 5219W        W22066   7.384  18.075  16.084 -0.1333 -0.1363  0.0577
 5220W        W22067   1.076  11.307   4.027  0.4917 -0.3000  0.0358
 5221W        W22068   6.379  17.428   2.233 -0.3983 -0.1490  0.0027
 5222W        W22069  15.748  17.888  14.195  0.2078 -0.0453  0.2296
 5223W        W22070   6.467   9.905  13.829 -0.0942  0.0522 -0.1376
 5224W        W22071  17.544  14.658  15.790 -0.0373 -0.0338  0.3133
 5225W        W22072   9.864   3.361   1.327 -0.1038 -0.1543  0.0131
 5226W        W22073  13.438  16.261  14.209  0.0892 -0.0293  0.0934
 5227W        W22074  11.729   6.106  15.760  0.0054  0.2358 -0.0023
 5228W        W22075   0.865   3.087   4.597  0.2501 -0.1658 -0.0354
 5229W        W22076   6.721   5.571   3.679  0.0504  0.1841  0.2581
 5230W        W22077   3.978   1.366  11.407  0.0733 -0.1519  0.2528
 5231W        W22078   2.514  15.072   5.768  0.0900 -0.1911 -0.3593
 5232W        W22079  17.770   9.846  13.300 -0.3046  0.0779  0.2443
 5233W        W22080   0.863  14.968   2.563  0.0063 -0.0725 -0.1469
 5234W        W22081   5.337  15.126   1.865 -0.0729  0.3450  0.0819
 5235W        W22082  17.520   4.641  15.650 -0.0147 -0.3054  0.3134
 5236W        W22083  10.658   9.092   4.435 -0.0645 -0.1334 -0.0211
 5237W        W22084  10.090   5.012  13.100 -0.1336  0.2600 -0.0627
 5238W        W22085   2.631  17.769   5.303  0.3117  0.1424  0.2304
 5239W        W22086  17.270   0.902   1.715 -0.2826  0.0574  0.1530
 5240W        W22087   9.951   3.900   1.338 -0.0334 -0.1570  0.2119
 5241W        W22088  12.835  14.216  14.217 -0.0509  0.0202  0.2022
 5242W        W22089  11.528   8.338   0.039 -0.1282  0.6346  0.0142
 5243W        W22090   4.712   5.068  13.168  0.0123  0.1660  0.4098
 5244W        W22091   0.851  12.533  13.872  0.0011 -0.1408  0.3341
 5245W        W22092   6.047   6.145   2.485 -0.1009  0.2444  0.2530
 5246W        W22093  12.630  14.810  12.954 -0.0713 -0.4076  0.2337
 5247W        W22094   4.412   1.831  15.902 -0.2993 -0.2281  0.0277
 5248W        W22095   8.410   9.167   5.832 -0.3315 -0.0399 -0.1362
 5249W        W22096   3.035  11.526  12.708  0.2170  0.0577 -0.1847
 5250W        W22097  17.960   7.916   1.934 -0.1788 -0.0369 -0.0592
 5251W        W22098   7.128  16.433   4.197 -0.1439  0.1676 -0.0696
 5252W        W22099   7.848   9.796  12.502  0.0582  0.2114  0.0298
 5253W        W22100   8.232   7.783  15.777  0.0641 -0.2123  0.1526
 5254W        W22101   9.124  17.723   0.520 -0.0337 -0.0560  0.0465
 5255W        W22102  17.882   1.804   5.157  0.1564  0.2209 -0.0741
 5256W        W22103  15.327  14.333   3.432  0.0143  0.0013 -0.2261
 5257W        W22104  17.929  16.194  10.896  0.3682  0.0062  0.1808
 5258W        W22105  18.208  14.747  12.571  0.2567 -0.0606  0.1650
 5259W        W22106   2.084   7.919   2.918 -0.2359  0.2063 -0.1116
 5260W        W22107   3.269   1.461   0.566 -0.1841  0.2156  0.0154
 5261W        W22108  17.502   8.482   5.739  0.0864  0.0563  0.0484
 5262W        W22109  11.432   1.766  12.172 -0.1718  0.1005 -0.2613
 5263W        W22110  13.970  16.558  15.438 -0.0893 -0.1218 -0.1735
 5264W        W22111   4.468   9.577   0.538 -0.1467 -0.0160  0.0855
 5265W        W22112   0.242  17.224   0.713 -0.2877 -0.0528  0.2104
 5266W        W22113   7.114   1.801  11.615 -0.3684  0.0798  0.0081
 5267W        W22114  15.145  10.289   3.556 -0.1528 -0.0043  0.0028
 5268W        W22115   9.211  15.692   0.504 -0.2432  0.4420 -0.0448
 5269W        W22116   3.848   5.328   1.529  0.0894 -0.4023 -0.1477
 5270W        W22117  11.954   5.559   1.935  0.0629  0.0315 -0.1953
 5271W        W22118  10.519  17.952   3.516 -0.0565  0.1644  0.0762
 5272W        W22119   8.158   1.958  15.691 -0.3216 -0.1579 -0.0921
 5273W        W22120  12.646   9.357   2.075 -0.0840 -0.0006  0.1532
 5274W        W22121  10.388  15.740  12.160  0.0649  0.1899 -0.1413
 5275W        W22122  10.263   5.381   0.830  0.1484 -0.1750 -0.0699
 5276W        W22123   1.497   6.873  14.048  0.2725 -0.0361  0.1137
 5277W        W22124   5.517  11.768   6.103  0.0882 -0.1073 -0.2614
 5278W        W22125  11.287   3.660  12.891 -0.0569 -0.2950 -0.0926
 5279W        W22126   3.898  13.369   3.449  0.5584  0.0438  0.0920
 5280W        W22127  10.500   0.530   1.816 -0.2642 -0.1701  0.2994
 5281W        W22128  17.103  12.222   5.155 -0.1574 -0.0514  0.0957
 5282W        W22129   7.221  18.269   1.412  0.0502 -0.1342 -0.1523
 5283W        W22130  12.472  10.006   5.163  0.1118 -0.0522 -0.0704
 5284W        W22131   9.948  13.807  12.039  0.1866 -0.0092  0.0806
 5285W        W22132   3.787   9.438   3.469  0.2059  0.0498 -0.0964
 5286W        W22133   2.482   1.942  15.534  0.1763 -0.0257  0.1743
 5287W        W22134   2.268  13.005   2.065 -0.1587  0.1667 -0.0654
 5288W        W22135   3.989  15.664   0.667  0.2676  0.0259  0.1880
 5289W        W22136  14.023   1.794   1.658  0.3360 -0.1994  0.1495
 5290W        W22137  14.971   5.949   0.058 -0.1856  0.0867 -0.6347
 5291W        W22138   9.317  12.781  13.050 -0.0350  0.1784 -0.0209
 5292W        W22139   9.159   9.216   1.156 -0.0950  0.2362  0.1530
 5293W        W22140  12.999   0.085   3.933  0.2000  0.0069  0.3713
 5294W        W22141  10.822  11.478  12.498 -0.0918 -0.0408  0.1133
 5295W        W22142   7.811   8.417  13.223 -0.2654 -0.0297  0.1795
 5296W        W22143   1.751   4.518   2.887 -0.2353  0.1476  0.2774
 5297W        W22144   7.743   7.141  11.924  0.3993  0.2700 -0.0453
 5298W        W22145  15.430  13.514  15.026 -0.0398  0.0890 -0.1965
 5299W        W22146  15.836   5.724  15.136  0.1935 -0.5527  0.1053
 5300W        W22147  18.277  11.645   2.579 -0.0523 -0.0291 -0.3919
 5301W        W22148  13.464   2.537   2.647  0.3233 -0.1229  0.3026
 5302W        W22149   9.742   7.009  14.330  0.0146 -0.0038 -0.2023
 5303W        W22150   4.797   4.395   2.071 -0.3437  0.1900  0.0767
 5304W        W22151   6.247  11.367   1.101 -0.1080 -0.1894  0.0954
 5305W        W22152   6.148   9.075   1.275  0.1746 -0.3326  0.1809
 5306W        W22153   3.709  18.202   4.496 -0.1206  0.0937 -0.2656
 5307W        W22154  15.282   7.397   3.022 -0.0680 -0.0395 -0.1727
 5308W        W22155  15.139  13.767   1.465  0.1231  0.0096  0.1973
 5309W        W22156  11.906   2.848  11.567  0.3809 -0.1713  0.1209
 5310W        W22157  13.056   4.123  10.304 -0.1357 -0.0125  0.1968
 5311W        W22158  17.965  14.845   3.039 -0.1133 -0.3456  0.0259
 5312W        W22159  13.679   6.811   0.410 -0.4028 -0.0151  0.1309
 5313W        W22160  13.903   7.722  14.406  0.4649 -0.2126 -0.0529
 5314W        W22161  14.236  13.353  11.556 -0.0549  0.0657 -0.2097
 5315W        W22162  17.958  14.255   3.118 -0.1090 -0.1450  0.0512
 5316W        W22163   7.667  12.057  12.429  0.2447  0.0307 -0.3210
 5317W        W22164  15.863  13.496   5.052  0.0405  0.0080  0.1938
 5318W        W22165  13.825  14.219   0.528 -0.2566  0.2868 -0.0615
 5319W        W22166  12.993   6.118  15.451  0.2057 -0.3058  0.1118
 5320W        W22167   9.119  12.833   1.127  0.1259  0.0843  0.2836
 5321W        W22168   0.403   2.151  12.325  0.0833  0.1550  0.3054
 5322W        W22169  18.267   3.548  15.924  0.1422  0.0910  0.3242
 5323W        W22170  16.122   7.146  15.002 -0.0951  0.0634  0.0819
 5324W        W22171   4.904   2.948  13.114 -0.3516  0.0819 -0.3284
 5325W        W22172   1.524   9.512   0.561  0.0701  0.1053  0.0904
 5326W        W22173  10.913   8.802  12.138 -0.3952  0.2520  0.0494
 5327W        W22174  17.811   3.334   5.259  0.1840 -0.1761  0.1175
 5328W        W22175   9.959   7.596   0.073 -0.1985 -0.2294  0.0755
 5329W        W22176   3.452   6.831  12.725 -0.0497  0.0407 -0.1265
 5330W        W22177   6.183  12.755  15.837  0.2580  0.0424  0.0182
 5331W        W22178   7.877   0.902  10.723  0.0118 -0.0198 -0.0296
 5332W        W22179   5.363  17.968  12.321 -0.0201  0.2733 -0.1237
 5333W        W22180   8.718  10.500  13.689 -0.1953  0.5008 -0.1017
 5334W        W22181  14.596  17.748  14.110  0.1481 -0.0420 -0.2562
 5335W        W22182  15.283   5.976   1.882 -0.0723 -0.1473 -0.0510
 5336W        W22183  16.377   3.928  12.561  0.1368  0.0318  0.3917
 5337W        W22184  11.668  13.382   3.922  0.0638 -0.1395  0.0846
 5338W        W22185   3.865  14.730   4.160 -0.0355  0.1133 -0.1350
 5339W        W22186  13.890   3.790  11.280  0.0360 -0.2676  0.1263
 5340W        W22187   9.424   6.530   5.764  0.2283  0.0058  0.2056
 5341W        W22188   5.905   6.179  13.314  0.0400  0.0273 -0.0207
 5342W        W22189   7.993  16.331   4.281  0.0139  0.0703 -0.0452
 5343W        W22190  17.380  11.522  14.337  0.1825  0.2346 -0.1245
 5344W        W22191   6.108   2.867  14.823  0.2389 -0.1486 -0.0681
 5345W        W22192   7.760   0.927   3.937  0.1124 -0.0025 -0.2677
 5346W        W22193   2.123   6.985   2.775 -0.4599 -0.1762 -0.2801
 5347W        W22194  15.138   1.208   4.484 -0.0870  0.0271 -0.0693
 5348W        W22195  15.801  15.866   5.258 -0.0852 -0.3024  0.4456
 5349W        W22196   6.967   2.056   3.673  0.1992  0.1603 -0.1257
 5350W        W22197   5.375  17.845   3.809 -0.0321  0.1700 -0.4404
 5351W        W22198   3.852   9.291  15.194  0.2065  0.0464  0.0623
 5352W        W22199   9.930   0.732   4.824  0.0273  0.0882 -0.1422
 5353W        W22200  16.059  16.332   5.882 -0.1686  0.0943 -0.1287
 5354W        W22201  11.238  12.219   0.479 -0.1717  0.1077  0.3829
 5355W        W22202   2.298  15.383  12.554 -0.3742 -0.1945  0.0158
 5356W        W22203   1.448   6.341  12.572  0.0437  0.1169  0.1795
 5357W        W22204   0.976   8.240   0.503 -0.0428 -0.0236  0.3528
 5358W        W22205  11.979   4.664  11.284 -0.0028  0.1641 -0.1632
 5359W        W22206   7.756   4.871  11.573  0.1901  0.3564  0.0957
 5360W        W22207   0.147   7.950  11.891  0.0453  0.1826 -0.0675
 5361W        W22208  14.036   2.026  15.274  0.0513  0.2405  0.1528
 5362W        W22209   0.718   3.819   5.572 -0.2147 -0.0852  0.3080
 5363W        W22210  14.353  10.583   1.496 -0.2832  0.2588  0.0056
 5364W        W22211   3.534   1.289   4.886 -0.1268  0.0746  0.1305
 5365W        W22212  15.742  12.561  15.633 -0.0744 -0.1618  0.1132
 5366W        W22213  17.743   7.765  13.364  0.1019 -0.1894 -0.2528
 5367W        W22214   1.942   1.203  13.090 -0.0215  0.2311  0.2364
 5368W        W22215   6.626   0.128  12.951 -0.0895 -0.2286 -0.0653
 5369W        W22216   7.926  17.700   1.099 -0.0987  0.0015  0.0421
 5370W        W22217   6.394   5.640  11.575  0.0740 -0.0143 -0.2195
 5371W        W22218   7.236   2.788  13.408  0.0096  0.0179 -0.0806
 5372W        W22219   0.704   6.635   1.915  0.3474  0.1926 -0.0096
 5373W        W22220   3.739   3.772  11.946  0.0248 -0.0019 -0.1939
 5374W        W22221  14.941   0.853   0.326  0.3022  0.0530  0.2999
 5375W        W22222   3.567  10.896  13.023  0.2836  0.1077 -0.0500
 5376W        W22223  12.911   2.108  13.719 -0.2770  0.0338 -0.0558
 5377W        W22224   9.281   2.703  14.661  0.0358 -0.0090  0.0874
 5378W        W22225  10.748  15.642  16.128  0.3790  0.1253  0.0203
 5379W        W22226  10.146   7.755  14.127 -0.2080  0.3682  0.3277
 5380W        W22227   6.050  13.713   6.019 -0.1217  0.0215  0.0831
 5381W        W22228   9.682  10.733   2.118  0.1525 -0.0929 -0.1871
 5382W        W22229   1.459   0.958  15.797 -0.0893  0.0598 -0.0688
 5383W        W22230  14.776  12.026  11.289  0.4031 -0.0413 -0.0897
 5384W        W22231   0.895   4.345   1.880  0.2059  0.0831 -0.0542
 5385W        W22232  14.578   9.371  12.857 -0.1055 -0.0181  0.3955
 5386W        W22233  14.508   5.788  10.992  0.0014  0.3191 -0.1264
 5387W        W22234   0.222  16.748   0.539 -0.0294 -0.1949 -0.2285
 5388W        W22235  14.564   4.654  11.899 -0.1450 -0.1254  0.0908
 5389W        W22236   6.117  12.893   0.510  0.0522  0.0032 -0.5002
 5390W        W22237   1.546   9.347   1.091 -0.1571  0.0269 -0.0128
 5391W        W22238   0.641  15.718  12.324 -0.2445  0.1011 -0.1823
 5392W        W22239   1.071   6.595  15.898 -0.2870 -0.0910  0.1504
 5393W        W22240   7.357  18.037   5.603  0.2082  0.1713 -0.1228
 5394W        W22241   2.112   4.643  13.665  0.0665  0.1101 -0.2095
 5395W        W22242   5.354   2.006  15.994 -0.2513 -0.0944 -0.0716
 5396W        W22243  16.583   6.536   4.639  0.1404 -0.2687  0.1998
 5397W        W22244  13.519   4.670   0.294 -0.1743 -0.2101 -0.3822
 5398W        W22245   7.105  10.538   4.025  0.1961  0.0179  0.0598
 5399W        W22246   4.871   8.545   2.555 -0.0796 -0.0293 -0.2539
 5400W        W22247  11.881   4.015  14.809  0.1103  0.1126 -0.0918
 5401W        W22248   2.399  10.036   4.748 -0.3201 -0.0624  0.2684
 5402W        W22249   1.691   7.716   3.792  0.2749  0.1623  0.1326
 5403W        W22250  12.049   6.519  14.413 -0.1599 -0.2108 -0.1029
 5404W        W22251   7.311   2.532  15.546 -0.0610 -0.0946 -0.1887
 5405W        W22252   9.004   3.232   0.541  0.1659  0.1377  0.1095
 5406W        W22253  11.284   6.984   4.762  0.0591 -0.1247  0.0980
 5407W        W22254  15.725   5.017   2.684 -0.1027  0.1046  0.2318
 5408W        W22255   2.197   9.642  13.808 -0.0400  0.0666  0.0328
 5409W        W22256   5.099   8.928  12.599 -0.0509 -0.3176  0.1102
 5410W        W22257  14.863  10.696   0.479 -0.0882  0.0984  0.0904
 5411W        W22258   4.573   3.900  11.759  0.2216  0.1115 -0.1659
 5412W        W22259   0.837  17.296  16.000 -0.0206  0.2175  0.0226
 5413W        W22260  14.292   0.350   5.454  0.0080  0.0373 -0.3039
 5414W        W22261  17.631   0.127   5.101  0.0051  0.2476  0.0189
 5415W        W22262   2.495   6.416  14.059  0.1529 -0.1265 -0.3366
 5416W        W22263   2.994  10.747  13.180 -0.0079 -0.2942 -0.0028
 5417W        W22264  16.032  12.172   1.358  0.0970  0.2142  0.0253
 5418W        W22265  11.283   3.281  14.693  0.1207 -0.1143  0.2053
 5419W        W22266  16.218   6.350   0.304 -0.0908  0.0929 -0.0755
 5420W        W22267  15.161   3.477  12.860 -0.0542  0.2135  0.2501
 5421W        W22268  13.485   6.213   2.358  0.0490  0.1754  0.0455
 5422W        W22269  13.728   9.128   4.498 -0.1890  0.1740  0.3331
 5423W        W22270  16.316  12.940  11.705  0.0056  0.0256  0.1459
 5424W        W22271   3.408   8.075   6.164 -0.0133 -0.0328  0.2695
 5425W        W22272   0.007   5.507  12.946  0.2729  0.2407  0.0998
 5426W        W22273  14.845   7.096   0.150 -0.0091 -0.0220  0.0714
 5427W        W22274   6.177   8.631  15.234 -0.1208 -0.0392  0.0045
 5428W        W22275   2.744   9.724   4.510  0.0158  0.1305 -0.0266
 5429W        W22276   6.224  16.664  11.823  0.0075 -0.0941 -0.2124
 5430W        W22277   6.710   4.266  12.903 -0.1386  0.0022  0.0113
 5431W        W22278   5.383   5.936   4.682  0.2079  0.2558 -0.1979
 5432W        W22279  17.738  15.067   2.466 -0.1738 -0.4370  0.0062
 5433W        W22280   0.295   9.714  12.517  0.4998  0.0920 -0.0733
 5434W        W22281  17.822  12.865   2.583  0.1462 -0.0429 -0.1382
 5435W        W22282   3.299  10.189   5.114  0.3442  0.3056  0.2172
 5436W        W22283  14.709  16.931   3.521  0.0980 -0.0985 -0.0255
 5437W        W22284  10.230   2.441   3.553  0.0709 -0.0455 -0.0376
 5438W        W22285  14.623   2.976   4.591 -0.2173  0.1271  0.3244
 5439W        W22286  11.190   8.267   0.386 -0.0716  0.0672  0.0604
 5440W        W22287  11.677  13.024  16.149 -0.3899 -0.4344  0.0256
 5441W        W22288  13.761   8.012  14.807 -0.0989 -0.0094  0.0855
 5442W        W22289   0.215   4.598  11.927  0.0393 -0.2724 -0.2429
 5443W        W22290   7.924  12.674  11.727  0.1431 -0.1211 -0.2667
 5444W        W22291   4.072   3.082   3.878  0.1996 -0.0077  0.1441
 5445W        W22292   5.006   1.962   3.256 -0.0088  0.1530  0.0424
 5446W        W22293   7.354  11.926  14.234 -0.0800 -0.0696 -0.1366
 5447W        W22294   4.502   1.209  12.492 -0.2903  0.3916 -0.1592
 5448W        W22295  13.099  15.423   3.748 -0.0153 -0.2943 -0.1202
 5449W        W22296  15.304   5.769  13.677  0.1999 -0.1965 -0.1524
 5450W        W22297  17.445  11.100   4.191  0.2039  0.2873 -0.2321
 5451W        W22298   3.872   5.250  14.744 -0.0456 -0.0781 -0.0611
 5452W        W22299  15.345  13.729  14.068  0.3407  0.2286 -0.0353
 5453W        W22300   9.561  11.794  13.042 -0.3111  0.1149 -0.1913
 5454W        W22301   4.122   2.577   3.881  0.0491 -0.0590 -0.2440
 5455W        W22302   9.923  12.438   4.313 -0.1589 -0.3938 -0.1586
 5456W        W22303   4.569  17.379  13.451 -0.1382  0.3019 -0.0687
 5457W        W22304   5.993   8.081  14.924  0.1305  0.2715  0.0289
 5458W        W22305   5.519  13.396  12.878 -0.3978  0.1268 -0.0703
 5459W        W22306   8.038  11.181  12.290  0.0847  0.0227  0.5361
 5460W        W22307  10.484   6.624   1.611 -0.0546  0.1145  0.1670
 5461W        W22308  14.005   9.129  13.551 -0.1187 -0.0477 -0.5692
 5462W        W22309   4.539  10.052   0.992 -0.1895 -0.0031 -0.2097
 5463W        W22310   2.096  17.280  12.949 -0.0170 -0.1457 -0.0120
 5464W        W22311   9.974   7.981   0.970 -0.1395 -0.3616  0.0494
 5465W        W22312  11.153   0.615   4.499 -0.0514 -0.2653  0.2589
 5466W        W22313   8.518  13.012   2.741  0.0231 -0.0961  0.1172
 5467W        W22314  11.847   5.173   0.383  0.2845 -0.4174  0.0061
 5468W        W22315  12.553   1.477   3.727 -0.0210 -0.1493  0.0815
 5469W        W22316   5.493   9.192  13.344  0.0825  0.1863  0.1560
 5470W        W22317   4.402   5.058   5.654 -0.0560 -0.2218  0.0034
 5471W        W22318   5.311   9.113  14.633 -0.1604  0.2071 -0.2706
 5472W        W22319  15.730  17.167  13.193 -0.2221  0.4103  0.0970
 5473W        W22320   8.330  11.407   4.728 -0.1775  0.0990 -0.0961
 5474W        W22321  16.701  13.433  15.823 -0.4872  0.0074  0.3506
 5475W        W22322   6.528  10.377   2.308  0.0060  0.2371 -0.2053
 5476W        W22323  12.454   6.214  14.357 -0.0461 -0.1535  0.2229
 5477W        W22324   1.522   9.013   2.080  0.0127 -0.1269 -0.0194
 5478W        W22325   3.023  12.736  14.848  0.2380 -0.4759  0.0601
 5479W        W22326   4.905  14.639   6.090 -0.0286 -0.0924 -0.2752
 5480W        W22327   1.366   8.241  12.382  0.3015 -0.1065 -0.2557
 5481W        W22328   7.068   6.257  12.489 -0.0879  0.3979  0.0659
 5482W        W22329   1.967   6.698  11.788 -0.0091  0.1138 -0.0156
 5483W        W22330  15.208  13.207  15.385 -0.0265 -0.0190 -0.0667
 5484W        W22331   0.315   2.722  15.064 -0.1157 -0.1434  0.3279
 5485W        W22332  13.960  18.083   0.203 -0.1553 -0.1242 -0.0789
 5486W        W22333   9.684   2.392  15.062  0.4492  0.0946  0.3582
 5487W        W22334  14.888  17.749  13.678  0.1945  0.0635 -0.0019
 5488W        W22335  13.622   6.947   1.589 -0.0727  0.1202 -0.0495
 5489W        W22336  12.691   3.614  10.941  0.2365 -0.0502  0.0732
 5490W        W22337  17.048   0.521  13.910 -0.1568  0.2248 -0.0962
 5491W        W22338   7.626  17.637  12.706  0.0051  0.4467  0.1707
 5492W        W22339  13.520  10.372   0.800  0.1490 -0.0829  0.2689
 5493W        W22340  15.554   3.324   1.478 -0.1424 -0.2183  0.1282
 5494W        W22341  15.726  13.423  12.617 -0.1446  0.1153  0.0909
 5495W        W22342   8.103   5.041  15.129  0.0077  0.1562 -0.2087
 5496W        W22343   1.047  11.298  14.016 -0.1521 -0.3418  0.2007
 5497W        W22344   5.487   1.133   1.648 -0.2988 -0.2372 -0.1249
 5498W        W22345   7.485   1.781   1.305  0.2369 -0.3844  0.0455
 5499W        W22346   5.044   1.660   4.050 -0.3478 -0.1517  0.2288
 5500W        W22347   5.586  15.483   4.361 -0.1002 -0.0133  0.1372
 5501W        W22348  11.293   2.104  10.772  0.1394  0.0972 -0.1489
 5502W        W22349  13.380  10.442  12.121 -0.0285  0.0472 -0.0211
 5503W        W22350  15.696   3.858   4.377 -0.1946 -0.2058  0.2775
 5504W        W22351   5.033   6.546   1.948  0.0296 -0.1356 -0.1108
 5505W        W22352  14.939   1.336   5.026  0.2281 -0.0549 -0.0545
 5506W        W22353  13.961  10.191   3.647 -0.1116  0.0205  0.1005
 5507W        W22354   7.649  11.549  14.101 -0.0872 -0.0040 -0.1354
 5508W        W22355   7.061  11.967   0.373 -0.0666  0.3173  0.3500
 5509W        W22356   0.190  11.329   3.031 -0.0664 -0.3411 -0.3009
 5510W        W22357  15.882   6.685   3.812  0.1770  0.3180 -0.3104
 5511W        W22358   6.460   4.952   4.284  0.0730  0.0678  0.3709
 5512W        W22359  12.136   2.761   4.088  0.2636  0.0977 -0.0928
 5513W        W22360  10.421   1.081  12.669 -0.0898 -0.1770  0.2537
 5514W        W22361  13.459   4.786   2.058 -0.2275  0.0861 -0.1503
 5515W        W22362   0.818  13.308  13.841 -0.3505  0.0999  0.1338
 5516W        W22363  13.793  18.082  15.743  0.0624 -0.0301  0.0317
 5517W        W22364   2.109   8.535   5.270  0.1017 -0.1233 -0.0240
 5518W        W22365   6.375  17.149  14.704  0.0527 -0.2993  0.2561
 5519W        W22366  12.444  14.453  14.690 -0.0351 -0.1383  0.3625
 5520W        W22367   8.269  17.173  14.353 -0.1609  0.1403  0.2414
 5521W        W22368   4.480   4.224   5.773 -0.0594 -0.2067 -0.1036
 5522W        W22369   4.108   6.351   5.709  0.0999  0.1773 -0.1966
 5523W        W22370   2.255  14.747  12.145  0.0156  0.0605  0.1323
 5524W        W22371  15.830   3.449   4.701 -0.1208 -0.1730 -0.2781
 5525W        W22372  10.746   2.579  13.681 -0.0909  0.0028 -0.5456
 5526W        W22373  11.420   2.543   4.913  0.3590  0.1187  0.0307
 5527W        W22374  12.936   0.142  15.742 -0.0883 -0.0165  0.4179
 5528W        W22375   0.299   7.443   6.147  0.0281 -0.1820  0.1299
 5529W        W22376  14.798  14.928   1.232  0.0248 -0.2574  0.3512
 5530W        W22377  17.107   4.090  10.748 -0.1141 -0.1601  0.0532
 5531W        W22378  12.844  16.850  11.603  0.0189  0.0767  0.0582
 5532W        W22379   9.291  13.055  12.113 -0.5266 -0.1810  0.1410
 5533W        W22380  14.387   3.811  10.068 -0.0941 -0.0976 -0.0111
 5534W        W22381  12.821   7.171  13.037 -0.0565  0.1931 -0.1737
 5535W        W22382  11.650   5.620  15.549 -0.0072 -0.1140  0.0966
 5536W        W22383  16.048   6.478  11.011  0.3457 -0.0580 -0.1491
 5537W        W22384   1.302  17.451   4.116 -0.0364  0.0329  0.0107
 5538W        W22385  18.294  15.791  12.409  0.2309 -0.2224 -0.2993
 5539W        W22386  10.566  17.649  11.189 -0.0995  0.0159 -0.1296
 5540W        W22387   0.962   4.277  13.645  0.0570  0.0445 -0.0134
 5541W        W22388   0.125  10.894   0.933 -0.2489  0.2894 -0.0701
 5542W        W22389   5.381   9.593   3.523  0.0396 -0.0247 -0.0364
 5543W        W22390   2.282   6.453  15.764 -0.2951 -0.4535 -0.0250
 5544W        W22391   6.810  17.987   0.655 -0.0124  0.1995  0.1305
 5545W        W22392   1.855  14.278  13.910 -0.0621 -0.2457 -0.0389
 5546W        W22393   8.606   4.512  12.712  0.1132 -0.2013  0.0798
 5547W        W22394   8.768   9.236  14.289 -0.1760  0.2246  0.2551
 5548W        W22395  17.016   9.197  12.211 -0.3389  0.0013 -0.0398
 5549W        W22396  11.396   3.140   3.559 -0.1865  0.1744  0.2974
 5550W        W22397  17.749  15.747  13.778 -0.0069 -0.0541  0.1297
 5551W        W22398  15.348   8.573   3.501 -0.1181  0.1639 -0.1630
 5552W        W22399   4.757  13.469  12.378  0.0307 -0.1059 -0.1008
 5553W        W22400  15.274   8.210   4.462  0.1554 -0.1015 -0.1063
 5554W        W22401   3.563  14.327   0.882  0.0676  0.0443  0.0398
 5555W        W22402  14.801  16.955   4.928 -0.0228  0.2497  0.1865
 5556W        W22403  15.703   5.397   5.131  0.2841  0.0542 -0.2514
 5557W        W22404  15.535  14.130  10.573 -0.1308  0.0582 -0.0861
 5558W        W22405   8.216   1.572   2.343 -0.2514 -0.0481 -0.0286
 5559W        W22406   1.431   2.829   0.742  0.0062  0.0361 -0.0228
 5560W        W22407  17.538   9.305   4.144  0.0005 -0.1389 -0.0338
 5561W        W22408  13.191  16.999   1.408  0.0598 -0.0216 -0.0964
 5562W        W22409  14.973   6.874  15.004  0.1029  0.2973  0.3967
 5563W        W22410  12.560  10.600  11.803  0.0470  0.3248  0.2941
 5564W        W22411   6.487   9.490   5.034  0.0918 -0.0766 -0.2390
 5565W        W22412   1.025   6.472  15.417 -0.0708 -0.3647 -0.2315
 5566W        W22413   4.623  18.138   3.382 -0.0673 -0.1849 -0.0896
 5567W        W22414   0.152   8.570   1.375  0.1370 -0.1649  0.2560
 5568W        W22415   2.137   6.614  13.097 -0.0719 -0.2969  0.0913
 5569W        W22416   5.716   4.036   2.327 -0.0174 -0.0582 -0.0624
 5570W        W22417   9.696   7.126   1.937 -0.0059 -0.0336 -0.2890
 5571W        W22418  15.066   3.228  12.365  0.3354  0.0453 -0.0147
 5572W        W22419   4.968   0.330   1.367  0.0640 -0.3612 -0.0483
 5573W        W22420  16.739   2.230  14.636 -0.1357 -0.0427 -0.2886
 5574W        W22421   6.261   3.710   4.505  0.1789 -0.2303  0.0119
 5575W        W22422  11.983   7.750   4.174 -0.1679 -0.0827 -0.1358
 5576W        W22423  14.751   1.418  12.856  0.1044  0.0708  0.2816
 5577W        W22424   2.416   0.338   3.584 -0.0592 -0.1317 -0.2841
 5578W        W22425   1.778   6.293  13.319  0.1366 -0.0125  0.1920
 5579W        W22426  13.141  12.843  11.692  0.2248  0.1761 -0.2618
 5580W        W22427  11.650  12.929   5.142 -0.1643 -0.2435 -0.0678
 5581W        W22428  13.022   3.788   0.165  0.0697  0.1501  0.1094
 5582W        W22429  11.793   0.120  11.622 -0.0501 -0.2271 -0.1212
 5583W        W22430  16.712   7.645   1.294 -0.1337 -0.1766 -0.1189
 5584W        W22431   3.973   7.577   5.693 -0.1214 -0.1763 -0.0713
 5585W        W22432   0.321   1.834  11.256  0.2079 -0.0048  0.3065
 5586W        W22433  13.771  11.169   4.647 -0.0144  0.2123 -0.0546
 5587W        W22434   5.583  10.849   4.928  0.0327  0.2558 -0.1074
 5588W        W22435   3.972  15.091  14.421 -0.0705 -0.0070  0.2617
 5589W        W22436  11.562   4.579  12.843  0.0400 -0.1466  0.0098
 5590W        W22437   5.605   3.596  13.342 -0.2245  0.0829 -0.3854
 5591W        W22438  11.272   2.730   2.826 -0.3023  0.0750 -0.0799
 5592W        W22439   1.984  13.409  11.676  0.0645  0.0677  0.1204
 5593W        W22440  14.094   2.155   1.982  0.1395  0.1069 -0.0247
 5594W        W22441   0.726   7.232  14.423  0.0950 -0.1154 -0.0037
 5595W        W22442   1.430   8.919   4.285 -0.1649 -0.0944 -0.0579
 5596W        W22443   0.360   0.405   4.826 -0.1071 -0.2298 -0.0260
 5597W        W22444  12.093  13.261  14.783 -0.0463 -0.2364  0.3168
 5598W        W22445  13.282  14.891   0.016  0.2527 -0.3645  0.0921
 5599W        W22446   4.516   8.218  14.054 -0.1366 -0.2198  0.3283
 5600W        W22447   5.419   3.686  14.134  0.1088 -0.0512  0.0679
 5601W        W22448   0.296  13.894  12.191 -0.2143 -0.1769 -0.0334
 5602W        W22449   2.701   1.058   5.539  0.2722  0.0414  0.2508
 5603W        W22450  12.224  14.254   3.149 -0.1654 -0.0588  0.1032
 5604W        W22451   2.485   3.910   5.028  0.2470  0.1704  0.2167
 5605W        W22452  16.902   6.358   3.341  0.0957  0.2122  0.1825
 5606W        W22453   6.980  17.309   5.165 -0.1854 -0.1926  0.1737
 5607W        W22454   9.455  14.068  15.318  0.1214  0.0080  0.3190
 5608W        W22455   0.435  15.939   4.376 -0.0344  0.2422  0.1316
 5609W        W22456   2.935  16.598  15.681 -0.1662  0.1404  0.1022
 5610W        W22457   2.575  10.932   1.828 -0.1064 -0.2568  0.0515
 5611W        W22458  16.207   4.861   1.548  0.0148  0.1619 -0.0864
 5612W        W22459  12.370   8.358  12.678  0.3095 -0.0966  0.0753
 5613W        W22460  13.858   5.868   0.725  0.1388 -0.2206  0.1977
 5614W        W22461  16.794  17.906   1.264  0.0803  0.0206  0.2359
 5615W        W22462   9.297  14.594  13.669 -0.1560 -0.1517  0.0548
 5616W        W22463   6.480   9.594  14.267 -0.1829  0.0127 -0.1252
 5617W        W22464   3.859   7.454  12.820  0.0212 -0.1692  0.0177
 5618W        W22465   8.855  17.463   3.290 -0.1418  0.3477 -0.0761
 5619W        W22466  15.414   7.360   0.993 -0.1248 -0.0502 -0.3132
 5620W        W22467   5.456   4.846   3.939  0.0783 -0.1655  0.0782
 5621W        W22468   5.057  12.284   2.459 -0.2201  0.1886  0.4329
 5622W        W22469  18.236   5.745  14.071  0.0095 -0.1559  0.1955
 5623W        W22470  13.494  16.096   1.405 -0.2698 -0.0451  0.1858
 5624W        W22471   1.364  18.034   2.958 -0.2242 -0.0148 -0.3151
 5625W        W22472   0.068  16.669  15.513 -0.0715  0.4843 -0.0703
 5626W        W22473  16.352   4.282   2.189 -0.1151  0.0487  0.1246
 5627W        W22474   5.503   6.472  13.690 -0.0077  0.0573 -0.0630
 5628W        W22475   5.250  10.291  13.587  0.1552  0.2049  0.0195
 5629W        W22476   9.452  18.322   1.993 -0.2414  0.0509  0.0586
 5630W        W22477  18.028   8.564   4.362  0.0829 -0.0241  0.0182
 5631W        W22478   1.052  15.241  10.835  0.3234  0.0874  0.1844
 5632W        W22479  10.850   4.716   0.993  0.3194 -0.1843  0.3008
 5633W        W22480   6.450  14.188  14.978  0.2161 -0.2230  0.1243
 5634W        W22481  11.167  14.493  15.022  0.0111  0.0651 -0.1119
 5635W        W22482   1.510  11.079  14.037 -0.0240  0.2772 -0.1726
 5636W        W22483  17.379   1.606  14.673  0.1455  0.1485 -0.1898
 5637W        W22484   1.060  10.308  13.745 -0.3335 -0.0615  0.3813
 5638W        W22485  17.054  14.971  12.592 -0.0263  0.0007  0.1628
 5639W        W22486   5.440   5.060   3.488 -0.2967 -0.0666 -0.2536
 5640W        W22487   6.140  15.838   4.761 -0.0356  0.1819 -0.1692
 5641W        W22488  13.182  14.225  13.372  0.2124 -0.0277 -0.0301
 5642W        W22489  10.398  18.199  12.937 -0.1039  0.0646  0.1963
 5643W        W22490  13.869   4.560   9.883  0.0028  0.1712  0.2083
 5644W        W22491  13.509   5.923  13.059 -0.2602  0.1404  0.0341
 5645W        W22492  14.980   0.703  11.601  0.1062  0.0361 -0.2418
 5646W        W22493  13.116  10.797   5.198  0.1573  0.0962 -0.3159
 5647W        W22494  15.107   4.229  10.764 -0.1627 -0.0904  0.1428
 5648W        W22495  11.332  11.280   3.763  0.0079 -0.1296 -0.2612
 5649W        W22496   1.559   4.584   5.558 -0.3852  0.3156 -0.0968
 5650W        W22497   4.589  16.640   2.538  0.1324 -0.2397  0.1035
 5651W        W22498  17.756  11.714   2.788  0.0103  0.0418 -0.1290
 5652W        W22499   2.561   7.470   4.966 -0.0928 -0.1133 -0.1287
 5653W        W22500   9.407  11.832   3.809 -0.0178  0.1148 -0.1640
 5654W        W22501   6.048  17.658   5.084  0.1249  0.0587 -0.1076
 5655W        W22502  17.059  16.740  12.803 -0.0205  0.1881 -0.2682
 5656W        W22503  11.127  16.826   4.089 -0.3175 -0.0570  0.0718
 5657W        W22504   2.492  15.696   1.817 -0.0810  0.1247  0.0862
 5658W        W22505  13.935   9.607   1.813  0.0595 -0.0998  0.0651
 5659W        W22506   7.417  10.149   2.660  0.2753  0.0543 -0.2142
 5660W        W22507  15.680   4.025   3.328 -0.1310 -0.3575 -0.0967
 5661W        W22508   3.190  10.059  14.593  0.0256  0.2610  0.1465
 5662W        W22509  16.036  12.047   0.580  0.0792 -0.0049 -0.1149
 5663W        W22510   6.811   1.073   1.218  0.1164 -0.1282  0.2563
 5664W        W22511   7.499   6.429  14.740  0.0215  0.0353 -0.3848
 5665W        W22512   6.783  14.282   5.513 -0.1581  0.4142  0.0854
 5666W        W22513   7.970   3.746   4.424  0.2007 -0.0261 -0.1275
 5667W        W22514  11.394   7.076  10.976  0.3145 -0.1578 -0.0534
 5668W        W22515  16.939   1.998   0.639 -0.0334  0.0148 -0.0922
 5669W        W22516  17.149   3.824  12.752 -0.3473  0.0423  0.1596
 5670W        W22517  13.889   4.784  12.927 -0.2037  0.2495  0.0634
 5671W        W22518  13.153   0.584  14.298  0.1374  0.1572  0.2510
 5672W        W22519   7.358  17.942  11.430 -0.2938 -0.1585 -0.0054
 5673W        W22520  15.183   8.149   1.569  0.0307 -0.1303 -0.0850
 5674W        W22521   9.028   0.446  13.997 -0.0349  0.0234 -0.1519
 5675W        W22522  14.735   1.473   4.066  0.2590  0.0862 -0.0208
 5676W        W22523   6.479  16.204   1.734 -0.2367  0.0216  0.1357
 5677W        W22524  10.318  16.029   5.485  0.0047  0.0358  0.0244
 5678W        W22525   1.897   0.644  14.894  0.2521 -0.2071 -0.2915
 5679W        W22526  15.451   7.634  15.762 -0.0990  0.0967  0.1932
 5680W        W22527   2.411  10.195  16.034  0.2361 -0.0730  0.0352
 5681W        W22528   4.800   6.910   2.426  0.1209 -0.0257  0.2276
 5682W        W22529  10.565   3.060  16.072  0.0407 -0.1686 -0.0855
 5683W        W22530  15.387  12.856  12.754  0.4850 -0.0572 -0.0084
 5684W        W22531   9.458   3.141   0.305  0.1189  0.2466 -0.0130
 5685W        W22532  14.553  11.517   0.588 -0.1848  0.1439 -0.1377
 5686W        W22533  16.445  17.110  15.552 -0.0572 -0.0252  0.0947
 5687W        W22534   8.632   2.278  14.344  0.2773  0.3015  0.3475
 5688W        W22535  13.232   6.495   0.226  0.2465 -0.2419  0.0465
 5689W        W22536   4.099  13.530   5.353 -0.0061  0.0167  0.1135
 5690W        W22537  17.489   2.994  14.805  0.1621 -0.0524  0.1238
 5691W        W22538  13.837  14.517   5.623  0.1718 -0.5144  0.4097
 5692W        W22539  10.709   0.559  15.190  0.0760  0.1923 -0.3860
 5693W        W22540  13.226  13.637   0.257  0.1639 -0.1522 -0.2904
 5694W        W22541  11.899   6.506   0.148 -0.0417 -0.0076 -0.2315
 5695W        W22542   6.701   5.462   3.174 -0.1479  0.0181 -0.1425
 5696W        W22543   2.535   2.416  14.041  0.0416 -0.1897  0.0846
 5697W        W22544  16.325  11.565  14.529  0.1569 -0.1234  0.1616
 5698W        W22545  14.437  15.093   5.136  0.0509 -0.2298  0.3068
 5699W        W22546   7.905   4.574  16.095  0.2795  0.1965  0.2199
 5700W        W22547  18.002   2.267  15.729  0.0463  0.1271 -0.1331
 5701W        W22548  17.768   0.810   0.520  0.0466  0.0112 -0.3764
 5702W        W22549   3.840   6.845   4.706  0.1775 -0.1198  0.0083
 5703W        W22550   0.362  13.800  14.387 -0.1366 -0.0852  0.0517
 5704W        W22551   8.371   9.312   3.968 -0.0472 -0.2738 -0.2938
 5705W        W22552  16.268  17.720   2.686 -0.2208 -0.0931 -0.4017
 5706W        W22553   4.205   1.539  12.307  0.1481 -0.1984 -0.0118
 5707W        W22554   2.720   1.626   3.662  0.4669  0.0891 -0.2227
 5708W        W22555   2.731   5.244  12.201  0.1634 -0.2417 -0.2402
 5709W        W22556  12.330   0.268  11.846 -0.2008  0.0373  0.0612
 5710W        W22557   6.814   7.829  12.710 -0.0814 -0.0304  0.2350
 5711W        W22558  16.918  15.881  15.839  0.0532  0.1342 -0.3074
 5712W        W22559   0.621   8.682  16.111 -0.1810 -0.2281 -0.4108
 5713W        W22560  15.892   1.110   3.912 -0.0775 -0.3111  0.1378
 5714W        W22561  11.125  18.268   4.000 -0.0120  0.0859 -0.0341
 5715W        W22562  14.159   3.665  13.278 -0.2825  0.0430  0.1715
 5716W        W22563   6.575  17.688   1.749 -0.1018 -0.1458  0.0744
 5717W        W22564  11.276   0.814   2.701 -0.0028 -0.0629  0.1181
 5718W        W22565   7.307   5.319   0.289 -0.1291 -0.4403 -0.0488
 5719W        W22566  17.135  11.478   5.752  0.2076 -0.1534  0.0721
 5720W        W22567   4.542   9.866  11.677  0.0012 -0.3784  0.0178
 5721W        W22568  10.039   2.343   4.734 -0.0618 -0.0090  0.1011
 5722W        W22569   3.851  10.692   4.940 -0.3276  0.1836  0.0548
 5723W        W22570   8.276   1.238  13.017 -0.1644  0.1209  0.2010
 5724W        W22571  13.939  15.318   5.055 -0.0339  0.2798  0.0961
 5725W        W22572  17.156  12.509  12.290 -0.2515 -0.1181  0.0106
 5726W        W22573  13.019   1.143  11.860  0.1402  0.2550  0.2634
 5727W        W22574  17.980   2.044  15.260  0.1925 -0.4415 -0.1038
 5728W        W22575   5.907  13.416   3.326 -0.0059 -0.3235 -0.1510
 5729W        W22576  16.422  11.429  12.076  0.2237 -0.1684  0.1603
 5730W        W22577  15.441  17.346  15.306  0.0717  0.2353 -0.0066
 5731W        W22578  10.685   3.005  11.512  0.0313 -0.0676 -0.0919
 5732W        W22579   8.963   7.613  11.795 -0.0748  0.0319 -0.0425
 5733W        W22580   7.828   8.610  15.228  0.0863  0.1231 -0.3387
 5734W        W22581   3.697  15.606   3.241  0.2605  0.1722 -0.0476
 5735W        W22582  11.414  15.535   4.376  0.2744 -0.0371 -0.3214
 5736W        W22583   8.049   1.499  15.886  0.1784  0.0421  0.0195
 5737W        W22584   2.892   6.308  14.940 -0.0583  0.1300  0.1260
 5738W        W22585   2.686  13.458  12.675 -0.0087 -0.3729 -0.0616
 5739W        W22586  16.128  15.152   3.670  0.0852 -0.0041 -0.0047
 5740W        W22587  17.624   3.048  12.813 -0.1167 -0.0363 -0.2538
 5741W        W22588   7.265  17.056   6.098  0.1356  0.1051  0.1314
 5742W        W22589  16.745   7.017   4.533 -0.0992 -0.1027  0.0901
 5743W        W22590  11.129  17.289  11.456 -0.0854  0.0638  0.0380
 5744W        W22591  17.456   6.929  14.806 -0.4728 -0.0762  0.0908
 5745W        W22592   0.161  15.222  14.950  0.1447 -0.1842  0.2711
 5746W        W22593   1.376   0.381  11.507 -0.1349  0.3752 -0.2772
 5747W        W22594  16.752   0.317   2.895 -0.0682  0.2176  0.0030
 5748W        W22595   1.282  13.095   1.610 -0.4574 -0.1086  0.0773
 5749W        W22596  12.008   8.488  12.286  0.1165 -0.0464 -0.0135
 5750W        W22597  10.335   8.480  15.993 -0.0959  0.0142  0.0974
 5751W        W22598  14.676  13.730   2.258 -0.0480 -0.0792  0.0508
 5752W        W22599  14.279  17.501   4.695 -0.2697  0.0124 -0.2528
 5753W        W22600  17.475  10.451  11.241  0.3032 -0.2293 -0.0107
 5754W        W22601  10.948  12.489  14.251 -0.1953 -0.2347  0.0041
 5755W        W22602   6.268  14.242  12.246 -0.1194 -0.3955 -0.3164
 5756W        W22603  11.378   8.417  12.952  0.1717 -0.0356  0.3911
 5757W        W22604  10.536  11.361   5.077  0.1506 -0.1524 -0.0439
 5758W        W22605   3.721  11.615   1.584 -0.1209 -0.0228  0.1240
 5759W        W22606  14.147  14.668   0.875 -0.4282 -0.0672  0.0951
 5760W        W22607   0.650   4.941  12.055  0.1185 -0.1977  0.1854
 5761W        W22608   0.768  13.704  11.395  0.0980 -0.2351 -0.0996
 5762W        W22609   7.989   3.675   0.009 -0.0293  0.2148 -0.0323
 5763W        W22610   9.790   6.843   3.418 -0.3482  0.2924 -0.0049
 5764W        W22611  15.053  13.620   2.680 -0.4499 -0.0979 -0.0723
 5765W        W22612   7.830   4.433  11.867  0.0756  0.0861 -0.1763
 5766W        W22613   2.422  14.867   3.742 -0.1579 -0.1959  0.0039
 5767W        W22614   2.640   3.409  13.329  0.0721 -0.2425 -0.1267
 5768W        W22615   7.218  17.114  11.722 -0.1613 -0.0634 -0.0487
 5769W        W22616   8.943   6.984   2.786  0.1281 -0.1454 -0.2135
 5770W        W22617  11.748   9.309   0.061  0.3150 -0.1689  0.0206
 5771W        W22618   3.942  13.579   4.833  0.3423 -0.0782  0.0012
 5772W        W22619   1.147   9.523   1.525 -0.0600  0.2106  0.0550
 5773W        W22620   2.741  12.522  12.448 -0.0648 -0.0420  0.0279
 5774W        W22621  17.566  14.996   4.917  0.0839  0.2236  0.0480
 5775W        W22622  10.438  18.094  15.086 -0.1004  0.0249 -0.0022
 5776W        W22623   6.015   1.109   6.049  0.0041  0.1312 -0.2716
 5777W        W22624   9.372   5.949  10.714  0.1389 -0.1448 -0.0790
 5778W        W22625   6.572   6.507   2.682 -0.0769 -0.1700  0.0583
 5779W        W22626   6.008   6.664   3.170  0.4005 -0.1942 -0.1797
 5780W        W22627  11.801  16.685   2.540  0.0457  0.2307  0.0165
 5781W        W22628  14.507  14.751  11.626 -0.0108 -0.2763 -0.1707
 5782W        W22629  13.804  17.453   0.182 -0.1766 -0.2536 -0.0554
 5783W        W22630  11.351   8.235   2.833  0.2118  0.2559 -0.1073
 5784W        W22631   8.635   3.609  12.044  0.1834  0.2000 -0.0319
 5785W        W22632  11.491  15.318   2.897 -0.2132 -0.0381  0.0996
 5786W        W22633  12.980   4.110  13.913  0.1781  0.0912 -0.2443
 5787W        W22634  14.749  15.974   2.181 -0.3095 -0.0457 -0.1720
 5788W        W22635  14.831   9.335  14.970  0.0126  0.2215  0.2118
 5789W        W22636  10.615   1.514  14.987 -0.0652  0.2898 -0.1053
 5790W        W22637  15.492   0.359   3.473 -0.1988 -0.0143 -0.0770
 5791W        W22638   7.464   2.016  12.327 -0.1257 -0.2161  0.2233
 5792W        W22639   6.208   8.222   4.566  0.1610 -0.1811 -0.2353
 5793W        W22640   4.369  17.730   1.913 -0.1139 -0.2957 -0.0164
 5794W        W22641  16.801  10.423   3.897  0.1965  0.1899  0.1051
 5795W        W22642   8.910   2.092  12.628  0.2302  0.1284 -0.1456
 5796W        W22643  16.068  13.158  14.398  0.0455  0.0517 -0.1167
 5797W        W22644  13.641   1.934   2.042 -0.0373  0.0827  0.0472
 5798W        W22645   9.354   0.475   3.913  0.0183 -0.1209 -0.1225
 5799W        W22646  18.024   2.347   5.956 -0.0055  0.2126 -0.0210
 5800W        W22647   4.360   9.592   2.204 -0.0896 -0.2229  0.0273
 5801W        W22648  17.333  13.026  13.081 -0.0344  0.2072  0.0304
 5802W        W22649  12.015  13.827   2.969 -0.0987  0.0827  0.1058
 5803W        W22650   9.294   1.593  11.821 -0.1721 -0.1816  0.1944
 5804W        W22651  16.187   6.618   5.039 -0.1091  0.0511 -0.2432
 5805W        W22652   4.540   9.975   4.564 -0.3263  0.0802 -0.2643
 5806W        W22653  13.404   3.302  14.927 -0.2890 -0.0524  0.0390
 5807W        W22654  11.388   1.235   1.707 -0.2226 -0.1703  0.1066
 5808W        W22655   5.328   8.667  14.949  0.0394 -0.1207 -0.0461
 5809W        W22656  11.530   0.117   1.617  0.0877  0.2744 -0.1267
 5810W        W22657   5.090   8.206   3.802 -0.1657 -0.1207  0.0832
 5811W        W22658   8.912   2.531   3.176  0.0251  0.2173 -0.0019
 5812W        W22659   2.490  13.883   4.101 -0.2289 -0.0074  0.0374
 5813W        W22660   9.151  11.372   3.586  0.1171 -0.0712 -0.1416
 5814W        W22661  12.525   3.732   4.077  0.2278 -0.2043 -0.1851
 5815W        W22662  14.939   6.830  13.760  0.1155  0.1533  0.2645
 5816W        W22663  16.818   6.975   4.025 -0.1446  0.1721 -0.0682
 5817W        W22664   3.806   0.328  15.357 -0.3012 -0.2151  0.0041
 5818W        W22665  16.187   9.825  15.258 -0.3142  0.1138  0.1211
 5819W        W22666  17.432  15.268   5.378  0.0468  0.2229  0.0466
 5820W        W22667   6.624   1.423   3.535 -0.1085  0.2795  0.0311
 5821W        W22668   2.806   1.513   3.137 -0.0949  0.0721 -0.2131
 5822W        W22669   8.170  11.948   1.263  0.2141  0.3146 -0.0900
 5823W        W22670  12.625  15.728  12.331  0.0718 -0.0072  0.2433
 5824W        W22671  10.745   1.347   1.371 -0.1661  0.2415  0.1343
 5825W        W22672  11.969   3.796   3.214 -0.3483 -0.2299  0.3074
 5826W        W22673  15.168   2.722  11.810 -0.0333  0.1124  0.2618
 5827W        W22674  12.275  12.251   1.373 -0.5827  0.0569  0.2359
 5828W        W22675   6.092  12.062  13.684 -0.0842  0.1992 -0.2127
 5829W        W22676  15.622   4.852   3.629 -0.2607  0.0225  0.1035
 5830W        W22677  12.242  10.040  13.956  0.3916  0.1760  0.0397
 5831W        W22678   8.535   8.000  12.450  0.0348 -0.1655 -0.3614
 5832W        W22679   2.851   1.432   5.312  0.2900  0.1433 -0.3567
 5833W        W22680  12.426   9.200  11.928  0.1144  0.1321 -0.1138
 5834W        W22681  16.004   9.587   0.493 -0.2929  0.2018  0.2343
 5835W        W22682   2.501   5.659  13.427  0.0246  0.2559 -0.0700
 5836W        W22683   2.020  16.512  12.983  0.1828 -0.1115 -0.2171
 5837W        W22684   2.651   4.858  11.665 -0.0273  0.0933  0.1432
 5838W        W22685  10.137   2.133  11.982  0.0390  0.0033 -0.0435
 5839W        W22686   4.484   2.328  11.919  0.1684  0.1676 -0.1828
 5840W        W22687  10.571   0.623   0.627  0.2718  0.0893  0.2769
 5841W        W22688  12.199  17.928  15.912 -0.1006 -0.4180 -0.3894
 5842W        W22689  18.068   1.971  13.989 -0.1939  0.3338 -0.2854
 5843W        W22690  12.049  14.752   1.774  0.1109 -0.0868  0.0509
 5844W        W22691  17.124  14.408   0.489  0.3108  0.0538 -0.2642
 5845W        W22692   1.507   2.428   4.647  0.0286  0.0789  0.2087
 5846W        W22693  16.883   0.449   0.499 -0.1869 -0.1776 -0.0094
 5847W        W22694  16.003  17.943  13.691  0.3393 -0.2457 -0.2097
 5848W        W22695  14.043   0.351   3.759 -0.0399 -0.0709 -0.0910
 5849W        W22696   5.539   7.120  11.362 -0.2726 -0.0609 -0.0067
 5850W        W22697   9.432  10.201   0.344  0.0389 -0.2944 -0.1552
 5851W        W22698   2.681  15.563  12.339  0.1287 -0.0269 -0.0160
 5852W        W22699   2.595  12.784  13.988  0.0833  0.1102 -0.3212
 5853W        W22700  15.301   9.051   2.507 -0.2440 -0.0961  0.1739
 5854W        W22701  18.007  10.511   2.095 -0.1042  0.0193 -0.0508
 5855W        W22702  17.664   5.308   0.916 -0.2621  0.0567  0.4582
 5856W        W22703  11.574   0.016   3.793 -0.0046 -0.1145  0.3358
 5857W        W22704   7.489   6.539   3.165 -0.1663 -0.0526  0.1167
 5858W        W22705   5.056  18.172   0.331  0.0419  0.0321  0.2513
 5859W        W22706   0.786   3.822  12.262 -0.1318  0.1299 -0.1366
 5860W        W22707  16.602   7.316  14.954 -0.3291  0.1120  0.0490
 5861W        W22708   3.154   4.638  13.885 -0.0159  0.1992 -0.1649
 5862W        W22709   9.746   9.046   4.529  0.0187 -0.3244  0.4525
 5863W        W22710  11.587   8.476  14.043 -0.1186  0.2951  0.1227
 5864W        W22711  12.801   0.543  15.180  0.2760 -0.2108  0.0680
 5865W        W22712   4.581   3.169   1.062  0.1287  0.1040  0.1556
 5866W        W22713   3.547   1.198  11.499 -0.1112 -0.0410  0.3528
 5867W        W22714   6.410   7.843   4.838  0.2338 -0.1275  0.0579
 5868W        W22715   0.007  13.004  13.462 -0.1731  0.0404  0.2296
 5869W        W22716   1.257   7.392  11.746  0.2116  0.3735 -0.1618
 5870W        W22717   2.033  14.642   6.043 -0.0586  0.3114 -0.2423
 5871W        W22718   0.629   2.408   2.945  0.2606  0.3424 -0.1726
 5872W        W22719  18.146   6.736   2.945 -0.2510  0.0184 -0.0000
 5873W        W22720  15.107  12.168  15.660  0.1540  0.0415 -0.2687
 5874W        W22721   0.002   8.233   1.755 -0.0115  0.2814 -0.2149
 5875W        W22722  10.945  16.446  15.476 -0.1295  0.0813  0.1386
 5876W        W22723   7.830   3.111  12.117 -0.1956 -0.2400 -0.0545
 5877W        W22724  16.044   3.892  10.987  0.3856 -0.1886 -0.2027
 5878W        W22725  10.781   1.307   4.962  0.0329  0.0324  0.0199
 5879W        W22726  14.854  11.131   0.724  0.2979  0.1434  0.3242
 5880W        W22727   7.438  11.094   2.893  0.4176 -0.3032 -0.1139
 5881W        W22728   3.026  14.547  11.575 -0.2132  0.2134 -0.0472
 5882W        W22729  13.314  10.850   1.561 -0.0729 -0.0416 -0.2055
 5883W        W22730  17.158  10.026  11.184  0.0775 -0.1677  0.3485
 5884W        W22731  14.069  11.590   1.023  0.1346  0.1355  0.0344
 5885W        W22732   5.346   2.495   2.452 -0.0128  0.0672  0.2141
 5886W        W22733   9.039  11.669  13.732  0.0132  0.0155 -0.2298
 5887W        W22734   4.191  10.728   5.368 -0.0773 -0.0569 -0.0591
 5888W        W22735   5.644   3.099   4.819  0.0439 -0.2615  0.0718
 5889W        W22736  18.030   6.546   2.522 -0.1349  0.1017 -0.0565
 5890W        W22737   5.491   7.330  13.756  0.4156 -0.1035 -0.1444
 5891W        W22738  16.353   4.400  14.836  0.0259 -0.1765 -0.1666
 5892W        W22739  12.053  11.097   1.493  0.0763 -0.0837 -0.0107
 5893W        W22740  10.693  11.871  11.751 -0.0973 -0.0051 -0.1380
 5894W        W22741   8.168   5.493  15.005 -0.3254 -0.1496  0.0543
 5895W        W22742   4.527   3.320  13.510 -0.0594  0.0307 -0.1869
 5896W        W22743  17.500   1.084  14.460  0.0929 -0.0881  0.2112
 5897W        W22744   4.545   7.802  13.078 -0.0445  0.0083  0.0946
 5898W        W22745  18.094   4.364   2.525  0.2381  0.2639  0.1049
 5899W        W22746   4.398   2.173  12.931  0.0892 -0.0712 -0.2179
 5900W        W22747   6.750   8.124  15.612 -0.3289 -0.0746  0.1427
 5901W        W22748  14.926   8.531  12.880  0.3051  0.2020 -0.2324
 5902W        W22749   9.078   1.803   1.916 -0.2125  0.0877 -0.0742
 5903W        W22750  16.313  10.206   1.330  0.1966 -0.0052 -0.1099
 5904W        W22751   7.640   5.585   2.167 -0.1327 -0.0439 -0.0598
 5905W        W22752  14.921   1.060  14.500  0.2495  0.1512  0.1076
 5906W        W22753  15.453   6.859  15.172 -0.2050 -0.0307  0.0383
 5907W        W22754   3.693  15.306  13.496  0.0420 -0.0863 -0.0258
 5908W        W22755   1.465  17.730  11.481 -0.0936  0.3183 -0.1674
 5909W        W22756  15.407   6.498  15.559 -0.3507 -0.1383 -0.1413
 5910W        W22757  14.649   3.284   4.006 -0.0823 -0.0299  0.2302
 5911W        W22758  15.187   3.214  11.185 -0.2049  0.0305  0.0136
 5912W        W22759   2.930   3.658   4.982  0.1598 -0.0175 -0.0127
 5913W        W22760  15.244  11.495   2.513 -0.0405 -0.1591 -0.0135
 5914W        W22761   5.494   5.687  13.067  0.2462 -0.0710 -0.2563
 5915W        W22762   7.257   7.752   1.078 -0.0575 -0.2233 -0.0137
 5916W        W22763   6.233  15.772  12.043  0.1610  0.0108 -0.0438
 5917W        W22764  13.251   9.565  12.572 -0.0655 -0.0178 -0.0431
 5918W        W22765   0.157  10.436   5.991  0.0890  0.2517  0.0849
 5919W        W22766  17.526   7.863   2.766 -0.0173 -0.4115 -0.1193
 5920W        W22767   6.712   8.899   2.641  0.0393  0.0471  0.1113
 5921W        W22768   6.503   9.952   0.949  0.1484 -0.3722 -0.4476
 5922W        W22769   6.291   5.069  14.086  0.1932  0.2646 -0.2695
 5923W        W22770   6.169  14.622  15.147  0.2026  0.1559 -0.0044
 5924W        W22771  12.766  11.279  12.080 -0.0436 -0.1301  0.0738
 5925W        W22772   4.785   5.467   0.399  0.1995  0.0983 -0.1875
 5926W        W22773   0.290  17.114  12.690 -0.3255  0.0549  0.0583
 5927W        W22774   4.312   8.635  13.376 -0.1055 -0.1778 -0.0258
 5928W        W22775   9.855  16.214   0.870 -0.1606 -0.0864 -0.3151
 5929W        W22776   8.961  16.026   5.686  0.1701  0.1346  0.1132
 5930W        W22777   5.739  10.762  14.297  0.0498 -0.3700  0.1219
 5931W        W22778   7.548   1.514   3.173 -0.3679 -0.0560 -0.2683
 5932W        W22779   7.785   0.553   4.323 -0.0525 -0.0675 -0.1370
 5933W        W22780  14.524   1.023   1.878 -0.1174 -0.0944 -0.0450
 5934W        W22781  16.618   3.867   5.250 -0.1184 -0.0561  0.1316
 5935W        W22782   3.260   2.221   1.025  0.0116 -0.0461  0.0290
 5936W        W22783   6.377   3.134  11.373  0.3525  0.0438  0.2479
 5937W        W22784   8.996  11.014  16.104  0.1001  0.1852  0.2096
 5938W        W22785  13.627  16.299   4.747 -0.0754 -0.1494 -0.1666
 5939W        W22786   4.015  14.206  10.924  0.2344  0.0684 -0.0763
 5940W        W22787   6.917   9.674   1.051  0.3295 -0.0652 -0.1505
 5941W        W22788   7.232  16.868   2.784  0.0538 -0.2405 -0.2011
 5942W        W22789  18.117  10.193  14.026 -0.2603  0.1101  0.1388
 5943W        W22790   1.096  14.934   2.127  0.1675  0.0150 -0.0552
 5944W        W22791  10.511   1.290   1.873 -0.3170 -0.0820 -0.1880
 5945W        W22792   0.114  11.759   5.708  0.0003  0.2528 -0.0156
 5946W        W22793   0.467  12.373   3.105  0.0889  0.3515  0.1278
 5947W        W22794   0.924  15.783  14.128 -0.0558 -0.1583  0.3136
 5948W        W22795  13.098  13.484   2.466  0.1624 -0.0914 -0.0959
 5949W        W22796   2.703  12.870   5.620  0.3749  0.1124 -0.1997
 5950W        W22797   7.248  18.080  15.141 -0.1162  0.0723 -0.1868
 5951W        W22798   0.845  14.129   4.539  0.0633 -0.1234 -0.3186
 5952W        W22799   9.736  10.260   2.208 -0.1110  0.0434 -0.0409
 5953W        W22800  10.449  10.939  14.205  0.2442 -0.0666 -0.0183
 5954W        W22801  10.226  10.949   3.864 -0.2967 -0.2551  0.2137
 5955W        W22802  11.812   9.596   2.684  0.1494 -0.1040  0.0632
 5956W        W22803  11.328   6.651   0.013 -0.0546  0.2018 -0.3347
 5957W        W22804   9.263   6.975   3.623 -0.1058 -0.0331  0.0664
 5958W        W22805  13.735  10.940   1.115 -0.1928 -0.2591  0.0829
 5959W        W22806   1.326   5.427   1.572 -0.0646  0.0457  0.1238
 5960W        W22807   8.789  11.452   5.453 -0.1291 -0.0917 -0.0887
 5961W        W22808  18.114   5.294   0.610 -0.3732  0.3381 -0.2085
 5962W        W22809   4.275   3.605   1.682  0.2503 -0.0302  0.0064
 5963W        W22810   3.456  11.008   2.318  0.1544  0.1235  0.1957
 5964W        W22811  12.795  14.011  13.613  0.1332  0.0083 -0.2287
 5965W        W22812   0.196  17.220  13.228 -0.1377  0.0936 -0.2230
 5966W        W22813  10.793  10.804   2.875 -0.0072 -0.1839  0.1213
 5967W        W22814  15.841   9.810   4.372  0.3607  0.0692  0.1881
 5968W        W22815   7.829   4.690   4.768  0.1456 -0.1410  0.1671
 5969W        W22816   5.949   2.487  15.676 -0.0467  0.1108 -0.0507
 5970W        W22817   4.997   2.363  15.910 -0.1736  0.2169  0.1597
 5971W        W22818   1.131   8.219  11.362 -0.0678 -0.0096  0.1190
 5972W        W22819   3.382   4.233   0.725  0.0907 -0.4561  0.0447
 5973W        W22820   5.807   5.313  11.800  0.0140  0.0650  0.2397
 5974W        W22821   4.575   6.087  12.190 -0.3048 -0.1192  0.0630
 5975W        W22822  17.005   3.147  12.166 -0.1349 -0.1941 -0.2948
 5976W        W22823   2.916   9.800  13.153  0.0753  0.1506  0.0228
 5977W        W22824   2.784   8.712   0.944 -0.2396 -0.0302  0.2670
 5978W        W22825   0.759   7.364  10.233 -0.0915  0.0018  0.0929
 5979W        W22826  14.381   8.880   3.763 -0.1133  0.1405 -0.1864
 5980W        W22827  17.318  16.970  11.091 -0.1368  0.0620 -0.0266
 5981W        W22828   8.719  15.970  11.846  0.0457  0.2077  0.0769
 5982W        W22829  10.571  13.978  11.649  0.1684  0.1461 -0.1858
 5983W        W22830  15.815  15.980   2.072 -0.2793 -0.0076  0.0551
 5984W        W22831  13.952   6.059  15.656 -0.0038 -0.2478  0.0457
 5985W        W22832   9.444   8.694   4.828 -0.1773  0.0852  0.3903
 5986W        W22833   1.809   9.860   2.009  0.1963  0.0186  0.0546
 5987W        W22834   7.597   3.790   1.180  0.1528  0.1691  0.0713
 5988W        W22835   9.290   6.841   3.158 -0.0934  0.2081 -0.4291
 5989W        W22836   1.029  14.026  13.612 -0.0494 -0.1502  0.2094
 5990W        W22837  10.609   8.642  11.201  0.0550 -0.0905  0.2270
 5991W        W22838   3.846  17.348   3.307  0.1729  0.0708  0.0369
 5992W        W22839  13.453   2.887  12.376  0.2997  0.1608 -0.2287
 5993W        W22840  13.111   0.979  15.315 -0.2316 -0.1355 -0.0764
 5994W        W22841  15.179  13.087  14.893  0.0862 -0.0772 -0.2586
 5995W        W22842  13.406   4.158   1.345  0.3985  0.1717 -0.2829
 5996W        W22843  15.445  15.580  11.883  0.1267 -0.0402  0.0874
 5997W        W22844  10.139  13.657  14.879  0.1667  0.2135 -0.1549
 5998W        W22845   0.963  15.309  11.441 -0.2832  0.3397 -0.3074
 5999W        W22846   7.431   1.534  15.184  0.0234  0.2141 -0.1884
 6000W        W22847  14.612  18.287   1.846  0.2080 -0.0863 -0.1695
 6001W        W22848   2.416   3.476  12.800  0.0118  0.0326  0.0456
 6002W        W22849  12.883   9.168  15.400  0.0162  0.0227 -0.0932
 6003W        W22850  11.464   7.762   5.052  0.0011 -0.2558  0.1033
 6004W        W22851   4.261  11.609  11.681 -0.0837 -0.1246 -0.0268
 6005W        W22852  17.828   2.192  12.626  0.1171  0.3543  0.4008
 6006W        W22853  14.515  14.871   3.919  0.0331 -0.0780 -0.2014
 6007W        W22854   2.164   5.076   2.255 -0.2437  0.0037 -0.2454
 6008W        W22855   4.844  16.106   6.393 -0.1793 -0.1074 -0.0610
 6009W        W22856   9.464  17.076  12.822 -0.1222  0.4781 -0.1558
 6010W        W22857   0.340  11.788   3.007 -0.1607  0.0249 -0.0209
 6011W        W22858  15.773   2.216  15.345 -0.1379  0.1363 -0.1593
 6012W        W22859   2.281   3.881   5.522  0.0066 -0.1670 -0.1776
 6013W        W22860  17.234  16.844   4.632 -0.0829 -0.1225  0.2387
 6014W        W22861   4.737   4.472  12.734 -0.1570  0.0222 -0.0116
 6015W        W22862  16.464   5.070  12.793 -0.0039  0.0281  0.4072
 6016W        W22863   3.222   9.036  14.681  0.0229  0.1617  0.0543
 6017W        W22864   8.818   1.319  11.727  0.1008 -0.2200 -0.2067
 6018W        W22865  16.253   2.955  14.492  0.2198  0.0367 -0.0495
 6019W        W22866  11.688   5.804  10.509  0.1741  0.1604  0.0407
 6020W        W22867   7.663  17.339  14.815  0.0206  0.1104 -0.1081
 6021W        W22868  15.747   0.630   1.413 -0.1268  0.2188 -0.0793
 6022W        W22869   3.224   0.118   3.705  0.0680 -0.0668 -0.0826
 6023W        W22870   0.504  11.492   2.038 -0.1088 -0.2287  0.0360
 6024W        W22871   1.684   8.111   4.321 -0.2204  0.0462 -0.1605
 6025W        W22872  10.308   9.572  15.360  0.0587  0.1534 -0.0123
 6026W        W22873  10.791  15.060  14.171 -0.2512  0.0920 -0.2343
 6027W        W22874   8.763  12.949  15.969  0.0333 -0.0527 -0.2744
 6028W        W22875  18.179  10.580  11.551  0.1351  0.1586 -0.0028
 6029W        W22876   7.451  12.021   3.952 -0.0151 -0.2456  0.0795
 6030W        W22877   0.328  13.918  13.597  0.1428 -0.0334  0.0959
 6031W        W22878   9.517   3.148   3.743  0.0779 -0.1257  0.2666
 6032W        W22879  17.582  12.961   1.632  0.0605 -0.1472  0.4125
 6033W        W22880  11.316   0.013   2.110 -0.0118 -0.1465  0.0067
 6034W        W22881  12.335  11.934  11.189 -0.0005 -0.2050 -0.0184
 6035W        W22882  13.132  11.957   5.788  0.0854 -0.2021 -0.2657
 6036W        W22883   2.827   7.277  15.943 -0.0196  0.1848  0.2611
 6037W        W22884  13.985  18.164   4.382  0.2554  0.0491 -0.1813
 6038W        W22885   7.690   2.023   2.981 -0.0147  0.2355 -0.0545
 6039W        W22886  15.685  16.140  14.077 -0.0064 -0.3736  0.0526
 6040W        W22887   5.283  14.508   3.048 -0.0974 -0.0222  0.1042
 6041W        W22888  13.221  17.218   5.487 -0.0579  0.1193 -0.0605
 6042W        W22889  13.369   9.117  15.295 -0.0594  0.0340  0.1620
 6043W        W22890   7.801  14.532   0.953  0.2761  0.2020 -0.2560
 6044W        W22891  15.499  13.656  11.482  0.0540  0.0811  0.0653
 6045W        W22892   1.295   0.970   0.916  0.1065 -0.2230  0.2686
 6046W        W22893   3.262   1.142   6.245 -0.1593  0.3594 -0.2122
 6047W        W22894  10.264  14.098   0.068 -0.3152 -0.1762 -0.0310
 6048W        W22895  13.267   2.209   0.419 -0.2892  0.1862  0.2008
 6049W        W22896   0.594   9.150   0.826 -0.1926  0.1589  0.0997
 6050W        W22897   8.550  15.065   2.366 -0.1472 -0.2560  0.0474
 6051W        W22898  10.799  15.245   5.030  0.1623 -0.1421  0.1599
 6052W        W22899  15.641  12.032  15.720 -0.2027  0.1072  0.2712
 6053W        W22900  14.220  15.017   4.716  0.2751 -0.1348  0.0298
 6054W        W22901  17.766  15.519   2.126  0.0545 -0.0627 -0.2668
 6055W        W22902  17.105   7.274   4.928  0.0217  0.3106  0.1658
 6056W        W22903   1.632   5.870   1.602  0.1480 -0.1241 -0.0833
 6057W        W22904   4.925  10.770   3.996  0.0995 -0.1986 -0.2534
 6058W        W22905  18.002   7.022  14.605 -0.0891 -0.1820 -0.2273
 6059W        W22906   2.174  18.029   1.195 -0.0164 -0.0385  0.0629
 6060W        W22907   3.542   6.813   3.267 -0.0023 -0.0532  0.1107
 6061W        W22908  12.079  15.593   2.021  0.0090 -0.1066 -0.0874
 6062W        W22909  16.520   1.230   0.316  0.3172 -0.3341 -0.2152
 6063W        W22910   1.570  14.307   2.956  0.0797  0.1072 -0.2669
 6064W        W22911   5.313  10.053   3.864 -0.0059 -0.0760 -0.1234
 6065W        W22912   0.498   3.200  13.019  0.1109 -0.1845 -0.1881
 6066W        W22913   4.526   9.839   5.579  0.0528 -0.2194  0.1304
 6067W        W22914   7.802  18.132   2.146  0.1905  0.0913 -0.0261
 6068W        W22915   5.171  11.709  15.827  0.1777  0.0380 -0.0351
 6069W        W22916  17.305  16.244   5.523  0.1733 -0.2591  0.4485
 6070W        W22917   8.525  17.076   0.401  0.1529  0.0036  0.0217
 6071W        W22918  10.334   1.039   4.724  0.0326 -0.2078 -0.1139
 6072W        W22919  17.194   8.017  14.761 -0.1914 -0.2109 -0.0776
 6073W        W22920  16.975   2.757   5.510 -0.1139  0.2958  0.0666
 6074W        W22921  12.949   2.152  11.810 -0.0720  0.0496 -0.2090
 6075W        W22922   1.067   2.755  14.463 -0.0966 -0.6612 -0.3036
 6076W        W22923  14.532  13.370   1.906 -0.0484  0.0553 -0.1818
 6077W        W22924   5.962  10.535   2.973 -0.0148 -0.1771 -0.1284
 6078W        W22925  11.327  15.404  12.994  0.0705  0.0382 -0.1747
 6079W        W22926   8.175   4.147  13.882  0.1418 -0.2527  0.0381
 6080W        W22927   1.678  12.382   2.234  0.1263 -0.2207 -0.0638
 6081W        W22928  13.129   6.721   0.685  0.1514  0.0494 -0.3145
 6082W        W22929  12.766  15.604   1.006 -0.0174 -0.1851  0.0839
 6083W        W22930  13.738  15.706  15.969 -0.0570  0.3326  0.2409
 6084W        W22931   6.516  16.065  11.676 -0.0525  0.2412 -0.0294
 6085W        W22932   9.057  12.643   0.673  0.0555 -0.0104  0.1592
 6086W        W22933  14.594   2.572   3.368  0.2067 -0.0706 -0.1743
 6087W        W22934  10.262   1.384   1.484  0.0318 -0.0969 -0.1155
 6088W        W22935   8.949   1.723  12.135 -0.2069  0.3672  0.3018
 6089W        W22936   9.465   8.010  11.756  0.1946 -0.0358 -0.1536
 6090W        W22937   9.761  11.022   3.678  0.1100  0.3031  0.1166
 6091W        W22938  16.629  11.602   5.831  0.0625 -0.1585  0.3630
 6092W        W22939  14.506  13.139   0.418  0.2945 -0.1069  0.2323
 6093W        W22940  11.506   3.673   0.754  0.1964 -0.0613 -0.0237
 6094W        W22941   4.495   5.817  12.648 -0.3150 -0.3797  0.1446
 6095W        W22942  13.549   8.419  15.740  0.4158  0.0254 -0.0469
 6096W        W22943  13.531   8.539   1.972 -0.4038  0.2123  0.1771
 6097W        W22944   8.492  10.887   3.108  0.1462  0.0754  0.0574
 6098W        W22945   4.462  16.665   4.938  0.1509  0.0563  0.1687
 6099W        W22946   8.830  13.035   0.807 -0.0811  0.0581 -0.0296
 6100W        W22947  17.078  18.062  12.270  0.0568 -0.1954  0.1647
 6101W        W22948  17.631   9.635  15.535  0.1681 -0.2085  0.3414
 6102W        W22949  12.004   2.869  12.584 -0.0370  0.1575  0.0936
 6103W        W22950  16.190  11.806   5.998  0.0515 -0.0661 -0.1303
 6104W        W22951  17.269  17.610  15.756  0.1082  0.0112  0.1196
 6105W        W22952   8.074   3.577   1.456 -0.1731  0.1653  0.1886
 6106W        W22953   8.140  16.608  14.919  0.0087 -0.1254 -0.0506
 6107W        W22954  15.255   7.483  15.295  0.0320 -0.0232 -0.0940
 6108W        W22955   5.931  10.341   1.580  0.0403 -0.0068 -0.3124
 6109W        W22956   4.854  15.901   3.848 -0.0631 -0.0157 -0.0238
 6110W        W22957   1.535   4.503   1.660 -0.2630 -0.4081  0.1107
 6111W        W22958  11.501  12.043   4.832 -0.3685  0.0408  0.0915
 6112W        W22959   1.051   8.306  12.833  0.1752 -0.1169  0.1865
 6113W        W22960   0.310  15.695   0.324 -0.3605 -0.0265  0.0659
 6114W        W22961  11.241   3.557   2.797  0.2608  0.0170 -0.1013
 6115W        W22962  11.325   9.435  14.084 -0.4280  0.1522 -0.1058
 6116W        W22963   2.948   6.733  11.590 -0.2076  0.2706 -0.1447
 6117W        W22964   1.130   3.312   5.005  0.3204 -0.1006 -0.3271
 6118W        W22965  16.924  10.848   0.789  0.3268  0.0626  0.0043
 6119W        W22966   5.425  17.446  12.356  0.0931 -0.0401 -0.1510
 6120W        W22967   3.950  12.670   2.620 -0.2247  0.2399  0.1635
 6121W        W22968   9.078  14.951  16.085  0.0748  0.0287 -0.0192
 6122W        W22969   3.561   2.673  15.995  0.1380 -0.0396  0.3040
 6123W        W22970   7.814  16.571   0.490  0.0891  0.0538 -0.0702
 6124W        W22971  12.415  17.575   5.286 -0.0213 -0.0664 -0.0125
 6125W        W22972  10.928   2.492   2.085 -0.0091 -0.0380  0.2846
 6126W        W22973   9.620   1.241   1.428 -0.0508 -0.1119 -0.3706
 6127W        W22974  17.574   3.017   4.845 -0.4676 -0.2795 -0.2936
 6128W        W22975  17.491   1.396   4.534 -0.0192 -0.0635  0.3415
 6129W        W22976   1.013   9.100  12.339  0.0268  0.0714 -0.2348
 6130W        W22977  12.609   4.862   0.505 -0.4289  0.1410  0.4125
 6131W        W22978  16.970   2.898   4.279  0.0785 -0.2231 -0.0843
 6132W        W22979   2.505   7.288  14.187  0.4013  0.2993  0.0705
 6133W        W22980  13.219   5.233   3.606  0.3500  0.2211  0.0189
 6134W        W22981   6.203  16.683   2.842 -0.2721  0.1050  0.0508
 6135W        W22982   1.879  10.169  12.234  0.3148 -0.0720 -0.0253
 6136W        W22983  17.103  18.330  11.782  0.2738 -0.1934  0.1719
 6137W        W22984   0.674   2.905   1.622 -0.0427  0.2995  0.0506
 6138W        W22985  10.276  14.134  15.113  0.1305 -0.0551 -0.2429
 6139W        W22986   1.845  15.783  11.344  0.0167  0.2786  0.2739
 6140W        W22987  16.411   7.282  11.238  0.2457  0.0332  0.2796
 6141W        W22988   7.244  12.193  16.118  0.2168  0.0286  0.1924
 6142W        W22989  16.931   7.339   0.954  0.2271 -0.1744 -0.0108
 6143W        W22990   1.382  10.398   5.045 -0.2640  0.3873 -0.1321
 6144W        W22991   8.670   6.681   1.470 -0.3087  0.0169 -0.2469
 6145W        W22992   2.027   6.249  13.726 -0.1037  0.0955 -0.1046
 6146W        W22993  15.243   4.520   1.241  0.0306  0.0104 -0.1339
 6147W        W22994   0.815  15.898   2.774 -0.3564  0.0530 -0.0474
 6148W        W22995  15.615  16.258   4.390  0.0184  0.0777 -0.2120
 6149W        W22996  17.841  15.800   6.059 -0.1007  0.1056  0.1322
 6150W        W22997   3.509   1.799  15.272  0.0904 -0.1884  0.0361
 6151W        W22998   7.844  16.766  13.008 -0.0403 -0.2235 -0.0283
 6152W        W22999   8.044  13.482   4.602 -0.0206  0.3498  0.0114
 6153W        W23000   1.196  17.800   3.767 -0.0318 -0.1926  0.1042
 6154W        W23001  12.673   4.761   4.689  0.1948 -0.0835  0.2051
 6155W        W23002   7.012  12.503  15.829  0.0692  0.2213  0.1917
 6156W        W23003  17.164  14.998  14.986 -0.1249  0.5167  0.3021
 6157W        W23004  13.910  13.336  12.570  0.2142 -0.1280 -0.0201
 6158W        W23005  13.269   3.881   2.467 -0.1189  0.0262 -0.3120
 6159W        W23006   2.893   2.709   2.686 -0.2019 -0.0978 -0.1257
 6160W        W23007   0.287   6.366   1.300 -0.2942 -0.1345 -0.0478
 6161W        W23008   6.801  12.900  15.511  0.0050  0.1943 -0.1664
 6162W        W23009  12.992   6.372  15.998  0.1443 -0.1621  0.2035
 6163W        W23010   9.355  16.068   5.022 -0.0446  0.0493 -0.1822
 6164W        W23011   6.371   0.269   5.288 -0.1232  0.0856  0.0390
 6165W        W23012  16.619   5.787   4.621  0.0506  0.1108  0.0751
 6166W        W23013   6.597  12.772   0.405  0.1855 -0.1365  0.0536
 6167W        W23014   8.009  12.313  14.564  0.1745 -0.0410 -0.1325
 6168W        W23015   0.768  16.616  13.793 -0.1831 -0.0301 -0.0253
 6169W        W23016  13.816  13.938   3.283 -0.0460 -0.1651 -0.0110
 6170W        W23017  13.407   9.503   0.458  0.0080  0.2169 -0.2242
 6171W        W23018  13.574   5.131   2.602  0.1549  0.1469 -0.2761
 6172W        W23019   6.467  10.228   1.706  0.0273  0.1814 -0.1727
 6173W        W23020   9.983  10.011   2.626 -0.0583  0.0196 -0.1037
 6174W        W23021  17.749   0.264   0.400 -0.1294 -0.2787  0.1724
 6175W        W23022  17.659   6.791   2.303 -0.0329  0.0605 -0.0208
 6176W        W23023   5.593   5.704  15.526 -0.2520  0.0318 -0.0235
 6177W        W23024  10.849  13.350   2.893  0.1673  0.2036 -0.1624
 6178W        W23025   1.661  10.145   1.022  0.3679  0.0980 -0.2053
 6179W        W23026   3.725  10.054  14.549 -0.0604 -0.1742 -0.0845
 6180W        W23027  17.302  15.846  14.403  0.1167  0.0034 -0.0241
 6181W        W23028  17.177  14.250  13.202  0.0370  0.0509  0.2636
 6182W        W23029   5.434   3.974   1.913 -0.2500 -0.0092 -0.4601
 6183W        W23030  13.655  12.333  16.047 -0.1581 -0.0830  0.2272
 6184W        W23031  15.915   0.953   1.959 -0.2345  0.2164 -0.1076
 6185W        W23032  12.685  11.580   0.061  0.2530  0.1609  0.2866
 6186W        W23033  10.021   4.350  15.831 -0.1268  0.1731  0.1908
 6187W        W23034   3.773   0.496   0.519  0.0953 -0.1414 -0.1384
 6188W        W23035  16.183   5.550  12.767  0.2606  0.0764  0.0389
 6189W        W23036   3.184  15.222   0.755 -0.2836 -0.0959  0.1121
 6190W        W23037   9.797   0.829   2.987  0.0725 -0.3882 -0.3139
 6191W        W23038  17.322  17.333   1.786  0.0594 -0.1169 -0.0573
 6192W        W23039   5.639  14.152  14.666  0.2794  0.0411 -0.0861
 6193W        W23040   5.531   3.618   3.002 -0.1847 -0.0596 -0.1089
 6194W        W23041  14.456  15.157  15.681 -0.4234 -0.2048  0.3803
 6195W        W23042   2.826  13.714  14.671 -0.2369 -0.1317 -0.0371
 6196W        W23043  17.840  16.688   2.845 -0.1240 -0.0754 -0.0017
 6197W        W23044   2.852   9.079  15.125  0.1233  0.1706 -0.0247
 6198W        W23045  10.169  13.244   1.333  0.1194 -0.0942  0.1282
 6199W        W23046  10.369   3.397   4.641  0.2283 -0.2109 -0.1386
 6200W        W23047   7.375   0.834  13.148  0.1889 -0.1385  0.0443
 6201W        W23048   4.603  11.764   1.381  0.1035 -0.3815  0.1293
 6202W        W23049   9.671   1.387   0.282 -0.0137  0.0120 -0.4638
 6203W        W23050  10.258   5.701   1.943  0.0831 -0.2817  0.0531
 6204W        W23051  16.154  11.792   2.230  0.0962 -0.1342 -0.0030
 6205W        W23052   7.026   5.555  14.591 -0.2584  0.1732  0.3681
 6206W        W23053  13.952  15.736  14.366 -0.1969 -0.2315  0.1305
 6207W        W23054  10.411  11.175   5.509 -0.1497  0.1400  0.0080
 6208W        W23055  13.432   8.974  10.881 -0.1239 -0.0802 -0.1032
 6209W        W23056  16.481   5.701   1.080  0.2164 -0.1591 -0.0893
 6210W        W23057  17.103   0.206   5.025 -0.0721  0.0227 -0.0209
 6211W        W23058  16.210   9.382  14.804  0.0783 -0.2893 -0.1068
 6212W        W23059   7.469   4.007  15.375 -0.0333  0.2949 -0.1139
 6213W        W23060   7.679  15.395   2.732  0.2423 -0.1037  0.2506
 6214W        W23061   9.485  12.819  14.506 -0.1880 -0.0349  0.4423
 6215W        W23062   0.120  16.176   3.892 -0.0627  0.0946  0.1575
 6216W        W23063  16.577  12.027  15.289  0.0138  0.1624  0.0990
 6217W        W23064   7.056  16.866  14.059 -0.3424 -0.0147  0.0912
 6218W        W23065  10.102  10.486  14.267 -0.0757  0.2269  0.3232
 6219W        W23066  12.236   1.275  13.213 -0.4418 -0.5139  0.2391
 6220W        W23067   2.791  14.737   5.058  0.1008  0.0199  0.0213
 6221W        W23068   5.346  15.799   5.358 -0.1430 -0.0643  0.0829
 6222W        W23069  10.207  16.505   4.664  0.0708 -0.0993 -0.1057
 6223W        W23070  11.420  17.007   1.215  0.1650 -0.2561 -0.0534
 6224W        W23071   7.605  18.021  13.606  0.1144  0.0882 -0.0068
 6225W        W23072   2.339  15.542   0.286  0.0714 -0.0230  0.0615
 6226W        W23073  17.668  12.400  12.952 -0.2261 -0.0690  0.1247
 6227W        W23074  13.532  15.281  12.255 -0.1313 -0.1298  0.2313
 6228W        W23075  14.301  17.867   5.839 -0.1449 -0.1470  0.0094
 6229W        W23076   0.420   7.478   0.461  0.0397  0.1826  0.1749
 6230W        W23077   3.570  17.759  15.126  0.0552 -0.2372 -0.2101
 6231W        W23078   2.519   3.740  15.863 -0.0703  0.0232  0.0314
 6232W        W23079  12.554   5.087   4.250  0.0374  0.2137  0.0205
 6233W        W23080   0.675  11.566   1.529  0.1594  0.1837 -0.0980
 6234W        W23081  11.051   0.957   0.444 -0.0444  0.0928  0.3211
 6235W        W23082  15.405   9.536   4.317 -0.0944 -0.1326 -0.2392
 6236W        W23083   9.500  16.872   4.120  0.2177  0.0649  0.0009
 6237W        W23084   2.286  11.202  15.621 -0.1078 -0.0683  0.2033
 6238W        W23085  15.525  12.812   0.301  0.1510  0.0977 -0.2172
 6239W        W23086  12.945  11.661   2.905  0.2865  0.0419  0.0785
 6240W        W23087   5.404   0.895  12.877 -0.0728  0.1025  0.2235
 6241W        W23088   1.314   4.520   2.491 -0.1664  0.2875  0.3656
 6242W        W23089   3.289   9.848   1.493  0.2223 -0.1451  0.1185
 6243W        W23090   0.405  14.884  16.123 -0.0006  0.2613  0.1525
 6244W        W23091   6.221  14.713   0.042 -0.2405  0.2972  0.3796
 6245W        W23092   3.611   4.017   1.124 -0.0102 -0.1875  0.0042
 6246W        W23093  10.736   9.831   0.715  0.0331  0.3655 -0.0618
 6247W        W23094   5.687  18.105  13.560 -0.2348  0.3583  0.0301
 6248W        W23095  16.965   9.584  14.927  0.1877  0.0415  0.1055
 6249W        W23096  17.178   0.741  11.307 -0.2716  0.1465  0.0231
 6250W        W23097   6.246  10.338  12.379  0.1208  0.3526  0.0986
 6251W        W23098  16.377  15.672   4.452  0.1032  0.4239 -0.3281
 6252W        W23099   0.156   3.481   2.702  0.1622 -0.0691 -0.3982
 6253W        W23100  15.999   5.717  11.476 -0.0367  0.1359  0.0262
 6254W        W23101   3.807  10.770   0.866 -0.0827 -0.0072 -0.0435
 6255W        W23102   9.820  13.908  13.802  0.1674  0.1772  0.0787
 6256W        W23103   6.680   1.210  14.695 -0.0604  0.0920 -0.3406
 6257W        W23104  11.167  15.835  13.722 -0.2155 -0.0450 -0.1834
 6258W        W23105   2.806   2.240   3.781 -0.1787 -0.1674  0.3012
 6259W        W23106   7.831  12.141  14.111 -0.0053  0.0126  0.0146
 6260W        W23107  15.183  11.359   5.021  0.0174  0.0345 -0.1479
 6261W        W23108   9.937   6.185  13.811 -0.0656 -0.1592 -0.0745
 6262W        W23109   6.635   9.946   3.229 -0.0333  0.0366  0.0597
 6263W        W23110   4.704   9.154  16.133  0.0513  0.3263 -0.0712
 6264W        W23111   9.083  12.037   0.838 -0.0020 -0.1094 -0.1063
 6265W        W23112   6.926  10.142   2.830  0.1345  0.0252  0.3745
 6266W        W23113   1.027   5.462   4.307 -0.1578  0.2987 -0.2747
 6267W        W23114   5.525  17.694  14.874  0.2401  0.0257 -0.1784
 6268W        W23115   5.998   1.319  11.725 -0.1699  0.2209  0.0835
 6269W        W23116   4.463  11.544   3.943  0.0270 -0.2211 -0.1197
 6270W        W23117   8.332  12.005  11.753  0.2749  0.1545  0.1875
 6271W        W23118   0.644   8.214   0.881  0.1965 -0.2491  0.1462
 6272W        W23119   3.664   7.951  14.061 -0.0010 -0.0371 -0.3196
 6273W        W23120   7.731   2.347  12.080  0.0012  0.1604  0.3776
 6274W        W23121  15.563   8.113   0.540 -0.0717 -0.3094  0.1732
 6275W        W23122  13.155   2.321  11.039  0.1362 -0.0346 -0.2276
 6276W        W23123  12.037   9.686  11.019  0.0141 -0.2321  0.0154
 6277W        W23124   8.908  12.503  12.296 -0.2747  0.4186 -0.0978
 6278W        W23125  10.824   8.254   5.614 -0.0877  0.0042  0.1399
 6279W        W23126  11.749   1.344  13.458  0.1008  0.0800 -0.0955
 6280W        W23127   8.605  13.705   2.812  0.0441 -0.0355  0.0136
 6281W        W23128  11.029   7.732  11.155 -0.0737  0.0117  0.0694
 6282W        W23129   6.731  13.118  14.215  0.0363 -0.4052 -0.2987
 6283W        W23130   1.399   7.315   5.454 -0.2137  0.1315 -0.0976
 6284W        W23131   2.814  14.387  12.767 -0.0532  0.1811 -0.0042
 6285W        W23132  10.961   8.403  12.588  0.0164  0.0033  0.1329
 6286W        W23133   6.440   6.533  12.021  0.1283 -0.2294 -0.0960
 6287W        W23134   4.658   2.844  11.917 -0.1205  0.3662  0.0288
 6288W        W23135  14.170  11.245  15.127  0.0915 -0.1337 -0.1665
 6289W        W23136   0.818   2.677  14.970 -0.1235 -0.1389 -0.0232
 6290W        W23137   8.298   8.217  13.244 -0.0495 -0.3057  0.0566
 6291W        W23138   1.527   5.891  13.548  0.2596 -0.0469  0.2374
 6292W        W23139   7.176  11.031  10.486  0.1194  0.0882  0.1825
 6293W        W23140   1.856  14.509  11.925  0.0247  0.0543  0.2308
 6294W        W23141  10.573   4.632  14.827  0.1572 -0.0469 -0.1598
 6295W        W23142  17.603   9.883   4.860 -0.2555 -0.0029 -0.0629
 6296W        W23143  16.949   4.499  11.579  0.1710 -0.1514  0.2758
 6297W        W23144   1.752  13.368  12.525 -0.0255 -0.0946  0.2721
 6298W        W23145  11.664   8.849  12.899  0.1340  0.1759  0.0033
 6299W        W23146  12.858   7.995   2.959  0.3004 -0.0954  0.1733
 6300W        W23147   1.745  11.404   0.184  0.1377  0.0503  0.0829
 6301W        W23148  16.416  11.185  12.913  0.2927 -0.0113  0.0930
 6302W        W23149   3.477  12.787  13.466 -0.0731 -0.1393 -0.1688
 6303W        W23150   9.779  12.334  15.278  0.0288 -0.0231 -0.1272
 6304W        W23151  15.467  12.036   4.555  0.2262 -0.1068 -0.0661
 6305W        W23152   9.576   6.944  11.436 -0.0579  0.1841 -0.1471
 6306W        W23153  13.046  14.392   5.465  0.1196  0.0469  0.0864
 6307W        W23154   7.638  13.116  14.672  0.1606  0.0334 -0.1587
 6308W        W23155   6.008   9.553  12.292 -0.1145  0.1913 -0.0785
 6309W        W23156   5.192  15.765  15.540 -0.1083  0.4654  0.1759
 6310W        W23157   1.117  13.337   0.210 -0.2231 -0.0762  0.1266
 6311W        W23158   0.964  10.208   2.241 -0.0381 -0.2336  0.0362
 6312W        W23159  11.872  10.400  12.498 -0.0692  0.2513  0.1063
 6313W        W23160  14.489  10.108  14.489 -0.3102 -0.1110  0.1750
 6314W        W23161   2.434  11.333   1.183 -0.1408  0.0037  0.2009
 6315W        W23162  16.895  16.821  13.250  0.0621 -0.1476 -0.1639
 6316W        W23163   4.059   9.873   3.699  0.2254  0.1269 -0.0611
 6317W        W23164   0.124  10.893  13.787 -0.2815  0.0566 -0.1971
 6318W        W23165  12.467   3.421  15.425 -0.0427  0.0422  0.0935
 6319W        W23166   4.531  17.286   2.285 -0.0691  0.1695 -0.1889
 6320W        W23167   8.842  15.527   3.683 -0.2243 -0.2045  0.3264
 6321W        W23168   0.379   2.709   2.545  0.2056  0.0075  0.0082
 6322W        W23169   3.430   7.830   0.329  0.0357 -0.0502 -0.3712
 6323W        W23170   9.782  17.688   0.489  0.0838  0.3361 -0.1117
 6324W        W23171  17.409  17.547   5.202 -0.0253  0.0207 -0.1125
 6325W        W23172  10.296  11.254  13.347 -0.0177  0.1755 -0.0735
 6326W        W23173   3.902  15.023  15.777 -0.0598  0.1569 -0.1510
 6327W        W23174   3.457  13.777   1.046 -0.0503  0.0212  0.1483
 6328W        W23175  16.635  16.176   0.645 -0.0642  0.1443 -0.0671
 6329W        W23176   2.959   2.713   5.885 -0.1691 -0.1402 -0.0904
 6330W        W23177   0.358  16.479   1.901 -0.0255  0.0172 -0.1147
 6331W        W23178   0.185   6.556  11.905 -0.0327 -0.2055  0.0781
 6332W        W23179  16.602   5.329  14.089  0.0282  0.0427  0.1273
 6333W        W23180  14.059  12.741  13.385  0.0779  0.3717 -0.1152
 6334W        W23181  15.062   6.495  12.014 -0.1049 -0.0376 -0.1883
 6335W        W23182   2.202  18.193  14.222  0.1844 -0.3083 -0.3126
 6336W        W23183   7.034   3.394  12.745  0.1685 -0.0499 -0.3137
 6337W        W23184  17.774   1.462   3.283  0.0926  0.1002  0.0885
 6338W        W23185   8.066   7.678  13.875  0.1372 -0.1528  0.1739
 6339W        W23186  16.794  11.762   1.812 -0.0859 -0.0010 -0.1222
 6340W        W23187   6.081   3.210  13.621  0.0332 -0.2367 -0.2630
 6341W        W23188  11.243  14.214   3.926 -0.0785 -0.2836  0.1776
 6342W        W23189  10.334  12.503  15.600  0.2084 -0.0194  0.3600
 6343W        W23190   1.946  11.159  14.334  0.0283 -0.1990 -0.1413
 6344W        W23191  17.188  14.254   1.443 -0.1987 -0.0562  0.1005
 6345W        W23192   1.119   5.162  15.171 -0.5060 -0.1323 -0.2243
 6346W        W23193  14.286   8.044  11.351 -0.1126 -0.2122 -0.5079
 6347W        W23194   3.610   8.094  13.150  0.1554  0.3071 -0.0474
 6348W        W23195  12.432   9.271   4.053 -0.0583 -0.0807 -0.1248
 6349W        W23196   1.594  18.302  10.445  0.0601  0.0046  0.0192
 6350W        W23197   3.903   4.613  12.132  0.3037  0.2475  0.1090
 6351W        W23198  11.802   9.980   5.493  0.1884  0.0094 -0.2689
 6352W        W23199  15.847   6.221  13.631 -0.1864  0.2113 -0.2435
 6353W        W23200   5.847   7.266   4.277  0.2743 -0.0313  0.0513
 6354W        W23201   7.932   5.277   0.017 -0.0937  0.1073  0.1473
 6355W        W23202   9.377  15.905  11.466 -0.0725  0.0178  0.0456
 6356W        W23203   5.990   2.727  11.334 -0.0603 -0.2839  0.1159
 6357W        W23204  17.472   8.273   2.423 -0.0564  0.0627  0.0174
 6358W        W23205   1.232   0.658   3.793 -0.1224  0.2401 -0.1107
 6359W        W23206   7.281   0.326  11.782  0.0169 -0.1137  0.0911
 6360W        W23207   1.271  12.205   1.992 -0.1602  0.1065  0.2200
 6361W        W23208   5.991  17.730  14.596  0.1050 -0.0208 -0.0331
 6362W        W23209   1.948   7.210  13.870 -0.2896 -0.2477  0.0831
 6363W        W23210   6.800  13.904  11.612 -0.0049 -0.0506  0.2640
 6364W        W23211   5.886   3.137   1.583 -0.0111 -0.1034  0.3114
 6365W        W23212   8.677  13.493   0.546 -0.0888 -0.1033 -0.2094
 6366W        W23213   1.179   6.091  10.984 -0.0641  0.1425  0.2797
 6367W        W23214   2.101   3.344   1.278  0.0829 -0.0924 -0.1724
 6368W        W23215  11.616   6.856  14.444 -0.0500  0.0814 -0.0789
 6369W        W23216   0.919   2.057  12.490  0.0637  0.2556 -0.0848
 6370W        W23217   5.140  15.382  14.615  0.0004  0.0364  0.0206
 6371W        W23218  16.132   8.089  14.719  0.0876  0.3229 -0.3204
 6372W        W23219  14.646   9.877   1.009  0.2032  0.0280  0.0010
 6373W        W23220   1.510  17.704  13.151  0.3415 -0.1113  0.0602
 6374W        W23221  15.838   0.906  12.296 -0.0169 -0.0616  0.0372
 6375W        W23222   3.415  12.078   5.254 -0.0143  0.0754 -0.1778
 6376W        W23223   6.853  14.600   0.582 -0.1823 -0.1756  0.0706
 6377W        W23224  16.188  10.468  11.127 -0.2917  0.1047  0.1653
 6378W        W23225  10.231   7.291   2.386 -0.2084 -0.0904  0.1589
 6379W        W23226   5.777   0.821  12.486 -0.1545 -0.3722  0.1000
 6380W        W23227   4.458   5.329   2.082 -0.1793 -0.0830  0.0529
 6381W        W23228  12.517  13.918  10.991  0.1937 -0.1666 -0.1363
 6382W        W23229  16.411  15.599   2.723 -0.0401  0.2631  0.1638
 6383W        W23230   3.757  16.452  15.704  0.2802  0.1994 -0.0791
 6384W        W23231   6.850  17.839  11.508  0.2620 -0.1619  0.1616
 6385W        W23232  17.715   7.373  14.896  0.1060 -0.1249 -0.2740
 6386W        W23233   8.865   9.513  15.458 -0.1347  0.2773  0.3300
 6387W        W23234  16.417   3.790   2.292 -0.1574 -0.0548 -0.1545
 6388W        W23235  15.859   4.808  13.845  0.1451  0.0515  0.1173
 6389W        W23236   9.815  17.088   0.628  0.0319 -0.3714  0.0215
 6390W        W23237  11.889   6.415  12.267  0.3522 -0.3150 -0.2127
 6391W        W23238  13.468  16.164   3.486  0.2080 -0.1227 -0.0716
 6392W        W23239  12.110   1.296   0.556 -0.0132 -0.0600  0.1711
 6393W        W23240   0.694   4.506  14.774 -0.0710 -0.4032 -0.1604
 6394W        W23241   0.491  12.848   1.694  0.0939  0.0639 -0.0405
 6395W        W23242  15.309  15.992   1.752 -0.0833 -0.1869 -0.3369
 6396W        W23243  12.979  14.689   2.622 -0.2875 -0.1387 -0.0730
 6397W        W23244  12.470  12.831   2.983 -0.2550 -0.0008 -0.1692
 6398W        W23245   8.058   7.455   3.571 -0.1340  0.1415  0.0165
 6399W        W23246  13.657   3.626   2.647  0.0347  0.0822  0.0003
 6400W        W23247   5.528  17.085  11.783  0.3460  0.1100 -0.0039
 6401W        W23248   4.673  13.076  15.826  0.0515 -0.2109  0.0579
 6402W        W23249  11.906   1.162  11.664  0.1104  0.1379  0.0097
 6403W        W23250  13.253  13.745  13.572  0.3806 -0.1555 -0.0365
 6404W        W23251  15.507  12.233   4.032  0.2804 -0.0049  0.0578
 6405W        W23252  15.113  17.329   4.687 -0.3440 -0.0419  0.2278
 6406W        W23253   3.952  11.100  12.839 -0.1888  0.1558  0.1074
 6407W        W23254  18.304   7.560  15.437  0.1385 -0.2454 -0.2223
 6408W        W23255  15.456   8.512   1.282 -0.0644 -0.1199  0.7917
 6409W        W23256  15.162  12.186  13.917 -0.2037 -0.0426  0.1671
 6410W        W23257   7.822   9.406  11.325 -0.0554 -0.3123  0.2734
 6411W        W23258  12.932   4.572   4.201 -0.1204  0.3097 -0.2868
 6412W        W23259   9.656   1.295  14.068  0.0062 -0.0827  0.1472
 6413W        W23260  11.138   6.967   0.365  0.2335  0.5659 -0.2613
 6414W        W23261   3.003   6.352   3.197 -0.0651 -0.0477  0.3523
 6415W        W23262   1.775  14.141   0.498 -0.0876  0.2109  0.2682
 6416W        W23263  10.834  12.105  12.503 -0.0826  0.1843  0.2731
 6417W        W23264   1.839  14.556  12.468  0.1779 -0.2133  0.3250
 6418W        W23265   7.836   9.971   2.514 -0.1454 -0.2862 -0.0492
 6419W        W23266   0.069   6.980  11.600 -0.0238 -0.1935 -0.3532
 6420W        W23267   4.675  15.099  11.482  0.2265 -0.0162  0.0096
 6421W        W23268   7.101  12.976   3.742  0.0727 -0.0482 -0.0506
 6422W        W23269   5.351   8.999   0.202  0.1054 -0.2657 -0.2181
 6423W        W23270   0.473  16.841  15.838 -0.1712  0.0119  0.3655
 6424W        W23271  11.828  13.030   1.364 -0.1375  0.0166  0.1899
 6425W        W23272  14.668   5.347  11.280 -0.0825  0.0236  0.2325
 6426W        W23273  15.082   0.001   5.618  0.3334  0.0015  0.2767
 6427W        W23274   0.612   0.912   1.733 -0.1567  0.0669  0.1047
 6428W        W23275  18.005   7.994   1.392  0.1284 -0.1031  0.1959
 6429W        W23276  16.380  17.411  13.992  0.1239 -0.0575  0.2253
 6430W        W23277   0.054   2.832  14.143  0.0100 -0.3440 -0.0114
 6431W        W23278  14.320  17.630   3.802 -0.1137 -0.1866 -0.0198
 6432W        W23279  10.034   7.624   0.623 -0.3425  0.3617 -0.0566
 6433W        W23280   5.298  15.638  15.027  0.0295 -0.0900  0.0540
 6434W        W23281  18.073   5.226   4.024 -0.1547  0.3231  0.0762
 6435W        W23282   9.192   0.803   2.473 -0.1481  0.0716 -0.3317
 6436W        W23283  17.657  12.573  14.186 -0.2186  0.0362  0.0519
 6437W        W23284  12.926  18.132  14.707 -0.2784  0.2266 -0.0383
 6438W        W23285   3.054   2.257  13.355  0.2127  0.1705 -0.0324
 6439W        W23286   4.296   9.316  12.729  0.0953  0.1867 -0.1552
 6440W        W23287   9.825   0.023   1.152  0.1153 -0.0695  0.0306
 6441W        W23288  12.323  12.619   2.161  0.5368  0.0469 -0.1816
 6442W        W23289   6.461  14.927  13.971  0.0136  0.0163 -0.1457
 6443W        W23290   0.826   8.774   4.998  0.0807  0.2277  0.0506
 6444W        W23291   5.866  10.613  15.295 -0.3649 -0.1548  0.0283
 6445W        W23292   4.410   7.019  14.778 -0.5743  0.0070  0.2298
 6446W        W23293  17.691  13.201  14.744  0.3682 -0.0026 -0.1807
 6447W        W23294   7.342  16.623   2.361  0.1275  0.3110 -0.1595
 6448W        W23295  14.385   5.307   0.221 -0.0689 -0.1217 -0.0334
 6449W        W23296   9.688   3.117  13.370  0.0292  0.0152  0.0704
 6450W        W23297  10.114   3.804  12.754 -0.0003 -0.2470  0.1686
 6451W        W23298  10.757   3.955  11.032 -0.1015  0.0026 -0.0631
 6452W        W23299  15.493  11.640  12.580  0.0831  0.0867 -0.0473
 6453W        W23300   6.444  11.131  13.620 -0.0906 -0.1737 -0.1461
 6454W        W23301   1.093   5.496   5.385  0.1734 -0.0057 -0.1941
 6455W        W23302   9.059   8.701   2.860  0.0895 -0.0541 -0.0992
 6456W        W23303  17.477   8.403   3.583  0.1802  0.2088 -0.1897
 6457W        W23304   4.443   6.952   3.274  0.1343  0.1801  0.2778
 6458W        W23305  10.491  11.786  10.701 -0.0945  0.2248  0.0582
 6459W        W23306   6.469  18.324   3.597  0.0198  0.0034 -0.0039
 6460W        W23307   1.551  13.482  14.420  0.2002 -0.4385  0.0658
 6461W        W23308   8.424   3.989  16.010 -0.0694 -0.1036 -0.0832
 6462W        W23309  17.365  12.544   1.674 -0.3508 -0.2400  0.0912
 6463W        W23310  14.982   7.347   4.384 -0.1112 -0.0533 -0.0558
 6464W        W23311   2.207   8.992  13.245 -0.1222  0.0917  0.2521
 6465W        W23312  11.009   6.492   0.524 -0.0554 -0.1143  0.0622
 6466W        W23313   5.503   8.147  12.435 -0.0540  0.2854 -0.0137
 6467W        W23314   0.553   0.812  13.756 -0.0123  0.0271 -0.1366
 6468W        W23315   3.147  15.246  15.320 -0.1987 -0.2496 -0.0758
 6469W        W23316   0.346  15.447   4.305  0.0627 -0.0825  0.0696
 6470W        W23317   0.729   4.304   2.781  0.5031 -0.1500  0.1558
 6471W        W23318   8.775   2.068   3.994  0.1607  0.0226 -0.2240
 6472W        W23319  12.452  10.948  13.092  0.1963  0.0558 -0.2117
 6473W        W23320  14.780   4.105  13.422  0.4436  0.0301 -0.0346
 6474W        W23321   3.962   7.155   1.343 -0.2311 -0.1361  0.1004
 6475W        W23322   3.697  10.803   5.376 -0.0814 -0.1921 -0.3992
 6476W        W23323  12.390   3.222  13.687 -0.2543  0.1930  0.0482
 6477W        W23324   9.796   8.282   0.647 -0.0547  0.2363  0.0079
 6478W        W23325   9.291   6.141  14.337 -0.4696  0.0503 -0.0474
 6479W        W23326   2.540   9.314  12.187  0.3397  0.0005  0.0168
 6480W        W23327   0.452   4.815   4.742  0.1795 -0.1548 -0.1417
 6481W        W23328   6.874   4.792   2.861  0.1850 -0.0950  0.0586
 6482W        W23329   6.724  11.838  13.109 -0.2291  0.0027  0.0689
 6483W        W23330  16.264   4.869  14.729 -0.3371  0.0444 -0.2001
 6484W        W23331   8.844   0.900   1.317  0.0393 -0.0497  0.0967
 6485W        W23332  16.130   4.664  12.935  0.1835  0.0579 -0.0875
 6486W        W23333   4.918   9.000   2.320 -0.0923  0.2336 -0.0441
 6487W        W23334  10.836   1.713   0.902  0.1525  0.0716  0.2928
 6488W        W23335   4.710  14.460  10.645 -0.2018 -0.0012 -0.1719
 6489W        W23336  12.686   9.609   5.712  0.0116  0.2242  0.1119
 6490W        W23337  13.307   2.824  16.065  0.1350 -0.0501  0.0924
 6491W        W23338  16.638   8.766   2.526 -0.0680  0.1569  0.0294
 6492W        W23339   2.642   7.783   3.572 -0.3036  0.1512  0.0151
 6493W        W23340   0.865   8.770   1.665  0.4736 -0.2456  0.1669
 6494W        W23341   3.617  10.067  12.706 -0.0952  0.0888 -0.1721
 6495W        W23342   6.906  13.766   3.281  0.0882  0.1436 -0.2671
 6496W        W23343   6.229   6.671  13.974 -0.1076  0.2198  0.1100
 6497W        W23344  17.717   4.977   1.964 -0.0878  0.0817 -0.1411
 6498W        W23345  12.538   5.571  15.918 -0.0847 -0.0578  0.1340
 6499W        W23346   3.149  12.944   4.415 -0.0201  0.1774  0.0731
 6500W        W23347   2.690   6.254  11.817 -0.1228  0.0208  0.0350
 6501W        W23348  17.850  15.115   4.384 -0.1536 -0.1997  0.0882
 6502W        W23349  16.320   8.975  12.934  0.0231 -0.1513 -0.2974
 6503W        W23350   8.221   6.540  15.788 -0.0426 -0.0418 -0.1971
 6504W        W23351   0.054   6.740   5.023  0.0219  0.0461 -0.1025
 6505W        W23352   1.442  11.913   3.982 -0.2384  0.1013  0.0914
 6506W        W23353  13.633  17.758   1.081  0.1076 -0.1259 -0.1117
 6507W        W23354   0.394  12.805  14.531  0.1014  0.4103 -0.2429
 6508W        W23355  17.519  17.360  13.595 -0.1773 -0.2134 -0.1071
 6509W        W23356   8.733  16.714   5.285  0.2858 -0.3379 -0.1808
 6510W        W23357   6.175   8.267   5.070  0.0955  0.1208  0.1396
 6511W        W23358  11.177   2.576  10.922 -0.1485  0.1042 -0.0236
 6512W        W23359  13.499   5.516   1.322  0.0067  0.4065  0.0416
 6513W        W23360  10.556   0.166  14.208  0.0877 -0.1085  0.0261
 6514W        W23361   4.861  14.166  12.958 -0.3220  0.2425 -0.1848
 6515W        W23362  13.718  17.486   4.755  0.2699 -0.1118  0.0966
 6516W        W23363   5.420   6.503  14.916 -0.0388 -0.0294 -0.0564
 6517W        W23364   5.296   9.116   1.886 -0.1951  0.1179 -0.3087
 6518W        W23365  14.006  17.834   3.444  0.2354  0.0480  0.0736
 6519W        W23366  10.848  13.352   1.821  0.2907  0.0621 -0.3100
 6520W        W23367   9.628   9.526  13.447 -0.3320  0.0449  0.1539
 6521W        W23368  17.563  12.044  14.311 -0.1250  0.1477 -0.1845
 6522W        W23369  13.336   8.837  14.877  0.1155  0.2022  0.2099
 6523W        W23370   1.435   9.403   4.123 -0.1611 -0.0624  0.1472
 6524W        W23371  17.315  12.614   3.959 -0.1047  0.1202 -0.1116
 6525W        W23372   3.796  13.238   4.334  0.0371 -0.1421  0.2098
 6526W        W23373  17.665   9.968  13.798  0.1150 -0.0960 -0.3442
 6527W        W23374   9.027   1.837  14.497  0.2146 -0.1117  0.1694
 6528W        W23375  17.983   5.514  13.557 -0.1411  0.0339  0.0748
 6529W        W23376   0.639   6.199   3.189  0.0858  0.1398  0.0441
 6530W        W23377   5.787   5.251  15.711  0.0984 -0.0827  0.0553
 6531W        W23378   6.636   2.300   1.385  0.0311  0.1809 -0.1196
 6532W        W23379   4.573   6.697   3.664 -0.2144  0.3289 -0.5793
 6533W        W23380  16.821  14.735  13.024 -0.0403 -0.2610 -0.2038
 6534W        W23381   2.902   1.937   3.345  0.0533 -0.0759  0.0747
 6535W        W23382  10.754   8.479  10.184  0.1320  0.0601 -0.4214
 6536W        W23383  17.025   1.528   4.421 -0.2633 -0.0992  0.0753
 6537W        W23384   8.272   2.928   4.103  0.1800  0.1147  0.0433
 6538W        W23385   7.209  17.896   4.252  0.0337 -0.0079 -0.0746
 6539W        W23386  15.190  14.805  12.247  0.0428 -0.0609 -0.0274
 6540W        W23387   8.422   8.871  12.552 -0.2581 -0.0114 -0.1104
 6541W        W23388   9.224   1.804   2.342 -0.0369  0.1085 -0.1429
 6542W        W23389   2.477   2.437   4.125  0.1121  0.0313  0.1246
 6543W        W23390   3.983   7.589   2.034  0.0381 -0.3299  0.1034
 6544W        W23391  17.087  13.388  11.493 -0.1801  0.0991  0.0656
 6545W        W23392   7.208  16.544  14.874  0.2732 -0.1178  0.2205
 6546W        W23393  15.374  18.144  15.326  0.2976 -0.2653 -0.0487
 6547W        W23394  17.986   9.478   4.020  0.1991  0.2165  0.2706
 6548W        W23395   0.320  18.069  11.388  0.1298  0.3015 -0.4348
 6549W        W23396   6.117   1.619   4.142  0.0111 -0.3213  0.2649
 6550W        W23397  16.555   9.121  14.426  0.1441 -0.4036  0.0799
 6551W        W23398   8.179   6.583  13.572 -0.1249 -0.0379 -0.1952
 6552W        W23399   8.285  12.266   0.275 -0.1714 -0.2826  0.1773
 6553W        W23400   3.870  18.195  12.121  0.4249  0.0741 -0.0151
 6554W        W23401   3.401  16.448   2.514  0.0733  0.2369 -0.1225
 6555W        W23402  14.447   8.570   4.246  0.0664 -0.1993 -0.0442
 6556W        W23403  14.378   7.212   4.380 -0.0931  0.0167 -0.4225
 6557W        W23404  11.754  11.953  13.307 -0.0372  0.0456  0.0285
 6558W        W23405   9.725  14.243  12.774 -0.1145 -0.0572 -0.1579
 6559W        W23406  13.550  16.342   0.923 -0.1822  0.3339  0.0904
 6560W        W23407  17.210   0.263   3.281  0.1099 -0.1757 -0.1353
 6561W        W23408  14.238  11.018  11.332  0.2180  0.1957 -0.2563
 6562W        W23409   4.778  14.059   1.424  0.0324 -0.1336  0.2095
 6563W        W23410   3.663  16.574  13.486 -0.0917  0.0792  0.0574
 6564W        W23411   9.013  12.272   4.907 -0.3471  0.0103 -0.1548
 6565W        W23412   0.118  14.446   0.053 -0.0921 -0.0322  0.2672
 6566W        W23413  18.168   5.980  13.594 -0.2279  0.3126  0.1521
 6567W        W23414   3.066  17.111   5.883  0.0936  0.3676  0.0326
 6568W        W23415  10.798  10.088  10.597 -0.0117 -0.1215  0.4624
 6569W        W23416  13.143   3.182  11.420 -0.1964 -0.0933 -0.2417
 6570W        W23417   6.249   9.891   1.440  0.1618  0.0248  0.0651
 6571W        W23418   0.774   2.100   3.799  0.2447 -0.3095  0.0136
 6572W        W23419   2.169   2.587   1.252  0.1759  0.2616  0.1149
 6573W        W23420  12.268   8.696  11.195  0.0286  0.1091 -0.0901
 6574W        W23421   5.879  17.154   4.418  0.0248 -0.1902 -0.1170
 6575W        W23422   7.299   3.314   2.966 -0.0941  0.0689  0.1260
 6576W        W23423  11.919   7.160  14.138 -0.1354 -0.1818 -0.0920
 6577W        W23424   0.952  17.919  15.390  0.0848  0.1501  0.1962
 6578W        W23425   4.896   0.953  12.743 -0.0336  0.0459 -0.0212
 6579W        W23426   5.548  15.409   2.776  0.1924  0.1770  0.1185
 6580W        W23427  17.477   7.451   4.542 -0.0097 -0.0172  0.0886
 6581W        W23428  15.096  11.102   3.431  0.0526 -0.2817 -0.1239
 6582W        W23429  11.339   7.778  13.343  0.3730  0.0440  0.1031
 6583W        W23430  15.064  13.084   3.869  0.0839 -0.0681 -0.0266
 6584W        W23431   3.869  10.316   1.608  0.0871 -0.2749  0.0032
 6585W        W23432   9.181   7.282   4.420 -0.3071  0.1472  0.2909
 6586W        W23433   9.350  14.511  14.508  0.1818 -0.2360 -0.0650
 6587W        W23434   2.633  17.431  15.929 -0.2748  0.1235 -0.0595
 6588W        W23435  14.061  12.195  13.225 -0.4533 -0.3156  0.1752
 6589W        W23436   0.440   1.808   2.236 -0.2749 -0.0945 -0.1672
 6590W        W23437   8.270   0.095   4.877  0.0192  0.0083 -0.0303
 6591W        W23438  11.501   0.241   0.310 -0.2697  0.1955  0.0902
 6592W        W23439   5.210   2.366  14.569  0.0498  0.0554 -0.2606
 6593W        W23440   6.458   4.376   5.059  0.0195 -0.0845 -0.0140
 6594W        W23441  10.930  16.004  12.345  0.1464  0.1855  0.0723
 6595W        W23442  11.423   5.216  13.308  0.1495 -0.1834  0.1578
 6596W        W23443  10.401  12.587   5.617  0.3441 -0.0199 -0.3040
 6597W        W23444   3.047   9.315  13.441  0.0551  0.1507 -0.0562
 6598W        W23445   6.499   1.909  13.199 -0.2453 -0.1457 -0.1135
 6599W        W23446   0.573  15.513  14.609 -0.0890  0.0422 -0.3719
 6600W        W23447   9.158  13.067  13.453  0.1297  0.1299 -0.2305
 6601W        W23448   4.692   5.476   5.588 -0.1826 -0.0070  0.1255
 6602W        W23449  11.164   0.589   2.204  0.0250  0.0031  0.1093
 6603W        W23450   0.418   8.862   0.351 -0.3234  0.3158 -0.2458
 6604W        W23451   7.106  14.263  12.050  0.0406  0.1173 -0.0829
 6605W        W23452   1.724  12.065   3.281 -0.1316  0.2269 -0.4099
 6606W        W23453  12.746   8.415   3.159  0.2160  0.0359 -0.2090
 6607W        W23454  17.017  10.747   2.314  0.1833 -0.0766  0.0170
 6608W        W23455  14.762   8.010  12.976 -0.0542 -0.0472  0.1647
 6609W        W23456   3.015  12.139   1.450  0.0154  0.1004  0.0685
 6610W        W23457   0.825   7.947   3.265  0.0159 -0.2441 -0.3158
 6611W        W23458  16.025   1.585  14.791 -0.2429  0.1191  0.1972
 6612W        W23459   6.116   3.303  12.665 -0.1786  0.0356 -0.1332
 6613W        W23460   2.366  17.423   4.383 -0.3637  0.0392  0.1972
 6614W        W23461  15.970   1.790   0.171  0.2429  0.0536 -0.2654
 6615W        W23462   1.992   7.465  15.923 -0.0090  0.2417  0.1214
 6616W        W23463   8.662  12.421   5.198 -0.0070 -0.1340 -0.1299
 6617W        W23464  12.409   2.921  15.222 -0.0461  0.1347  0.1336
 6618W        W23465   3.781  11.177  15.841  0.1728  0.0094  0.2640
 6619W        W23466  15.617  12.730   2.468 -0.0128 -0.0136 -0.1183
 6620W        W23467  11.603   0.640  12.938 -0.0701 -0.2625 -0.2193
 6621W        W23468  13.418   7.556  15.760 -0.1652  0.1851 -0.1731
 6622W        W23469  14.743  15.512   1.421  0.3563 -0.0144  0.2585
 6623W        W23470  15.038   8.734  12.400 -0.0856  0.1137 -0.0049
 6624W        W23471   6.737   5.056   3.391  0.0221  0.0927  0.1398
 6625W        W23472  12.546   4.561  14.857  0.1478  0.0479 -0.2052
 6626W        W23473   6.607  16.876  15.452  0.0465  0.0119  0.0585
 6627W        W23474   4.320  15.943   1.625  0.0709  0.1722 -0.3901
 6628W        W23475  14.097  11.750  12.571  0.2095  0.0151 -0.1299
 6629W        W23476   4.499   0.185  13.843 -0.0348 -0.0238  0.0570
 6630W        W23477  10.903  10.613  13.544 -0.3105 -0.1813  0.2216
 6631W        W23478  10.661  11.911  15.387 -0.2202  0.0083  0.0685
 6632W        W23479   4.802  18.139  13.901  0.0435 -0.1007 -0.2063
 6633W        W23480   1.298   9.746   0.990  0.1629 -0.0604  0.0796
 6634W        W23481   3.480   0.689  12.254  0.0641  0.1132  0.2370
 6635W        W23482   4.518   8.245  12.685 -0.0986  0.0989 -0.2475
 6636W        W23483   3.452   7.749   4.685 -0.3944 -0.2266  0.3372
 6637W        W23484   8.789   4.470  15.511 -0.2345  0.1679  0.1882
 6638W        W23485  13.597   8.970  15.733  0.1727  0.2140 -0.1918
 6639W        W23486   4.661   3.229  11.551 -0.0114 -0.0819  0.1145
 6640W        W23487   6.874   5.235   4.832  0.0486  0.0990  0.2240
 6641W        W23488  12.878  11.118   2.072  0.3726 -0.0295  0.0325
 6642W        W23489  10.018   1.498  14.999 -0.0256 -0.2343  0.1072
 6643W        W23490  16.395  13.881  15.072  0.1132 -0.0838  0.3587
 6644W        W23491   4.363  12.994   5.576 -0.1072  0.1638  0.0429
 6645W        W23492  13.334   4.983  14.277 -0.0028 -0.3366 -0.0532
 6646W        W23493  13.801   2.385   3.648 -0.1009  0.0439  0.1150
 6647W        W23494  13.324   9.283   1.242  0.2119 -0.1038 -0.1267
 6648W        W23495   4.934  16.351  12.377  0.0253 -0.1819 -0.0883
 6649W        W23496   5.615  14.249  13.207 -0.0579 -0.1660 -0.2388
 6650W        W23497   0.228   2.086  11.780  0.0654 -0.1104  0.1361
 6651W        W23498   2.185  16.624   1.945  0.2804 -0.0759 -0.0594
 6652W        W23499   8.688  16.171   1.107  0.0765 -0.1050  0.0203
 6653W        W23500   8.427   2.463   3.930 -0.2049 -0.0543  0.1193
 6654W        W23501  16.987   7.519  14.190 -0.2554  0.0286 -0.1168
 6655W        W23502  14.086  12.873   5.722  0.0706 -0.2891 -0.0030
 6656W        W23503   3.858  17.973  14.709  0.1097  0.0484  0.0150
 6657W        W23504   2.922   6.770  16.121 -0.0235  0.0296  0.2633
 6658W        W23505   1.374  16.478  13.090 -0.0794  0.0279  0.0184
 6659W        W23506   6.378  13.883   4.237  0.0622 -0.1926 -0.2525
 6660W        W23507  16.472  18.288  14.425  0.0496  0.0853 -0.0512
 6661W        W23508   7.122   5.712  16.144  0.0104  0.0458 -0.0034
 6662W        W23509  17.094   2.230   4.993 -0.3663  0.0444 -0.1582
 6663W        W23510   7.787  10.563   5.178 -0.2300  0.1406 -0.1140
 6664W        W23511  14.910   0.804  14.056 -0.3694 -0.1099 -0.2882
 6665W        W23512   4.958   0.448   5.638  0.2028 -0.0896  0.1955
 6666W        W23513   7.472   1.091  14.197 -0.1381 -0.1256 -0.0273
 6667W        W23514   8.297  17.980   1.324 -0.2072  0.3207  0.1732
 6668W        W23515  10.685  12.404  13.061  0.1136 -0.0971 -0.0545
 6669W        W23516   6.882   8.546   3.204  0.5027  0.1279 -0.1527
 6670W        W23517  12.906   6.194  12.393  0.2255 -0.2016  0.0938
 6671W        W23518  16.525   2.032   0.938 -0.3360  0.3002 -0.1256
 6672W        W23519  11.757   9.447  11.572  0.0093 -0.2940 -0.1538
 6673W        W23520   3.586  12.076   4.745  0.0991 -0.0444 -0.2905
 6674W        W23521   8.031   8.091  12.779 -0.0249  0.6029  0.1231
 6675W        W23522  14.454   0.976  15.637  0.1124  0.1492 -0.3275
 6676W        W23523  11.796  17.102   3.575  0.0395  0.5185  0.0558
 6677W        W23524   8.113  17.916  15.440  0.0733  0.2551  0.0368
 6678W        W23525   4.965   2.225   1.595 -0.1117 -0.1382  0.2202
 6679W        W23526  17.449  15.288   3.445 -0.3190 -0.0208 -0.2169
 6680W        W23527  16.521   7.857  15.037 -0.1086 -0.2075 -0.0270
 6681W        W23528   1.975  15.734  14.847  0.3081 -0.0410 -0.0153
 6682W        W23529  12.618   9.702  11.660 -0.2563 -0.0164  0.0637
 6683W        W23530   8.594   3.527  12.571 -0.0605 -0.2304  0.0108
 6684W        W23531   5.066  15.872  11.531  0.0260 -0.0968 -0.2323
 6685W        W23532   1.690  15.686  14.147  0.1288 -0.1768  0.1475
 6686W        W23533   2.919   2.680  13.729  0.1885  0.2557  0.0199
 6687W        W23534  15.354   4.858  13.076  0.3258 -0.0394 -0.1174
 6688W        W23535  17.881   6.771  12.921 -0.1034  0.1390  0.0330
 6689W        W23536   3.631   3.796  14.535 -0.0175  0.2761  0.0634
 6690W        W23537   4.574  11.535   2.971 -0.3710 -0.0796 -0.1027
 6691W        W23538   8.484   6.422  12.473 -0.0972  0.1280  0.1086
 6692W        W23539   1.564   5.134  14.931  0.1713  0.1831 -0.2761
 6693W        W23540  15.657   8.583   0.454 -0.2543 -0.1167 -0.1275
 6694W        W23541  14.251  17.946  11.238  0.1698  0.0816  0.5051
 6695W        W23542  15.627  11.218   3.232  0.1006  0.0010 -0.0919
 6696W        W23543  11.216   8.649  15.380  0.2248 -0.1919  0.0123
 6697W        W23544   9.495   5.281   4.084 -0.0104 -0.0897  0.4154
 6698W        W23545   9.735   4.563  11.901 -0.1222 -0.0205  0.1089
 6699W        W23546  11.138  14.566  13.275 -0.2270  0.1058 -0.1056
 6700W        W23547  10.851   6.282   4.039 -0.1199  0.1878 -0.0152
 6701W        W23548   8.922  16.478   5.807 -0.1541 -0.1765  0.0632
 6702W        W23549   2.437   3.358  14.622  0.0188  0.1132 -0.2018
 6703W        W23550   0.053   8.527   4.700 -0.1000 -0.0140 -0.1459
 6704W        W23551  17.625   7.471   5.019  0.1436 -0.3481  0.1420
 6705W        W23552   9.795   3.527  13.571 -0.1469  0.0919  0.2916
 6706W        W23553   1.540  10.693  15.965 -0.1425  0.1128 -0.2760
 6707W        W23554  16.577   0.273   5.096  0.0192  0.0298 -0.0758
 6708W        W23555   8.486   4.584  13.200  0.1855  0.1637  0.0315
 6709W        W23556  16.073  10.288   0.079 -0.1027  0.1309 -0.2466
 6710W        W23557  15.560   7.642   0.602 -0.3266 -0.1025 -0.1434
 6711W        W23558   6.335   7.436   6.462  0.1827 -0.1479  0.0198
 6712W        W23559   0.695  17.772   3.637 -0.1697  0.0733  0.1236
 6713W        W23560   0.670   7.022  14.860  0.2696  0.0747 -0.0443
 6714W        W23561   1.696   8.963  11.715 -0.0575 -0.2670  0.1596
 6715W        W23562   4.924  11.847   3.323  0.1577  0.1625 -0.0057
 6716W        W23563  11.759   6.061  10.999  0.0782  0.2042  0.0589
 6717W        W23564  16.368   6.595  15.603  0.2620  0.0064  0.0119
 6718W        W23565   9.478  12.472   5.104  0.1380 -0.0254  0.2500
 6719W        W23566   8.715   5.375  14.237  0.1648 -0.0607  0.1768
 6720W        W23567   1.079  12.308  12.928 -0.2091  0.0270  0.1631
 6721W        W23568   4.910  10.385   1.583  0.2723 -0.0704  0.1622
 6722W        W23569   5.435  10.094   0.589 -0.0173 -0.4413 -0.0182
 6723W        W23570   6.005  11.189   5.260 -0.1290  0.1163  0.0635
 6724W        W23571   0.878  10.807   2.250  0.3054  0.2090  0.0940
 6725W        W23572   2.135  14.163   3.807  0.0071  0.1917 -0.0505
 6726W        W23573  10.838  13.547   4.747 -0.0402 -0.1995 -0.0997
 6727W        W23574   8.749   3.842   1.956 -0.1155  0.1712  0.0314
 6728W        W23575  10.974   6.157  12.451  0.1064 -0.0170 -0.1723
 6729W        W23576   0.967  11.235  11.546 -0.0568  0.1452 -0.2185
 6730W        W23577   3.775  18.273   3.582  0.1568  0.0736  0.4454
 6731W        W23578   4.911   3.574   1.987 -0.1340 -0.1243  0.0395
 6732W        W23579  10.918  14.665   1.967  0.1984  0.0276 -0.0631
 6733W        W23580   2.321  12.190  12.345  0.0612  0.2084 -0.1340
 6734W        W23581  17.360  10.655   2.702 -0.0405 -0.1797 -0.1853
 6735W        W23582   0.351  17.710   4.925  0.2242  0.0808  0.0852
 6736W        W23583   3.362  18.139  14.755  0.0984  0.0977 -0.2039
 6737W        W23584   0.646   0.279  13.664  0.0899  0.1142 -0.0192
 6738W        W23585   6.888  10.342  12.194  0.3200 -0.3088 -0.1560
 6739W        W23586   2.384  17.853   2.846  0.2691  0.2273 -0.2881
 6740W        W23587   9.488   4.337  13.868  0.2751  0.3737  0.1537
 6741W        W23588  11.493  16.777   0.201  0.0632 -0.3385  0.1553
 6742W        W23589   2.116   7.139  12.903 -0.1295  0.0612  0.1848
 6743W        W23590   4.351  15.590   4.003 -0.1066  0.1608  0.2724
 6744W        W23591   2.076  11.565  16.037  0.0296 -0.2465  0.3085
 6745W        W23592  15.816   3.190   2.408 -0.1195  0.1415  0.0541
 6746W        W23593  15.751   1.728   2.031  0.0199  0.1049  0.1456
 6747W        W23594  13.343   7.953  16.042 -0.2297 -0.0001 -0.0182
 6748W        W23595   4.742   8.154   0.363 -0.0630  0.1716 -0.0150
 6749W        W23596   4.050   6.175   2.204 -0.0245  0.1279  0.1912
 6750W        W23597   5.259  16.816  14.016  0.2062 -0.3138 -0.1010
 6751W        W23598   6.082   3.404  11.677  0.0987  0.3243 -0.0388
 6752W        W23599  11.641  15.932  13.671 -0.3890  0.0069  0.0695
 6753W        W23600  16.288  13.272   5.393  0.1382 -0.0093 -0.2462
 6754W        W23601   2.076   4.110  14.405 -0.0832 -0.3586 -0.0022
 6755W        W23602   3.999  16.040   5.024 -0.2296  0.3744 -0.1315
 6756W        W23603  11.263   1.471  12.556 -0.0294  0.0342 -0.0646
 6757W        W23604   2.368   8.173   5.016  0.2611  0.0119 -0.1468
 6758W        W23605   3.615  16.514   5.709 -0.0876 -0.2931 -0.1860
 6759W        W23606   9.994   9.948  13.219 -0.0452 -0.1047  0.0133
 6760W        W23607   6.090   5.092  12.495 -0.0879  0.3542  0.1916
 6761W        W23608   9.770   9.809   1.096 -0.2344 -0.3739 -0.2382
 6762W        W23609   4.420   9.324   5.379 -0.1450  0.2545  0.1753
 6763W        W23610   4.700  15.057   0.129 -0.0826 -0.3811  0.0776
 6764W        W23611   7.912   7.214   3.975  0.0890 -0.2732 -0.2326
 6765W        W23612  13.418   2.831  13.075 -0.2008 -0.0864  0.1536
 6766W        W23613   7.185  16.801   3.273 -0.1069  0.0155 -0.0870
 6767W        W23614   2.343  10.956  12.261 -0.3954 -0.1794  0.0741
 6768W        W23615  12.612   3.326  14.566 -0.0567  0.2862  0.2374
 6769W        W23616   9.058   2.701   2.482 -0.0027 -0.0966  0.1468
 6770W        W23617  12.643   7.392   4.557  0.2765 -0.2162 -0.2065
 6771W        W23618   3.453  17.281  15.719 -0.1230 -0.2391  0.4621
 6772W        W23619   7.848  18.285  14.451 -0.1469  0.3126 -0.1720
 6773W        W23620   0.756   2.868   2.908 -0.0244  0.0890  0.0951
 6774W        W23621   6.934   9.300   3.906 -0.2199 -0.0717  0.1011
 6775W        W23622  17.373   8.819  16.099 -0.0358 -0.0254 -0.1033
 6776W        W23623   9.369   5.379   1.563 -0.4185  0.1700  0.0131
 6777W        W23624  16.225  12.439  12.603  0.1619 -0.0724  0.1400
 6778W        W23625   1.343  11.201  16.153  0.2115 -0.0987 -0.1736
 6779W        W23626   9.417   2.987  15.025 -0.1229 -0.1603  0.0614
 6780W        W23627  12.089   5.224  16.063  0.0088 -0.0293 -0.2137
 6781W        W23628   0.020   8.585  13.375  0.1961 -0.1848 -0.2121
 6782W        W23629   4.209  16.464   2.212  0.2229 -0.2573 -0.1740
 6783W        W23630  15.199   4.375   9.710 -0.1062  0.2369  0.0779
 6784W        W23631   1.876  11.544   5.643  0.3036 -0.0768  0.0568
 6785W        W23632  11.670   3.622  11.498 -0.0444  0.0360 -0.0330
 6786W        W23633   8.244  12.704   3.919  0.1122 -0.1525 -0.2091
 6787W        W23634   8.087  15.465   1.313 -0.0536  0.2189 -0.0068
 6788W        W23635  16.492   3.074  11.241  0.3203  0.0142  0.1043
 6789W        W23636   4.267  12.511  13.823 -0.4299 -0.0175 -0.2776
 6790W        W23637   6.880   3.202   0.055  0.4442 -0.0785 -0.1184
 6791W        W23638  10.907   8.045   2.624  0.1752  0.0059 -0.1006
 6792W        W23639  12.374   2.734  16.141  0.0608  0.3736 -0.2251
 6793W        W23640   6.802   4.260   0.650  0.2019  0.0751 -0.1412
 6794W        W23641  17.040  11.386   4.135 -0.4933  0.0128 -0.0484
 6795W        W23642   6.413   3.070   0.009  0.1942  0.0908  0.2220
 6796W        W23643   2.151   1.608   0.103 -0.0272  0.2477  0.0324
 6797W        W23644   4.451   0.676  12.383 -0.2484  0.0230 -0.0981
 6798W        W23645   6.067  17.404  13.000 -0.4274 -0.0925  0.0624
 6799W        W23646   8.668   0.557  12.439 -0.3177  0.3094 -0.1873
 6800W        W23647  15.258   1.802  10.962 -0.0366 -0.0041  0.1423
 6801W        W23648   7.987  11.982   4.024 -0.2635 -0.0068  0.1756
 6802W        W23649   6.862  12.708  14.527  0.0363  0.1245 -0.2266
 6803W        W23650  10.918   2.209   3.066  0.0281 -0.4356  0.1737
 6804W        W23651   0.585   2.143  13.941 -0.0059 -0.0217  0.2045
 6805W        W23652   9.980  14.024   3.646 -0.0244  0.0096 -0.0715
 6806W        W23653   5.635  11.525   0.315  0.0022 -0.1480 -0.1892
 6807W        W23654   9.701   5.231  15.957  0.2150 -0.0120  0.0540
 6808W        W23655  10.954   1.830  12.368 -0.0923 -0.0738  0.3077
 6809W        W23656   3.292   9.319   1.378 -0.1414  0.2859  0.1573
 6810W        W23657  12.575   2.096  15.044  0.2671 -0.0133  0.2585
 6811W        W23658   7.845   4.995   1.230 -0.0122 -0.2241 -0.0451
 6812W        W23659  10.832   6.413   1.895  0.0375  0.1096 -0.0540
 6813W        W23660  15.239   8.206  14.639 -0.2068 -0.0899 -0.1652
 6814W        W23661  17.257   8.688  11.355  0.1577 -0.0822  0.0879
 6815W        W23662   9.049  16.930  13.830 -0.0553 -0.2894 -0.1836
 6816W        W23663   0.511   0.318  14.492 -0.0536 -0.3797 -0.1711
 6817W        W23664   3.692  11.285  11.313 -0.2217  0.1708 -0.1204
 6818W        W23665  15.665  10.902  15.370  0.1126  0.1730 -0.0450
 6819W        W23666  16.106   4.594   3.947 -0.2031 -0.0275 -0.1300
 6820W        W23667  15.029   1.029  13.402 -0.1300  0.1259  0.0040
 6821W        W23668   1.342   1.643  13.682 -0.0621 -0.0408  0.1648
 6822W        W23669   4.949   1.435  12.539  0.1729  0.4407  0.1497
 6823W        W23670  16.515  12.180   1.582  0.4572  0.1678 -0.0199
 6824W        W23671   2.717   4.477   1.279  0.0912  0.1065  0.1607
 6825W        W23672  15.200   2.065  13.310 -0.1139 -0.0529 -0.1946
 6826W        W23673  16.530  14.339  14.671 -0.0281  0.1406  0.2027
 6827W        W23674  17.080   9.522   4.347 -0.0353  0.1994  0.0446
 6828W        W23675   0.141   6.683  13.779 -0.0652  0.2337 -0.0526
 6829W        W23676   8.591  17.126   1.513  0.0880  0.0329 -0.1502
 6830W        W23677   0.071   5.023  14.333 -0.1255 -0.3389  0.1254
 6831W        W23678  11.374  18.118  11.362 -0.0734  0.0533  0.1184
 6832W        W23679  16.760  14.014   4.791 -0.1509  0.1516  0.2174
 6833W        W23680   1.106   8.133  11.906  0.0840  0.0004 -0.3130
 6834W        W23681   5.656  12.983   4.297  0.2230 -0.1261 -0.1440
 6835W        W23682  13.024  12.477   1.052  0.1709 -0.3064 -0.3159
 6836W        W23683   0.520  10.435   2.210 -0.0408 -0.1637  0.0816
 6837W        W23684   9.782   7.256  10.806 -0.1535 -0.2622 -0.0655
 6838W        W23685   1.256   1.410  16.086  0.1312 -0.1376 -0.0859
 6839W        W23686   3.328  10.617  15.825  0.1634 -0.1097 -0.3208
 6840W        W23687  13.201   5.537   4.414 -0.0082 -0.0711  0.2304
 6841W        W23688   5.205   5.503   5.675 -0.0905  0.1633 -0.0564
 6842W        W23689  13.836  12.936   4.485 -0.0644 -0.1083  0.0197
 6843W        W23690  10.852  16.124   2.251  0.0620  0.0912 -0.0553
 6844W        W23691  17.945   6.189   3.579  0.0199  0.2841 -0.0102
 6845W        W23692  10.802   0.815  14.402  0.0922  0.1061  0.0943
 6846W        W23693  14.958  18.059   3.108 -0.0412 -0.1197 -0.2125
 6847W        W23694  16.359  13.870  11.454 -0.0657  0.1150  0.0752
 6848W        W23695  10.087  16.814  12.892 -0.1390 -0.2934  0.2118
 6849W        W23696  16.085  14.251  13.676 -0.4899 -0.0516 -0.0827
 6850W        W23697   2.692   3.847   2.104 -0.3142 -0.0135 -0.1623
 6851W        W23698   5.032  11.800   2.161 -0.4196  0.1990  0.2979
 6852W        W23699  12.542  11.430   1.755  0.2540 -0.0586  0.0170
 6853W        W23700   9.123   9.778   0.014 -0.3502  0.0448  0.0178
 6854W        W23701   6.590  13.282   0.407  0.0134 -0.1186 -0.1077
 6855W        W23702  14.723  13.884  12.255  0.0478 -0.0797  0.0932
 6856W        W23703   1.371  10.221  14.982  0.1544 -0.1057 -0.0402
 6857W        W23704   7.033   8.144   2.050  0.0015  0.1599 -0.0865
 6858W        W23705   4.671   9.967   3.069 -0.0558 -0.2762  0.3110
 6859W        W23706  14.155   6.799   2.745  0.2945 -0.1622  0.0698
 6860W        W23707  13.693   0.939   2.139  0.0550  0.2345  0.3147
 6861W        W23708   0.532   8.400  13.495  0.1936  0.2049 -0.2007
 6862W        W23709   7.922   9.969   0.946  0.2606 -0.0094  0.0718
 6863W        W23710  12.338   2.920  10.177  0.2325 -0.2256  0.2003
 6864W        W23711   2.300   9.918   1.717 -0.1631  0.3049  0.0377
 6865W        W23712   1.129   5.000   0.984  0.1832  0.2809 -0.4106
 6866W        W23713   4.817   0.318  12.284 -0.0083  0.0645 -0.1102
 6867W        W23714  11.273  15.031  13.450 -0.1396  0.1936  0.1201
 6868W        W23715   0.126  10.635   1.924  0.0529  0.1311 -0.0109
 6869W        W23716   5.601   9.006  12.849 -0.0923  0.3483  0.0123
 6870W        W23717  12.697  15.996   4.738 -0.0350 -0.1283 -0.1449
 6871W        W23718   4.840  13.218   0.803  0.1668  0.1088 -0.0399
 6872W        W23719  16.503   1.710   0.504  0.0365 -0.2698 -0.0287
 6873W        W23720  13.287   8.532  11.106  0.1726 -0.2505 -0.0991
 6874W        W23721   2.138  14.864  13.125  0.1492 -0.1011  0.0111
 6875W        W23722   8.378   8.628   3.982  0.1991 -0.2768 -0.4555
 6876W        W23723   4.714  16.436   1.334  0.0946  0.1124 -0.2162
 6877W        W23724  17.727  14.340   5.304 -0.1361 -0.2503  0.1205
 6878W        W23725   6.387   4.596  15.215  0.0226 -0.3070 -0.1018
 6879W        W23726  17.394  12.292   2.178  0.0976 -0.2842 -0.3113
 6880W        W23727  12.589   6.784   0.627  0.0920 -0.0446 -0.0797
 6881W        W23728  11.318   0.259   0.798  0.1056 -0.0206 -0.0036
 6882W        W23729  15.558   3.559   2.043  0.0062  0.0543 -0.0096
 6883W        W23730   6.184   1.619   0.933  0.0935  0.1324  0.1221
 6884W        W23731  11.292   3.759  12.303 -0.1870 -0.0063 -0.2973
 6885W        W23732   0.250   5.951  10.897  0.0829  0.2419  0.2796
 6886W        W23733   3.756   9.595  13.507  0.0552  0.0009  0.3877
 6887W        W23734  14.966   7.792   2.124  0.1001 -0.0176 -0.0332
 6888W        W23735  12.634  14.751   0.711  0.1110  0.1953 -0.1755
 6889W        W23736   2.840  15.614   4.236 -0.0296 -0.0774 -0.0993
 6890W        W23737   6.781  17.507   5.586 -0.2156  0.0521 -0.4067
 6891W        W23738  12.688   6.378   4.105 -0.2579 -0.1211 -0.0993
 6892W        W23739   6.085  15.857  11.496 -0.2365 -0.1550  0.2222
 6893W        W23740  12.885   5.679   2.877 -0.1236 -0.2216 -0.0812
 6894W        W23741   1.456   1.800  14.907  0.0885  0.0299  0.1653
 6895W        W23742  13.454   9.496   2.126 -0.2662  0.0333 -0.0959
 6896W        W23743  14.416   1.605   1.301  0.2716 -0.0611  0.0630
 6897W        W23744  10.946   2.274   1.219  0.0430 -0.0482 -0.0524
 6898W        W23745   0.721  10.067   4.099 -0.2353  0.0153  0.2604
 6899W        W23746  12.087  10.974   0.025 -0.1071 -0.0104  0.1372
 6900W        W23747   4.285  14.588  10.915  0.1268  0.3799 -0.0013
 6901W        W23748  17.324   0.638   5.135 -0.3864  0.2385  0.1836
 6902W        W23749  16.908   5.440   3.781  0.0281  0.1616 -0.1008
 6903W        W23750  15.350  17.723  16.129  0.0178  0.1281  0.0518
 6904W        W23751   7.879  14.645   1.807  0.1882 -0.2231  0.0339
 6905W        W23752  10.138   7.549   5.007  0.0095  0.2509 -0.1145
 6906W        W23753  13.701   2.233   0.801 -0.2397  0.0653  0.0286
 6907W        W23754   6.448  11.314  14.427  0.0839  0.2801 -0.3289
 6908W        W23755  17.655   8.019   0.339 -0.1968  0.3843 -0.4002
 6909W        W23756   1.706   0.441  12.591  0.0096 -0.0326 -0.1464
 6910W        W23757  10.299  11.355  16.014 -0.1097 -0.3768  0.1981
 6911W        W23758   8.252   3.106  15.518  0.1382 -0.2686 -0.0700
 6912W        W23759   3.245  14.522   4.290  0.2187 -0.1039 -0.0519
 6913W        W23760   8.729   4.339  11.776 -0.0760  0.1366  0.1656
 6914W        W23761  14.000   9.780  15.434 -0.3118  0.1437  0.1027
 6915W        W23762   7.254   8.852   2.683  0.0525 -0.1160  0.2198
 6916W        W23763   2.922  16.365  12.105 -0.0418 -0.0056 -0.1935
 6917W        W23764  11.849   4.689  10.778 -0.0776 -0.1470  0.3210
 6918W        W23765   0.859  15.674   1.796 -0.0559  0.0329 -0.0643
 6919W        W23766   8.097  13.480  13.516  0.1898  0.0533 -0.2528
 6920W        W23767  11.857   8.882   4.564  0.0283 -0.1363 -0.1779
 6921W        W23768   0.796  17.815   0.091  0.1150  0.1303  0.6137
 6922W        W23769   6.501   4.734  14.363  0.3133  0.1326  0.1657
 6923W        W23770  17.462   4.504   4.428  0.2348 -0.0491  0.3548
 6924W        W23771   1.459   9.344   5.085  0.0806 -0.1100 -0.1751
 6925W        W23772   4.065   5.623   1.888  0.1812  0.0227 -0.2648
 6926W        W23773  13.197  15.734   5.216  0.0531  0.2799  0.0535
 6927W        W23774   2.099  12.719  15.345 -0.0784  0.0644  0.0141
 6928W        W23775   2.702   7.068   2.629 -0.1943  0.0303 -0.0608
 6929W        W23776  10.835   0.918  11.630 -0.1589 -0.3856  0.1035
 6930W        W23777  11.890  10.376  15.755 -0.1434  0.1892 -0.0739
 6931W        W23778  12.974  15.916   3.139 -0.0775  0.0582 -0.4633
 6932W        W23779   5.365   9.605   1.952 -0.0170 -0.1508  0.1422
 6933W        W23780   1.717   1.116   0.641  0.4168 -0.1499 -0.1088
 6934W        W23781   5.940  11.337  13.079  0.0670  0.0531 -0.1321
 6935W        W23782  13.044   2.527   5.112 -0.1672  0.0738 -0.1960
 6936W        W23783   2.746  14.008   1.743  0.0218  0.1911 -0.1583
 6937W        W23784   9.383   9.105   0.682  0.0369  0.3613 -0.1486
 6938W        W23785  13.263  13.051   0.571 -0.3354  0.2710  0.1882
 6939W        W23786   2.222   7.561  13.703 -0.1520  0.0674 -0.1142
 6940W        W23787   6.258  11.572   4.483 -0.0111 -0.0003  0.2390
 6941W        W23788  12.157  12.869   2.584  0.4138 -0.2114  0.0698
 6942W        W23789  15.404   7.382  11.442  0.1152  0.1423  0.1257
 6943W        W23790  15.718   2.993  10.897 -0.2900  0.1789 -0.3083
 6944W        W23791   6.981   6.371   5.799  0.1623 -0.0277 -0.0969
 6945W        W23792  15.415   1.882  15.625 -0.2480 -0.2378  0.2589
 6946W        W23793   6.382  13.788  11.398  0.1968  0.3642 -0.4520
 6947W        W23794   6.760   7.786  11.941 -0.2268  0.2291  0.0179
 6948W        W23795  11.759  14.982   5.042  0.1112 -0.3593  0.2663
 6949W        W23796   5.583  18.050  14.024 -0.0455  0.0756 -0.0683
 6950W        W23797   9.124   0.217   4.340 -0.2354  0.1069  0.4087
 6951W        W23798  15.424   0.596   2.680  0.3331 -0.0403 -0.3048
 6952W        W23799   6.418   4.678   6.260 -0.3491  0.0138 -0.0438
 6953W        W23800   8.043  14.074   0.076  0.1161 -0.1370 -0.0232
 6954W        W23801   1.177   0.774  13.222  0.1029  0.3272  0.1070
 6955W        W23802   0.055   3.801  13.460 -0.0024  0.0185 -0.0332
 6956W        W23803   2.134   9.864   2.977 -0.0082 -0.3880  0.4630
 6957W        W23804   0.752   2.242  10.583  0.3323 -0.2031 -0.1612
 6958W        W23805   6.494   9.147  11.566 -0.3952 -0.0717  0.1537
 6959W        W23806   2.897   4.095  11.873  0.1168 -0.3562  0.0420
 6960W        W23807   7.711   1.500  13.781  0.0533 -0.2375  0.0286
 6961W        W23808   6.963  14.697  11.812 -0.1597  0.0202 -0.1524
 6962W        W23809  14.525  15.537   2.319 -0.1574 -0.2561 -0.1891
 6963W        W23810  13.966   2.373  11.814 -0.1133  0.2991  0.2315
 6964W        W23811  12.989  14.441   1.227 -0.0451  0.2585 -0.0888
 6965W        W23812  16.251   2.978   2.064  0.1878 -0.2978 -0.1407
 6966W        W23813   5.376  12.738   5.756 -0.0579 -0.0617 -0.3101
 6967W        W23814   6.522   1.787   0.569 -0.0382  0.2941 -0.2032
 6968W        W23815  15.430  14.676   0.643 -0.0874 -0.1210 -0.2121
 6969W        W23816  17.200   1.409  12.784  0.2584 -0.1637  0.0613
 6970W        W23817   4.376  15.824  11.896  0.4283  0.0281  0.2212
 6971W        W23818  18.180   1.926   1.973 -0.0750  0.0354  0.0298
 6972W        W23819  10.499  10.913  13.673  0.0754  0.2610  0.4834
 6973W        W23820   7.737   8.002   5.580  0.1943 -0.2416  0.0267
 6974W        W23821   4.256  13.072  14.980 -0.1848 -0.1247  0.0561
 6975W        W23822   7.356  10.255   3.682  0.0755  0.0621 -0.0614
 6976W        W23823   4.878   2.045  14.708 -0.1062 -0.3437  0.1978
 6977W        W23824  16.710   0.252   3.417  0.0601  0.0725  0.0428
 6978W        W23825   0.750  14.076   2.788  0.0939  0.2698  0.3794
 6979W        W23826  14.988  11.879  12.757  0.0497  0.0736 -0.0941
 6980W        W23827   8.275  17.503  12.821 -0.0813 -0.1158 -0.1510
 6981W        W23828  15.517  12.607  14.851  0.0159  0.2424  0.1697
 6982W        W23829   3.629   0.542  13.768 -0.2133 -0.2200 -0.2677
 6983W        W23830   3.542   7.770   2.413 -0.3710 -0.0570  0.2480
 6984W        W23831   9.216   9.292  13.352  0.1113 -0.0952 -0.1083
 6985W        W23832   9.247  14.073  14.851 -0.1405 -0.0724  0.1475
 6986W        W23833   8.536  13.074  13.679  0.0774  0.1323 -0.0322
 6987W        W23834  13.890  12.356   0.760 -0.1831  0.1154 -0.0257
 6988W        W23835  16.278   8.003  15.787  0.1686  0.0639 -0.0296
 6989W        W23836   7.688  12.314   0.133  0.0051  0.0713  0.0317
 6990W        W23837  10.645   5.243  14.381  0.0965  0.1410 -0.2645
 6991W        W23838  12.594   6.765  13.205 -0.0700  0.2880 -0.2174
 6992W        W23839  10.854  18.202   4.952 -0.1188 -0.6388 -0.3437
 6993W        W23840  18.178  13.525  16.024  0.0991 -0.0384  0.1029
 6994W        W23841  13.070   2.714   1.172  0.0617 -0.1090  0.0602
 6995W        W23842   4.542  12.677   1.388 -0.3982 -0.0729 -0.1915
 6996W        W23843  15.665  13.278   1.594 -0.3113 -0.1049  0.2714
 6997W        W23844  11.538  11.730  11.834 -0.1429 -0.0812 -0.0756
 6998W        W23845   1.789   2.738   1.476  0.2142 -0.1701 -0.2032
 6999W        W23846   6.528  15.934   4.430  0.0247  0.0052  0.2361
 7000W        W23847   0.482   4.567  13.704  0.0140 -0.1418 -0.4050
 7001W        W23848   1.671  17.682  14.840  0.3385 -0.3245  0.0793
 7002W        W23849  18.171  13.068   3.535  0.3945  0.0057 -0.0412
 7003W        W23850   6.151   2.228  11.357  0.0754  0.0331  0.1025
 7004W        W23851   1.433   5.909   2.219  0.0979  0.1217 -0.1620
 7005W        W23852  15.515  16.590   1.223  0.2008  0.0431 -0.0426
 7006W        W23853   7.236   8.674  16.114 -0.0586  0.0674 -0.3214
 7007W        W23854   0.432   9.811   0.926 -0.0541 -0.1597 -0.1915
 7008W        W23855   8.977  15.936   2.810 -0.2010  0.2333  0.0486
 7009W        W23856  18.211   6.117  11.794  0.1482  0.0699  0.2627
 7010W        W23857  12.381  18.204   1.825  0.2572  0.0487 -0.1519
 7011W        W23858   2.709   3.002   4.295  0.0866  0.2719 -0.0583
 7012W        W23859  15.145  11.922   2.826  0.1710  0.3051 -0.1602
 7013W        W23860   0.725   9.771  13.153  0.1421  0.1356 -0.1369
 7014W        W23861   2.770   4.923   0.494  0.1831 -0.0761 -0.0769
 7015W        W23862   2.785  17.126   2.464 -0.0994 -0.0407  0.2861
 7016W        W23863   7.533   8.072  12.915 -0.0552  0.0708 -0.3185
 7017W        W23864   4.125   7.437  15.446 -0.0007  0.1340  0.0170
 7018W        W23865   5.579  15.787   5.915 -0.1173 -0.2259  0.1357
 7019W        W23866   0.547   9.281  12.482 -0.4292 -0.2164  0.0131
 7020W        W23867  17.214   1.990  14.254 -0.1803  0.0295  0.1523
 7021W        W23868   3.088   7.695   1.626 -0.1172 -0.0286  0.0869
 7022W        W23869  16.921  10.491   3.021  0.0375 -0.0768  0.2601
 7023W        W23870  10.086   9.903  12.227  0.0791  0.2825  0.2482
 7024W        W23871  11.652   6.010  12.618  0.1195 -0.1236 -0.0232
 7025W        W23872  10.340   6.394   1.192 -0.1477 -0.2398 -0.1861
 7026W        W23873   3.066   7.138  14.401  0.1930 -0.3850 -0.1439
 7027W        W23874   3.131   8.207   0.096 -0.0705 -0.0349 -0.3263
 7028W        W23875  17.732  13.581   3.110  0.2684  0.2938 -0.4423
 7029W        W23876   2.988   7.270  12.910 -0.1446 -0.1565 -0.1363
 7030W        W23877   8.877  15.685   1.064 -0.0478 -0.2150 -0.2807
 7031W        W23878  17.805   8.485   5.341  0.2958 -0.0523  0.0569
 7032W        W23879   4.913  13.328   3.688 -0.0374  0.1970 -0.1093
 7033W        W23880   3.298  12.449   1.158 -0.0986  0.1188  0.2448
 7034W        W23881  14.516   7.577  13.697  0.1409  0.1874 -0.2842
 7035W        W23882   3.404   8.593   4.928 -0.1293  0.0976  0.3414
 7036W        W23883  13.369  15.961   5.636  0.2366 -0.2941  0.0217
 7037W        W23884   1.834  12.289   0.018 -0.0216 -0.0175 -0.1917
 7038W        W23885  18.085   6.031   2.516 -0.1780 -0.1804 -0.0681
 7039W        W23886  17.709   0.390   2.264  0.1900  0.3346  0.0629
 7040W        W23887   5.377  10.492   4.101 -0.0051  0.0766 -0.1637
 7041W        W23888   0.281  13.621  15.690  0.0294 -0.1420 -0.2597
 7042W        W23889  15.773  11.475   4.597  0.1960  0.0479  0.0260
 7043W        W23890   0.752  12.445  14.454  0.1587 -0.0333 -0.0182
 7044W        W23891   4.880   2.364   5.539 -0.3373 -0.1590 -0.0048
 7045W        W23892   2.768  12.528   3.705  0.2096  0.0555  0.2595
 7046W        W23893  10.360  15.745   0.452 -0.1227  0.0244  0.0905
 7047W        W23894   2.547  11.673   3.286 -0.0659 -0.0944  0.1653
 7048W        W23895   4.650  17.783   0.345  0.1493 -0.0992 -0.2573
 7049W        W23896   9.500  11.361  12.012  0.0274  0.2335 -0.0946
 7050W        W23897   7.609   5.576  11.868 -0.2753 -0.3014 -0.4824
 7051W        W23898   1.801   8.665   1.582  0.1949 -0.0333  0.0494
 7052W        W23899  14.311  12.557  14.033  0.0324  0.3997 -0.0163
 7053W        W23900  15.780  15.086   2.213 -0.0729  0.0869 -0.0321
 7054W        W23901  10.125  16.608  11.906  0.0453 -0.1944 -0.2901
 7055W        W23902   4.314  10.297   2.681 -0.3417 -0.1389  0.0425
 7056W        W23903  12.053  17.167  14.815 -0.0455  0.2867 -0.1285
 7057W        W23904   7.039   7.607  13.052  0.2038 -0.0275  0.1175
 7058W        W23905  16.691   6.840   1.941  0.0977  0.0549 -0.0346
 7059W        W23906  11.854  12.987   4.266 -0.0373 -0.3677 -0.0518
 7060W        W23907   7.114   0.058  12.891 -0.0047  0.0217 -0.1506
 7061W        W23908   2.055   0.566   2.826  0.4106 -0.2637  0.0371
 7062W        W23909  15.431   0.309   0.620 -0.1282 -0.0793 -0.4109
 7063W        W23910   7.321  13.048  11.565  0.0390  0.2065  0.0756
 7064W        W23911   6.234  12.099   3.040 -0.1824  0.0006  0.0761
 7065W        W23912   0.099  12.253   3.459 -0.0506 -0.0492  0.2265
 7066W        W23913   0.514   6.792   3.262 -0.0169 -0.2682 -0.1556
 7067W        W23914   6.165   6.670  12.543  0.0867  0.1126  0.1187
 7068W        W23915  10.406  10.187   0.574  0.2470 -0.1003  0.1418
 7069W        W23916  13.355  12.011  11.278 -0.0553 -0.5374 -0.1588
 7070W        W23917  13.373   9.341  11.832 -0.1590 -0.0911  0.2896
 7071W        W23918   2.096   4.253   0.816 -0.1010  0.2370 -0.2624
 7072W        W23919   5.009  15.023   0.646 -0.3075  0.1005 -0.0128
 7073W        W23920   6.083   5.838   1.474 -0.1887  0.3740  0.1409
 7074W        W23921  12.263   2.752  13.717 -0.0141  0.0080 -0.0937
 7075W        W23922   9.933  14.762   1.965 -0.0479  0.1336  0.4163
 7076W        W23923   7.050  14.333  11.501  0.2459  0.1486  0.0678
 7077W        W23924  16.396  16.728   3.533 -0.2264  0.0608  0.3873
 7078W        W23925  16.951   6.297   0.014  0.0695  0.0890  0.1562
 7079W        W23926  11.761   8.418   1.045 -0.2044  0.0074 -0.0112
 7080W        W23927   3.581   7.805   1.856 -0.0109  0.3330 -0.4304
 7081W        W23928   0.637  16.522  12.098  0.1206 -0.0164 -0.0260
 7082W        W23929   7.393  13.252   1.622  0.4128  0.1291 -0.1621
 7083W        W23930   6.670   1.092   5.213 -0.2871 -0.3106 -0.0697
 7084W        W23931  13.297   1.624   1.748 -0.0292 -0.0472 -0.1989
 7085W        W23932   8.673   8.405  12.815 -0.0362 -0.0872 -0.1100
 7086W        W23933   6.220   9.829   3.641  0.1787 -0.0829 -0.1296
 7087W        W23934  13.456   0.700  16.003 -0.0194 -0.2948 -0.1296
 7088W        W23935   3.100   5.172   5.088 -0.1113 -0.0717  0.1350
 7089W        W23936   4.285   6.153   1.766  0.0505  0.0420  0.0035
 7090W        W23937  12.906   8.455   2.704  0.3305 -0.2696 -0.1104
 7091W        W23938  17.139   5.663  12.367  0.1701 -0.0307 -0.2133
 7092W        W23939   3.926   9.822  13.104  0.2682 -0.1721 -0.0715
 7093W        W23940   9.312   1.069  11.869 -0.2112  0.1625 -0.2181
 7094W        W23941   7.131  10.488  13.376  0.3302  0.2725 -0.2287
 7095W        W23942   8.587  14.225   5.357 -0.0399 -0.0997 -0.2520
 7096W        W23943  17.709   3.823   0.986 -0.0724 -0.0470  0.0811
 7097W        W23944  17.414   9.444   5.179 -0.1173 -0.0772  0.2854
 7098W        W23945   6.162  14.840   3.718 -0.4327 -0.3087 -0.2075
 7099W        W23946  16.585  16.284  14.941 -0.0026  0.1070  0.0968
 7100W        W23947   0.308   0.242   0.514  0.0543 -0.0793 -0.2006
 7101W        W23948   2.307  11.489   4.693 -0.1286 -0.1043 -0.3260
 7102W        W23949   2.228   0.292   0.592 -0.3610  0.2598 -0.0253
 7103W        W23950   6.880   1.127  11.877 -0.1256  0.1597  0.1788
 7104W        W23951   6.987   8.191   4.270 -0.0442 -0.2072 -0.2139
 7105W        W23952  10.561   7.403   1.296 -0.2650  0.0593 -0.2484
 7106W        W23953   9.246  16.120  15.359 -0.2739  0.2647  0.0741
 7107W        W23954  17.122  14.548   1.923  0.0813 -0.1369 -0.2346
 7108W        W23955   6.765   3.760  14.745 -0.0189  0.1415  0.0965
 7109W        W23956   2.530   4.368   5.198 -0.2722  0.0005 -0.1608
 7110W        W23957   6.526   3.255  11.977 -0.3552  0.0075 -0.0141
 7111W        W23958   8.045  14.763  14.908 -0.0978  0.1365  0.1903
 7112W        W23959   3.224  13.908  14.121  0.2665 -0.0133  0.0350
 7113W        W23960   4.702   7.371   1.054  0.1336  0.1779  0.2464
 7114W        W23961   1.681  12.359   3.871  0.1420 -0.4222  0.0056
 7115W        W23962   5.600  11.972   4.776 -0.4232 -0.0810  0.0581
 7116W        W23963   0.422  14.591  12.680 -0.0019 -0.3150  0.0662
 7117W        W23964   8.102   7.243   4.414  0.1958 -0.2253 -0.4557
 7118W        W23965   8.951  10.633   4.148 -0.4410 -0.3005 -0.0030
 7119W        W23966   0.027  17.231   5.378  0.1890  0.0571 -0.0045
 7120W        W23967   1.591  10.708   5.546  0.1876 -0.1195  0.2033
 7121W        W23968   0.709  12.120   4.473 -0.2860 -0.1534  0.0611
 7122W        W23969  15.909  16.360   0.905 -0.1329  0.1018  0.1572
 7123W        W23970  16.377  16.845   0.263  0.0872  0.1592 -0.3282
 7124W        W23971  12.553  12.450   4.800 -0.0247  0.3528 -0.0599
 7125W        W23972  15.624   2.376   5.569 -0.0355 -0.0829 -0.4415
 7126W        W23973  16.651  11.323   2.908  0.1336  0.0648  0.2524
 7127W        W23974   3.812   8.636  14.419 -0.0470 -0.1284 -0.4851
 7128W        W23975   5.566   0.371  12.177 -0.0074  0.1246  0.0367
 7129W        W23976   8.096  14.044  13.606  0.4607  0.1106 -0.0403
 7130W        W23977   5.863   6.124   0.635  0.1039  0.2319 -0.2262
 7131W        W23978   6.938  10.617   6.452  0.0169  0.2066  0.0994
 7132W        W23979  14.357  11.975  15.399 -0.2621  0.0676  0.0949
 7133W        W23980   9.856   6.307  12.401 -0.0907 -0.0329 -0.1694
 7134W        W23981   5.032   7.667   0.327 -0.1766  0.1457  0.0715
 7135W        W23982   6.877  13.185   3.233  0.0011  0.1180  0.0666
 7136W        W23983   2.445  18.270  12.391  0.1111 -0.1852 -0.1195
 7137W        W23984  11.068   8.730  11.008 -0.0777  0.1245 -0.0275
 7138W        W23985   8.866  15.563  12.891 -0.0570 -0.1590 -0.2945
 7139W        W23986   6.666   9.278  15.088  0.1404 -0.1354  0.3223
 7140W        W23987  11.654  12.872  14.576 -0.2168  0.1585  0.2116
 7141W        W23988   3.788   5.387   4.038 -0.0802  0.1303  0.2032
 7142W        W23989   7.629   2.532  11.183 -0.3640 -0.2075 -0.0100
 7143W        W23990  14.087  14.966  15.432 -0.1750 -0.0898  0.1954
 7144W        W23991  12.564   3.860  16.006 -0.0505 -0.2290  0.2242
 7145W        W23992   4.238   9.956  13.457  0.0501 -0.3267  0.0519
 7146W        W23993  18.157   9.665   0.424 -0.1060  0.2389 -0.1099
 7147W        W23994  10.435   8.061  15.544 -0.0739  0.3018  0.0638
 7148W        W23995   9.386   9.273  14.862  0.2761 -0.0363  0.0259
 7149W        W23996   6.483  15.486   3.229  0.1735 -0.1675 -0.2031
 7150W        W23997   2.602  16.602   4.518 -0.0917  0.0119 -0.0833
 7151W        W23998   9.729   6.999   0.025  0.0444  0.0142 -0.1439
 7152W        W23999  11.485  16.536  14.490  0.1107 -0.2896  0.1040
 7153W        W24000   9.150  17.386   4.859 -0.0774  0.1795 -0.1958
 7154W        W24001   2.348  10.623  14.871  0.2578 -0.1143 -0.4621
 7155W        W24002  14.936   0.812   1.607 -0.3818  0.0274  0.1251
 7156W        W24003   6.529   9.069  13.478 -0.0214  0.2619  0.2496
 7157W        W24004  10.892  17.742   2.660 -0.1123  0.1298  0.1928
 7158W        W24005  17.772   6.695   5.645 -0.0816  0.0080 -0.1238
 7159W        W24006   2.945   4.403   3.656  0.0626 -0.1671 -0.0887
 7160W        W24007  11.862   8.548   1.967  0.4138 -0.1331  0.2130
 7161W        W24008  14.105  14.984   5.876  0.1128  0.0275 -0.2623
 7162W        W24009   9.418  18.068   4.488 -0.2851 -0.0601 -0.0346
 7163W        W24010  14.204  15.691   5.225  0.1028  0.0227 -0.1317
 7164W        W24011   9.111  14.514  15.515 -0.1673 -0.2556 -0.0652
 7165W        W24012   6.566   6.886   3.940  0.0303 -0.0694 -0.1677
 7166W        W24013   9.156   6.207  13.464 -0.2628 -0.3470 -0.2292
 7167W        W24014  11.803  12.445   4.078  0.0978 -0.1165 -0.1257
 7168W        W24015   2.917  16.539  15.157  0.2236 -0.1735 -0.0507
 7169W        W24016   3.557  15.510  14.537  0.0545  0.0126 -0.0117
 7170W        W24017   2.239  12.667  12.273  0.1512 -0.2057  0.2246
 7171W        W24018  10.976  17.316   3.923 -0.0170 -0.0955  0.0235
 7172W        W24019   3.893   0.150  13.551  0.1800 -0.0912  0.0800
 7173W        W24020   5.661  16.605  14.283  0.0325  0.0537 -0.2643
 7174W        W24021  16.024  12.078   2.921 -0.0901  0.1266 -0.1089
 7175W        W24022   2.790  11.296   0.785  0.1948  0.0318  0.2220
 7176W        W24023  16.079   8.708   3.447 -0.2620 -0.3486  0.1831
 7177W        W24024  12.980   5.518   1.906 -0.1867  0.0838  0.0620
 7178W        W24025   7.056   4.314   2.004 -0.1681 -0.1432 -0.0311
 7179W        W24026  16.615   7.501  11.700 -0.0756 -0.0244  0.0474
 7180W        W24027   3.218  10.123  14.044 -0.2040  0.0842  0.2603
 7181W        W24028   9.472  16.131   4.461  0.2982 -0.1706  0.2272
 7182W        W24029   9.842  11.610   1.799 -0.0352  0.1828  0.1480
 7183W        W24030  11.017   5.503   5.047 -0.3213 -0.0604  0.0571
 7184W        W24031  12.068   4.213  10.967  0.1070 -0.1612  0.0438
 7185W        W24032   0.664   8.764   3.689 -0.2494 -0.1165  0.1345
 7186W        W24033   5.419  10.415   2.946 -0.0696 -0.2658  0.2200
 7187W        W24034  17.597   4.676   3.986 -0.0269  0.0341  0.4877
 7188W        W24035  18.197   6.089  16.185  0.1135  0.0117  0.0033
 7189W        W24036   3.847   2.282  15.285  0.0211 -0.2249 -0.1563
 7190W        W24037   7.432  11.049  15.612  0.3673  0.0077  0.1040
 7191W        W24038   0.514  11.602  16.073  0.3240  0.0681  0.1200
 7192W        W24039  11.169  13.076   5.886  0.2439  0.0009  0.0168
 7193W        W24040   5.214   0.217   5.177  0.1204 -0.1358 -0.0726
 7194W        W24041   7.769   7.844  15.989  0.0606 -0.0791 -0.0835
 7195W        W24042   8.629  13.461   0.005  0.0537 -0.1838  0.0004
 7196W        W24043   4.544   6.006  13.592 -0.0587  0.0586 -0.0861
 7197W        W24044  14.166   0.433  13.931 -0.0488  0.1554  0.0625
 7198W        W24045   5.618   8.421   5.548 -0.1236  0.0764 -0.1255
 7199W        W24046  17.023   7.997  14.331 -0.0913 -0.2487  0.3457
 7200W        W24047   2.222   5.197   5.126  0.1949 -0.0718  0.1128
 7201W        W24048  13.819  15.115  13.166 -0.0997 -0.1011  0.0511
 7202W        W24049   3.470   2.799   2.614 -0.0149  0.0871  0.1594
 7203W        W24050  10.458   1.101   2.362 -0.1815  0.2674 -0.5362
 7204W        W24051  13.432   3.630  11.570 -0.0290  0.1646 -0.2851
 7205W        W24052   4.603   6.516   1.683 -0.2148 -0.0177 -0.2067
 7206W        W24053  18.166   7.521  12.740 -0.2548 -0.1451  0.3758
 7207W        W24054   3.629   8.685  12.451 -0.0521 -0.0711  0.5834
 7208W        W24055  13.091  14.270   1.806 -0.0467 -0.1883 -0.1535
 7209W        W24056  17.361  17.844   0.416 -0.2812 -0.1944  0.2200
 7210W        W24057   4.692  18.288  11.374  0.1813  0.0720  0.2528
 7211W        W24058   6.523  17.806  13.901 -0.2178 -0.1059  0.0638
 7212W        W24059   8.773  10.725  13.217  0.1681 -0.0669  0.1289
 7213W        W24060  10.570  13.744  15.844  0.0729 -0.2302  0.0622
 7214W        W24061  13.944   2.481  15.508 -0.0041 -0.3776  0.1491
 7215W        W24062   9.399   5.850  12.119  0.1401  0.0908  0.0302
 7216W        W24063  17.808  10.481  13.629 -0.0299  0.0918  0.3301
 7217W        W24064   9.386  14.671   4.174 -0.2071  0.2280 -0.1120
 7218W        W24065  12.854  12.899   1.369 -0.1061  0.5176  0.0687
 7219W        W24066   3.834   6.720   1.121  0.0514 -0.0836  0.1301
 7220W        W24067   4.206  18.321  15.149  0.1182  0.0888  0.0034
 7221W        W24068  12.481  16.920   4.475 -0.0374  0.1675 -0.0796
 7222W        W24069  14.967   7.819  13.444  0.2226 -0.2687 -0.1187
 7223W        W24070  14.811  12.236  13.024 -0.0407  0.0615 -0.0727
 7224W        W24071  10.880  17.999   2.177  0.0228 -0.0095 -0.3150
 7225W        W24072   2.599   8.047  15.432 -0.1984 -0.0921  0.3638
 7226W        W24073   9.109  12.481  11.421  0.1631 -0.0020 -0.0820
 7227W        W24074   2.208  14.759  15.774  0.1048  0.1956 -0.1605
 7228W        W24075  10.231   8.185  11.897  0.0435  0.0067  0.0032
 7229W        W24076   1.136   9.408  13.874 -0.0260  0.0585 -0.0155
 7230W        W24077   9.550   4.407   2.234  0.0715 -0.0364  0.1573
 7231W        W24078   0.003   5.570   1.621  0.0040  0.0578 -0.2155
 7232W        W24079   3.501  16.016  12.190  0.2996 -0.1814  0.0454
 7233W        W24080  12.066  15.819  13.415 -0.1128 -0.4071 -0.2189
 7234W        W24081   4.550   9.157   4.120 -0.0522  0.0494 -0.0587
 7235W        W24082  14.484   6.288   5.365 -0.0529  0.1094 -0.1481
 7236W        W24083  16.054  16.387   2.363 -0.0560  0.1721 -0.0741
 7237W        W24084  15.970   8.871   0.029 -0.0427  0.1399 -0.1464
 7238W        W24085   4.848  12.960  12.381 -0.0165  0.0871  0.2027
 7239W        W24086   5.477   3.160   0.075 -0.2752  0.0015 -0.1754
 7240W        W24087  10.162  16.917  12.387 -0.0729 -0.1601 -0.0282
 7241W        W24088   3.637   8.258   0.025 -0.0865  0.4939 -0.0246
 7242W        W24089   2.623  10.000   3.659 -0.1093  0.2476 -0.1284
 7243W        W24090  15.495  13.118   3.126 -0.1981 -0.1368 -0.2364
 7244W        W24091  11.053   0.515  12.862  0.1930  0.0896  0.0607
 7245W        W24092   6.118   4.159  12.841 -0.2632  0.3544 -0.0315
 7246W        W24093   9.456   1.522  14.675  0.0116  0.0798 -0.1303
 7247W        W24094   0.630   5.267  12.599  0.3317 -0.0693 -0.2728
 7248W        W24095  16.250  14.842  14.549  0.2346  0.0792 -0.2187
 7249W        W24096  11.798  17.012   1.575 -0.0084 -0.0993 -0.1522
 7250W        W24097  17.221   5.148   4.732  0.0264  0.1554 -0.1425
 7251W        W24098   9.746  16.381   0.104  0.1986  0.0665 -0.1522
 7252W        W24099  14.438  16.365   1.956  0.1214 -0.0418  0.1179
 7253W        W24100  15.077  16.728  16.060 -0.0280  0.1270 -0.1018
 7254W        W24101  17.759   6.784  13.364  0.0829  0.2196 -0.0594
 7255W        W24102  14.245   0.425  13.401  0.2278 -0.1094  0.0845
 7256W        W24103  13.085   8.700  12.401 -0.2844 -0.3001  0.1166
 7257W        W24104   5.635   2.849   5.434 -0.1157  0.1240 -0.0686
 7258W        W24105   8.746  14.406   1.145 -0.0398 -0.1145  0.0066
 7259W        W24106   2.645   2.525   1.432  0.0126  0.2074 -0.1409
 7260W        W24107  11.500   9.137   5.027 -0.0534 -0.1529 -0.4753
 7261W        W24108  11.770   5.388   2.869  0.0502  0.2986  0.3456
 7262W        W24109  17.784  10.183   1.220 -0.1626 -0.0673 -0.0155
 7263W        W24110   9.128   0.127  14.787 -0.2322  0.0575 -0.1766
 7264W        W24111  15.346   7.225  14.848  0.0791 -0.1142  0.0887
 7265W        W24112  15.455   4.009  11.824 -0.1206 -0.1803 -0.2656
 7266W        W24113  13.224   3.597  11.129  0.0824  0.1615  0.2664
 7267W        W24114  16.765   4.148  12.109  0.1626  0.1515 -0.1906
 7268W        W24115   1.373   1.365  15.449  0.0138 -0.1317 -0.0927
 7269W        W24116  13.927   3.248   1.153  0.0370  0.1119 -0.2915
 7270W        W24117  14.921   2.068  15.615 -0.2042 -0.4531 -0.1332
 7271W        W24118   0.298   1.268  13.888  0.2411  0.0809 -0.0508
 7272W        W24119  13.043  17.036   2.982  0.1844 -0.1977 -0.0516
 7273W        W24120  12.886   6.511  13.522  0.1657 -0.2138  0.1392
 7274W        W24121   2.429   6.013   4.016  0.0437  0.1185  0.2978
 7275W        W24122  11.361  12.276   3.822 -0.0662  0.3955  0.2109
 7276W        W24123  14.180   4.214  13.422  0.0843  0.1961 -0.0618
 7277W        W24124  16.603   4.903   3.823 -0.1182 -0.0500 -0.3305
 7278W        W24125   9.284  16.622  15.188  0.1185  0.1446 -0.0845
 7279W        W24126   4.300  14.729  13.098 -0.0589 -0.1492  0.2894
 7280W        W24127   3.032   2.382  15.200 -0.1905 -0.1908  0.2638
 7281W        W24128   2.886   7.308  12.394  0.0888 -0.0122  0.1387
 7282W        W24129   4.257   3.125  15.843 -0.0854  0.2340  0.1622
 7283W        W24130   1.220   1.671   2.799  0.0322  0.0549 -0.0502
 7284W        W24131   1.419   6.471   1.231 -0.0551 -0.0052  0.0177
 7285W        W24132  17.329   0.493   0.215 -0.1795 -0.1330  0.0521
 7286W        W24133   9.598  13.750  11.627  0.3206  0.1084  0.0187
 7287W        W24134  11.963   6.678   3.519  0.0499 -0.1129 -0.0550
 7288W        W24135   6.115   3.877  11.921  0.1279 -0.0866 -0.1146
 7289W        W24136  11.477  17.783   2.473 -0.0719 -0.1072 -0.3141
 7290W        W24137   6.293  12.547   0.866 -0.3952  0.2394 -0.1430
 7291W        W24138  10.389  12.296   3.547  0.1843 -0.1040  0.0396
 7292W        W24139  14.770   0.405   5.464  0.5025  0.2911  0.1341
 7293W        W24140  14.231   2.714  15.815 -0.3314  0.0354 -0.2384
 7294W        W24141   7.298   9.467  11.222 -0.1658  0.0015 -0.1492
 7295W        W24142  12.965  16.277   2.699 -0.2154  0.2381  0.0214
 7296W        W24143   8.041   4.497   1.446 -0.1879 -0.1123  0.2721
 7297W        W24144   7.791  11.561   3.823 -0.2709  0.0536  0.0552
 7298W        W24145   3.231  13.637  15.961 -0.1825  0.1941 -0.1215
 7299W        W24146   3.275   7.722   2.862  0.2052  0.0627  0.1597
 7300W        W24147  10.899  13.100  15.663  0.1467 -0.3092 -0.1718
 7301W        W24148  13.854   9.501   1.323 -0.0144 -0.0349  0.0153
 7302W        W24149   6.513   9.781   6.064 -0.2325  0.1002  0.0094
 7303W        W24150   6.080   5.339   0.819  0.0630  0.2585  0.1235
 7304W        W24151   0.099   3.183  11.253  0.1141 -0.0023  0.1136
 7305W        W24152  13.928   2.672  12.276  0.2697  0.0770 -0.1076
 7306W        W24153  11.032   9.899  12.736  0.0076  0.0192 -0.0279
 7307W        W24154  13.715  17.089   0.487 -0.1816 -0.0981  0.0099
 7308W        W24155   7.374   8.574  13.029  0.2751  0.3752  0.2649
 7309W        W24156   5.261   8.121   0.261 -0.3840 -0.2791  0.0686
 7310W        W24157   9.253  16.647   4.483 -0.1758  0.0346 -0.0702
 7311W        W24158   5.205   0.131  13.857 -0.1162 -0.0162  0.1045
 7312W        W24159   1.943   6.072  12.842 -0.0520  0.0632 -0.3009
 7313W        W24160   0.572  12.286  11.963  0.2499 -0.1464 -0.0445
 7314W        W24161   9.478   2.932   3.270  0.2242 -0.0595 -0.1860
 7315W        W24162   3.721  15.542   4.386  0.3497 -0.2395  0.1308
 7316W        W24163  10.941   7.084   3.422  0.0247  0.0807  0.1249
 7317W        W24164  10.980   4.294   4.962  0.1167  0.2112  0.1621
 7318W        W24165   2.744   3.088  12.864 -0.1238  0.1625  0.0276
 7319W        W24166   5.645  17.134  13.904 -0.0570 -0.1334  0.1025
 7320W        W24167   0.869  11.807  14.154  0.1522 -0.0916 -0.2182
 7321W        W24168   9.517  14.996   6.507 -0.0616 -0.0103 -0.0459
 7322W        W24169  17.741   6.035   1.686  0.0617 -0.1685  0.1919
 7323W        W24170   7.324  13.836  15.470  0.1786 -0.1019 -0.2412
 7324W        W24171   9.997   1.643   4.178  0.1928 -0.1353  0.0513
 7325W        W24172   9.528  12.317   3.883 -0.2139 -0.0333  0.0618
 7326W        W24173   8.552  13.999  14.029 -0.1712  0.1980 -0.1052
 7327W        W24174  12.979  18.139  12.919  0.0763 -0.4522 -0.0760
 7328W        W24175  16.514  15.215   3.074 -0.0196  0.1986  0.0093
 7329W        W24176   5.033   6.445   2.437  0.0792 -0.3312 -0.0114
 7330W        W24177   1.070   0.218  13.991 -0.1401  0.0427 -0.1776
 7331W        W24178  17.130  17.820   3.112  0.0740 -0.0671  0.0239
 7332W        W24179   1.801  13.551   5.419 -0.0977  0.1551  0.4037
 7333W        W24180  15.634   6.939   1.988 -0.3675  0.1208  0.0751
 7334W        W24181  17.299   2.722  13.052  0.1727  0.3302  0.0016
 7335W        W24182  14.843  14.286  12.991  0.0369  0.0719  0.0934
 7336W        W24183  14.604   5.989  13.814  0.4916  0.0086 -0.0135
 7337W        W24184   6.156   7.445  11.980 -0.1682 -0.0009 -0.1291
 7338W        W24185   3.194  14.983   4.752  0.2214  0.0781  0.0770
 7339W        W24186  16.409   6.256  13.961 -0.1892  0.1973 -0.1655
 7340W        W24187   9.157  10.261  12.610 -0.3848  0.0760  0.4137
 7341W        W24188   2.811   8.699   3.732  0.0574 -0.0207  0.0132
 7342W        W24189  17.160   0.272   2.330  0.0983 -0.0995 -0.0356
 7343W        W24190  12.541   7.441  12.671 -0.0462  0.1267  0.1344
 7344W        W24191   7.642   5.525   0.583  0.1936  0.1423 -0.1720
 7345W        W24192   1.610   3.235   5.389 -0.0131 -0.0061  0.0604
 7346W        W24193  15.268   7.440  12.157 -0.3009 -0.2743  0.0882
 7347W        W24194   7.100   7.788   1.647 -0.3074  0.0240 -0.1705
 7348W        W24195  11.971   8.737   2.386 -0.4348 -0.0063 -0.2353
 7349W        W24196  16.971   4.338   0.333 -0.1584 -0.1726 -0.0546
 7350W        W24197  15.206   2.193  12.569  0.2025 -0.0592  0.1358
 7351W        W24198  10.093  17.861   1.229 -0.2743 -0.2234 -0.2618
 7352W        W24199  12.085  10.667   2.390 -0.0228 -0.0319 -0.3178
 7353W        W24200   0.049   8.963   0.927  0.3146 -0.0470 -0.3499
 7354W        W24201   6.296  16.906   2.233  0.1842 -0.0206 -0.4001
 7355W        W24202   4.499   5.662   4.417 -0.0602  0.0699  0.0842
 7356W        W24203   7.596   4.776   5.307 -0.0020  0.1252  0.0741
 7357W        W24204  16.952   7.887  13.839 -0.0331 -0.0696  0.0392
 7358W        W24205   9.335   2.496   5.163  0.1973 -0.2916  0.1578
 7359W        W24206   9.861   1.486  15.948 -0.2774 -0.1464 -0.0833
 7360W        W24207   9.148   5.625   3.994  0.0404 -0.1010 -0.1035
 7361W        W24208   1.930  17.316   3.508  0.3104 -0.0366 -0.0439
 7362W        W24209   8.743   0.321  11.907  0.1446 -0.0833 -0.1047
 7363W        W24210   4.646   0.308   0.892 -0.1001  0.1033  0.3003
 7364W        W24211   8.280  11.578  15.981  0.0906 -0.3423  0.0247
 7365W        W24212  15.003  13.209   0.636 -0.0244 -0.2233  0.0160
 7366W        W24213   9.170  13.289   1.453 -0.0294  0.0929 -0.0920
 7367W        W24214  11.291  17.033  13.530 -0.2123  0.0892  0.1640
 7368W        W24215  13.488  14.611   5.225  0.2612 -0.0725  0.3093
 7369W        W24216  12.109  11.378   5.450  0.1625  0.1087  0.0201
 7370W        W24217  10.152  10.295   1.022  0.0698  0.0592 -0.1228
 7371W        W24218   8.178  10.652   5.555  0.2423  0.0630 -0.1388
 7372W        W24219  16.180   3.495  14.906 -0.2407 -0.1872  0.1769
 7373W        W24220   9.705   2.333  15.549  0.1042 -0.0648  0.3595
 7374W        W24221  17.236  13.614   3.249 -0.1364 -0.1288 -0.1442
 7375W        W24222   1.914  11.083  13.700  0.1092 -0.0257  0.4587
 7376W        W24223   2.091  17.778   3.627  0.1620  0.3075  0.1084
 7377W        W24224   7.067   1.829   4.676 -0.1370  0.0329 -0.0704
 7378W        W24225   1.518  12.003  12.921 -0.2988  0.0518 -0.0377
 7379W        W24226  17.189  18.321   0.279 -0.1232 -0.0488  0.1490
 7380W        W24227   2.030   8.662  14.830 -0.2546  0.2516  0.1551
 7381W        W24228   7.392  11.987   5.264 -0.0280  0.2668 -0.1421
 7382W        W24229   7.592   3.497  12.898  0.1542 -0.0148  0.2499
 7383W        W24230   0.487   1.556   3.226  0.1813 -0.3494 -0.0072
 7384W        W24231   8.865   2.423   0.072 -0.1822  0.1457  0.2273
 7385W        W24232   6.822   9.105   1.958  0.0448 -0.1702 -0.4845
 7386W        W24233   8.487  11.407  14.129  0.0456  0.2121 -0.2643
 7387W        W24234  10.434  10.362  13.567  0.2918  0.3524 -0.1387
 7388W        W24235  15.599   3.727  14.869  0.0640  0.1435  0.1436
 7389W        W24236   7.199   5.639   1.507 -0.3042  0.0896  0.0070
 7390W        W24237   7.914   6.330   2.787  0.0098  0.3339  0.2761
 7391W        W24238   1.597  13.969   4.606  0.0142  0.0467 -0.1431
 7392W        W24239   7.396  14.457   3.004 -0.1316  0.0351  0.1061
 7393W        W24240   3.279   5.437   1.169  0.0119  0.1108  0.1296
 7394W        W24241   7.019   5.897  15.662  0.0961 -0.2603 -0.0155
 7395W        W24242   9.712  10.555  16.172  0.3999  0.0970  0.0304
 7396W        W24243   5.591  14.164   3.278 -0.1956 -0.1854  0.1445
 7397W        W24244   0.991   3.251  13.604 -0.0799 -0.1535  0.0130
 7398W        W24245  14.270   3.035  12.191  0.3149  0.0019 -0.4405
 7399W        W24246   8.676  17.854  13.844  0.1717 -0.0764  0.1004
 7400W        W24247  11.803  12.368  14.668 -0.0029  0.0857 -0.1489
 7401W        W24248  12.197  16.398   3.287  0.0673  0.0093 -0.2802
 7402W        W24249   8.250  17.434   1.414 -0.2498 -0.0550 -0.1344
 7403W        W24250   7.528   7.552  13.185  0.2310 -0.2047 -0.1622
 7404W        W24251   6.295  15.430   4.510 -0.0065  0.1602 -0.2047
 7405W        W24252  17.854  17.296   5.326  0.1468 -0.2209  0.1101
 7406W        W24253  12.715  10.728  12.637  0.0071 -0.1091  0.0426
 7407W        W24254  15.609   7.315   2.602  0.1796  0.0978 -0.0762
 7408W        W24255  16.162  14.729   3.045  0.0390 -0.2021  0.1121
 7409W        W24256   2.478   9.388   5.327  0.2504 -0.0367  0.0523
 7410W        W24257  11.435  11.011   0.750 -0.0205 -0.0673 -0.1104
 7411W        W24258  16.052  12.107  15.955  0.1025  0.1767 -0.1750
 7412W        W24259  11.002  16.527  14.382 -0.1933  0.1015 -0.1925
 7413W        W24260  10.999  13.193   0.473 -0.1910 -0.5034 -0.1115
 7414W        W24261   6.164   5.814   0.898 -0.0945 -0.1205 -0.2753
 7415W        W24262   6.506   4.700  11.754  0.0638  0.2078  0.0491
 7416W        W24263  11.573  15.238  16.094  0.1284 -0.0543  0.3066
 7417W        W24264  10.992  10.131  15.696 -0.2725 -0.3971  0.0889
 7418W        W24265   6.797   2.616   1.821 -0.1167  0.0210  0.2215
 7419W        W24266  17.315   4.173  13.523  0.0688  0.0185  0.0007
 7420W        W24267   1.366   9.418  12.541  0.0882  0.1340  0.4399
 7421W        W24268   5.459  16.207  15.474  0.3475 -0.0026 -0.0743
 7422W        W24269   0.581  16.134  13.922 -0.2201  0.3426 -0.3503
 7423W        W24270   7.168   6.991   1.455  0.1191 -0.0171 -0.0761
 7424W        W24271  17.265   2.247   0.292 -0.1207  0.0080 -0.2037
 7425W        W24272   8.530   4.565  16.067  0.3828  0.0438 -0.0647
 7426W        W24273  13.911   3.575  16.015 -0.1399  0.1216 -0.0654
 7427W        W24274  13.773   5.100  14.777 -0.1719  0.1255  0.2375
 7428W        W24275   5.962   4.187  13.860  0.3077 -0.1926 -0.1755
 7429W        W24276   5.510   3.821   0.926  0.2204 -0.1363 -0.0294
 7430W        W24277  11.440  14.627  12.836  0.0667  0.2496  0.2232
 7431W        W24278  17.948   5.715  12.657  0.0180  0.2648  0.3416
 7432W        W24279  13.762  11.597  12.125  0.0523 -0.0158 -0.0648
 7433W        W24280   8.067  12.594   1.952  0.1486  0.0299  0.0247
 7434W        W24281   0.055   0.438  16.063  0.1434  0.0049  0.1064
 7435W        W24282   8.782  18.055   1.352 -0.3144 -0.0273  0.0244
 7436W        W24283   1.984  17.085   1.219  0.3147 -0.3456  0.0651
 7437W        W24284  11.265  15.901   3.998  0.0088  0.1806 -0.1064
 7438W        W24285  13.806   3.788   1.244  0.1083 -0.1295 -0.0625
 7439W        W24286  10.304   4.701   2.854 -0.0440  0.0422 -0.0917
 7440W        W24287   7.790   3.618   2.118  0.0358  0.0575  0.0501
 7441W        W24288   4.211  17.917  14.319 -0.0448 -0.0197 -0.0152
 7442W        W24289   8.895  12.829  15.477  0.0962  0.1937  0.1907
 7443W        W24290   9.676   7.424   1.489 -0.1656  0.1635 -0.3198
 7444W        W24291   2.894  15.014  14.123 -0.0764 -0.0667  0.2195
 7445W        W24292  13.529   5.020   1.589  0.2087 -0.0145 -0.0096
 7446W        W24293   1.374   8.520   5.281  0.1258  0.1266 -0.2702
 7447W        W24294   8.166  15.559   2.327  0.2982 -0.3295  0.0749
 7448W        W24295  12.540  10.697   2.732 -0.1287 -0.2186 -0.2355
 7449W        W24296  14.445  12.059  12.751 -0.3138  0.0805  0.1967
 7450W        W24297   3.312  15.858   0.246  0.1830 -0.1400  0.2299
 7451W        W24298   7.696  16.160   0.894  0.7127 -0.1267  0.0315
 7452W        W24299   5.654   4.984  11.474  0.0108  0.1259 -0.1396
 7453W        W24300  14.991   4.524   2.986  0.1598 -0.0072 -0.2290
 7454W        W24301  11.786   2.383  11.491 -0.1179  0.0756 -0.0079
 7455W        W24302  18.122   4.227   3.671  0.0681  0.1667 -0.3070
 7456W        W24303   0.162   7.265   4.700  0.0478 -0.1100 -0.0014
 7457W        W24304  18.238  11.660   3.859  0.1342  0.1114 -0.0056
 7458W        W24305  14.646  15.928  11.945 -0.1275  0.1177  0.1758
 7459W        W24306  12.506   7.908   1.440  0.0955  0.1073  0.0477
 7460W        W24307   1.723   8.166  15.065  0.0627 -0.2099 -0.1309
 7461W        W24308   4.985  12.691   1.062  0.1975  0.1717  0.0675
 7462W        W24309   8.506  10.491  14.608  0.1550 -0.0169 -0.1003
 7463W        W24310   4.061   3.697   4.250 -0.2847 -0.3896 -0.3220
 7464W        W24311   3.223  17.500  13.601 -0.1113 -0.0527  0.2409
 7465W        W24312  18.096  15.890  11.847 -0.0373 -0.1206  0.0855
 7466W        W24313   8.746  11.852  14.125  0.3458  0.2001  0.0225
 7467W        W24314   3.777  12.814  14.304 -0.0890 -0.1097  0.0373
 7468W        W24315   1.552   8.678  12.526 -0.0742  0.1012 -0.1114
 7469W        W24316   2.275  11.788  12.688  0.1860  0.2086 -0.1053
 7470W        W24317   3.790   5.441  12.584  0.0083 -0.0719 -0.0455
 7471W        W24318  17.822  12.802   6.410 -0.1116  0.0329  0.3788
 7472W        W24319   9.868   2.866  15.323  0.1569 -0.1166  0.0602
 7473W        W24320  10.569  15.790  12.638  0.2558  0.1775  0.1175
 7474W        W24321   2.009   9.544   0.458 -0.1891  0.2823  0.0093
 7475W        W24322  16.859   1.393  12.101  0.0714  0.1106 -0.1667
 7476W        W24323  10.570   0.923  12.187  0.0925 -0.1806  0.1971
 7477W        W24324  17.402  17.408   3.803 -0.1157 -0.0658  0.0887
 7478W        W24325  13.972   4.657  16.024 -0.1034 -0.1832  0.0107
 7479W        W24326  13.391  15.688  13.979 -0.2576  0.2290  0.0074
 7480W        W24327   2.574   1.845   1.937 -0.3362 -0.2126  0.4850
 7481W        W24328  18.027  15.122   3.479 -0.0788 -0.0159  0.2047
 7482W        W24329   3.783   9.122   0.423  0.0518  0.1303  0.1830
 7483W        W24330  16.683   5.480  12.537  0.2056 -0.2356 -0.0858
 7484W        W24331   6.750   6.869  14.710  0.1693  0.1910 -0.0246
 7485W        W24332   1.166  10.077  14.495  0.0885 -0.1344  0.0892
 7486W        W24333   2.649  13.375   3.758  0.2269 -0.2852  0.0911
 7487W        W24334  14.850   5.978  13.336  0.1094  0.3213 -0.2871
 7488W        W24335  18.289  11.215   0.545  0.1144 -0.2641 -0.2281
 7489W        W24336  15.135   2.008  14.201 -0.3581 -0.1944 -0.1458
 7490W        W24337   5.059   1.038   1.917  0.3061 -0.1617  0.1875
 7491W        W24338   4.945  13.363  14.618  0.3002  0.1162  0.2244
 7492W        W24339  10.513  10.656  13.154  0.0626 -0.0136 -0.0527
 7493W        W24340   4.639   2.166  15.092  0.2137 -0.0816 -0.1225
 7494W        W24341   1.947  11.927   3.843 -0.3301 -0.0641  0.3128
 7495W        W24342   1.874   5.681  13.113 -0.0162 -0.1738 -0.1888
 7496W        W24343   5.012  16.581  13.668  0.0817  0.3040  0.0113
 7497W        W24344   7.379  15.436   6.079 -0.0397  0.0182  0.3093
 7498W        W24345  13.251  12.932   4.850 -0.1967  0.0091 -0.1537
 7499W        W24346  16.520  14.463   2.360  0.0814  0.1377 -0.4165
 7500W        W24347  10.829  13.860  12.842 -0.0937  0.1409 -0.0766
 7501W        W24348  15.770  16.282  11.542 -0.1158 -0.1211 -0.1113
 7502W        W24349  16.607   3.269  15.220  0.1530  0.1499  0.0995
 7503W        W24350   5.269   8.514   3.383  0.0558 -0.0821  0.1634
 7504W        W24351  15.994   9.878  12.614  0.2282 -0.1840 -0.1888
 7505W        W24352  10.552   9.094  12.909  0.2193  0.2621 -0.1562
 7506W        W24353  10.530  15.801   1.336 -0.0653  0.2127  0.1285
 7507W        W24354  17.536  11.691   5.998 -0.0958  0.0958  0.2623
 7508W        W24355  16.749   4.127  15.646  0.3715  0.0031  0.2215
 7509W        W24356   0.465  14.138   1.120  0.1553 -0.2797  0.2825
 7510W        W24357   3.553  17.109  13.465  0.1407  0.2291  0.1757
 7511W        W24358   8.995  15.607   5.171 -0.5009  0.2561 -0.0599
 7512W        W24359   8.082  17.172   2.352  0.1800 -0.0214  0.0459
 7513W        W24360   7.242  15.083  15.703 -0.1116 -0.1000 -0.3297
 7514W        W24361   2.855  15.268   2.007  0.1183 -0.2687  0.0406
 7515W        W24362  12.846   7.859   3.523 -0.1058  0.3233  0.3441
 7516W        W24363   5.430  16.413  16.035  0.1307  0.0849  0.1220
 7517W        W24364  14.226  16.193   3.358 -0.4617 -0.0213 -0.0635
 7518W        W24365  13.432   1.805   1.046  0.0156  0.2043 -0.1549
 7519W        W24366   4.900   1.720  13.369 -0.0617  0.0723 -0.1033
 7520W        W24367   8.882  18.311   5.160 -0.1780 -0.0369 -0.0492
 7521W        W24368  17.201  17.778  15.254  0.0533  0.0282 -0.1287
 7522W        W24369   2.667  16.211   2.825 -0.1050 -0.1166 -0.0191
 7523W        W24370  13.295   3.343   0.171 -0.0852 -0.0360 -0.0780
 7524W        W24371   4.735   4.147  14.664  0.1465  0.0210  0.2069
 7525W        W24372   4.242   6.553   1.366  0.1093  0.1327 -0.1755
 7526W        W24373  14.384  10.357  10.561  0.0744 -0.0583  0.3392
 7527W        W24374  10.351   5.148  15.393 -0.2549  0.1971 -0.0978
 7528W        W24375  10.354  15.125   2.763 -0.2918 -0.0313  0.2045
 7529W        W24376  14.198  13.404   3.978  0.0280  0.5115 -0.1032
 7530W        W24377  12.433   6.546  16.047  0.0990 -0.1840  0.0323
 7531W        W24378  17.991   9.121   0.650  0.0267  0.1060  0.0969
 7532W        W24379  11.283   9.541  11.541  0.1443  0.0267 -0.1082
 7533W        W24380  16.797   3.737   3.206 -0.4551  0.1166  0.2810
 7534W        W24381  14.380   8.586   0.479  0.3088  0.1548 -0.2475
 7535W        W24382  12.619   0.288   2.829  0.3103 -0.0329 -0.3820
 7536W        W24383  10.738  11.669  15.865  0.0789 -0.0744  0.0752
 7537W        W24384   9.487  14.469  12.280 -0.0274  0.1890 -0.1347
 7538W        W24385   1.191   6.793   2.139 -0.1565 -0.2547  0.0270
 7539W        W24386   4.420   1.775   3.290  0.0551  0.0125  0.2572
 7540W        W24387   4.651   4.899   1.996 -0.1223  0.1061 -0.0953
 7541W        W24388   6.024   1.869  13.435  0.2247 -0.0262  0.0832
 7542W        W24389   3.075   6.802   4.007  0.0756  0.2228  0.1097
 7543W        W24390   6.997  11.858  14.580 -0.0937 -0.1863  0.1364
 7544W        W24391   9.345  11.232   1.184 -0.0321 -0.1398 -0.0084
 7545W        W24392   8.558   1.928  14.715  0.2107  0.0642 -0.1930
 7546W        W24393   6.344  15.600  15.235  0.1488 -0.1703 -0.2228
 7547W        W24394  14.989   3.264   4.857 -0.1481  0.0080 -0.0985
 7548W        W24395  18.308  14.891   0.181  0.0598 -0.1458  0.4606
 7549W        W24396   9.344  15.924  13.621 -0.0899 -0.1770 -0.2046
 7550W        W24397   8.307  16.305   2.247 -0.1026 -0.1365  0.0761
 7551W        W24398  13.582   7.032  14.745 -0.0824  0.3982  0.0243
 7552W        W24399   9.478  14.043   2.726  0.0232  0.0758  0.3632
 7553W        W24400  14.572   6.161  15.410 -0.3291 -0.0323  0.2218
 7554W        W24401   5.395   5.081  13.808 -0.1039 -0.0263 -0.0603
 7555W        W24402  12.840   3.318  14.053  0.0137  0.1816 -0.2007
 7556W        W24403  15.831   3.342   4.188  0.3259  0.3142 -0.0693
 7557W        W24404  10.034  15.101  14.635 -0.2188 -0.3442  0.1958
 7558W        W24405  13.228  15.219  13.881  0.2053  0.0875  0.0058
 7559W        W24406  16.893  16.464   0.298  0.2525  0.3113  0.0824
 7560W        W24407   3.675   2.330   6.221  0.0190  0.1764  0.0096
 7561W        W24408   9.121  12.792   4.978  0.0299  0.1239  0.0436
 7562W        W24409  14.700   5.729  10.030  0.0055  0.1854 -0.1609
 7563W        W24410  12.853   0.341  12.928 -0.0858 -0.1793 -0.3312
 7564W        W24411   7.992  16.310  15.688 -0.2272 -0.1015 -0.0267
 7565W        W24412  11.539   5.680   5.069 -0.0784 -0.0781  0.1645
 7566W        W24413   8.531   5.540  12.411 -0.0516 -0.3114 -0.1010
 7567W        W24414   0.811  12.441   0.049 -0.1805 -0.1956  0.0800
 7568W        W24415  16.717   6.537  12.323  0.0108 -0.0582 -0.2145
 7569W        W24416   2.007  13.749  16.028  0.0528 -0.1158  0.0123
 7570W        W24417  11.228   2.037   3.409 -0.1136  0.2998 -0.3209
 7571W        W24418  13.936  16.966   5.915 -0.0396 -0.1755 -0.0925
 7572W        W24419   1.659   2.430   0.519  0.1984 -0.3335 -0.0326
 7573W        W24420   6.717  16.971   5.463  0.1219 -0.0518  0.1331
 7574W        W24421  15.167   9.828  12.482  0.0342 -0.2600  0.0435
 7575W        W24422  17.222   7.844   1.080 -0.1517 -0.1167  0.0304
 7576W        W24423  16.774  10.001   3.166  0.1865 -0.3742 -0.1036
 7577W        W24424  11.605  14.633  13.437 -0.2375  0.0511 -0.0209
 7578W        W24425   7.846   8.172  15.617 -0.0167 -0.0369 -0.0846
 7579W        W24426  14.334  14.866   2.162  0.1172  0.1735 -0.0784
 7580W        W24427   4.203   9.407  14.821 -0.1169  0.1613 -0.2171
 7581W        W24428   3.135   0.093   1.886  0.1413  0.0403  0.0768
 7582W        W24429   5.608  10.169   3.367 -0.2908  0.1179  0.0241
 7583W        W24430  16.151   7.532   2.317 -0.4683  0.0934  0.1043
 7584W        W24431  17.807  10.385   0.763  0.0583  0.1871  0.2570
 7585W        W24432  11.121   1.779  11.764 -0.2301  0.1217 -0.1066
 7586W        W24433   2.962   0.920   5.144 -0.2308 -0.0390 -0.2425
 7587W        W24434   8.894  14.218  15.203 -0.1121 -0.1523 -0.0297
 7588W        W24435   0.804   3.354   3.139 -0.1672 -0.0460  0.0338
 7589W        W24436  14.252   9.466   0.983 -0.0212 -0.2169  0.0912
 7590W        W24437   0.545   9.239   4.562  0.3492  0.0224 -0.0877
 7591W        W24438  16.851   3.134   0.936  0.1809 -0.0259  0.0444
 7592W        W24439   0.668   0.384   2.002 -0.0715 -0.0673 -0.3447
 7593W        W24440   3.689   1.591   5.589 -0.2580  0.3645  0.2202
 7594W        W24441  13.802   2.815   3.404 -0.4305  0.0067  0.1169
 7595W        W24442   3.358  15.045   2.046  0.2098 -0.0459  0.0168
 7596W        W24443   6.136  10.826   1.488 -0.3694 -0.1044 -0.0690
 7597W        W24444  14.335  17.392   0.065  0.1028  0.3225 -0.0600
 7598W        W24445  14.412   2.998  14.032 -0.1426  0.0648 -0.2388
 7599W        W24446  15.972   4.309  15.360 -0.1827 -0.1958  0.0949
 7600W        W24447   0.185  14.829  11.518  0.3012 -0.1493  0.0004
 7601W        W24448   8.013  11.191   1.029  0.1232  0.0525 -0.1013
 7602W        W24449  18.202   3.307  14.638 -0.2463 -0.1255  0.3832
 7603W        W24450  15.886   2.049   3.192 -0.0055  0.1572  0.0153
 7604W        W24451   1.114   7.337  14.021  0.0331  0.0134  0.1101
 7605W        W24452   3.211  10.556  11.157 -0.2592  0.0596 -0.2495
 7606W        W24453   4.475  14.334   0.515 -0.0301  0.1164 -0.0400
 7607W        W24454   1.529  12.567   3.446 -0.1161  0.0207 -0.2631
 7608W        W24455   5.588   0.675  15.016 -0.1599  0.1380  0.0556
 7609W        W24456   4.653  13.041  12.846  0.3802 -0.0323  0.0811
 7610W        W24457  15.406  18.195   4.748 -0.1495  0.2442 -0.1899
 7611W        W24458  14.261   4.588  10.707 -0.0596 -0.0881 -0.2537
 7612W        W24459  10.115  11.347   1.494 -0.1899  0.0126  0.1414
 7613W        W24460  12.581   2.338   3.370 -0.3570  0.0714 -0.0508
 7614W        W24461  15.868   3.261  13.106 -0.0998  0.1088  0.0966
 7615W        W24462  11.031  16.314   4.108  0.0006  0.1954  0.0141
 7616W        W24463  13.727   8.008   1.992 -0.1936 -0.0532  0.0254
 7617W        W24464   7.605  12.052   1.066  0.0051 -0.0476  0.2726
 7618W        W24465   9.758   3.394   3.310  0.1252 -0.1210  0.0006
 7619W        W24466   7.155   2.886   0.515  0.2625 -0.1288  0.2637
 7620W        W24467   8.371   4.033  12.002 -0.2006  0.1213  0.2861
 7621W        W24468  15.449  15.339   4.272 -0.1003 -0.1499 -0.1716
 7622W        W24469  17.346   5.338  15.007  0.3435 -0.0497 -0.1780
 7623W        W24470  13.654   3.355  15.350  0.2819  0.3380  0.1262
 7624W        W24471   2.623   8.800   4.309 -0.0593  0.2354  0.0436
 7625W        W24472  17.289  11.571  13.725 -0.0731  0.1832  0.1150
 7626W        W24473  12.222  14.196  13.342  0.0101  0.0324 -0.0030
 7627W        W24474  12.209   8.939   1.940  0.1161 -0.0251  0.2539
 7628W        W24475   1.029  10.790  13.865  0.0948 -0.3096 -0.0623
 7629W        W24476   9.338   0.080  15.568 -0.1592 -0.0534 -0.1378
 7630W        W24477  18.207   6.767  14.177 -0.0214 -0.0286 -0.2028
 7631W        W24478  16.674  10.959  13.277 -0.2162 -0.0075  0.1293
 7632W        W24479   5.572  15.311  15.851  0.1760 -0.0147  0.2321
 7633W        W24480   4.656  10.711   1.893  0.1113 -0.1670  0.0502
 7634W        W24481   4.940  10.648  11.700 -0.0577  0.1459 -0.2309
 7635W        W24482  15.652   0.223  12.330 -0.0463 -0.0961 -0.0104
 7636W        W24483  16.714  10.738  12.143 -0.1790  0.0433  0.0184
 7637W        W24484  17.949  14.470  16.134 -0.0111 -0.1385 -0.0242
 7638W        W24485   8.006   7.775  15.338 -0.2395 -0.3596 -0.2707
 7639W        W24486   3.943   5.958  12.821  0.1002 -0.0617 -0.0128
 7640W        W24487   2.796  15.246   4.987  0.1829 -0.0524  0.1010
 7641W        W24488  10.617   3.142   3.276  0.0378  0.0091  0.1218
 7642W        W24489  14.132   3.256  13.678  0.1251 -0.1948 -0.0600
 7643W        W24490   1.720  10.290  14.412 -0.1827 -0.0974  0.0755
 7644W        W24491   6.971   0.953  13.403 -0.0284  0.0271  0.2029
 7645W        W24492  15.712  14.669  12.687  0.4020  0.0494  0.1532
 7646W        W24493  14.118  10.748  15.244 -0.3066  0.3871 -0.0592
 7647W        W24494  15.803  15.017  14.976  0.0713 -0.0895  0.3228
 7648W        W24495   3.402   0.002   1.109 -0.1615  0.0699  0.0710
 7649W        W24496   4.590   4.655  11.937 -0.0321 -0.0978  0.4005
 7650W        W24497  12.033   8.905  14.649  0.2300 -0.2827  0.3526
 7651W        W24498  12.147   8.743   4.121  0.0427 -0.0010 -0.0265
 7652W        W24499  10.165  16.177   1.458 -0.1396 -0.1605  0.0967
 7653W        W24500   0.400   5.241   3.009 -0.3050  0.0765 -0.2867
 7654W        W24501   8.419  16.474  15.392  0.0030  0.3790 -0.3903
 7655W        W24502   0.898   1.684   0.269 -0.1195  0.0475 -0.0429
 7656W        W24503   3.589   5.796  14.261  0.2623 -0.0542  0.1408
 7657W        W24504   7.078  11.696   1.867  0.1170  0.1871  0.3303
 7658W        W24505  17.274   2.683   5.014  0.0019  0.1393  0.2231
 7659W        W24506   1.084  12.908  13.625  0.0007 -0.2211  0.0185
 7660W        W24507  13.827   5.964   4.767  0.1234 -0.3765 -0.1459
 7661W        W24508  10.022   2.909   3.435 -0.2882  0.0438  0.1250
 7662W        W24509   4.544   0.791   5.399  0.1174 -0.3518 -0.1150
 7663W        W24510  14.116   7.306  12.656  0.0957 -0.1445 -0.0918
 7664W        W24511  16.374   6.279   2.003 -0.2197 -0.2155  0.0322
 7665W        W24512  18.258  17.362   3.374  0.1573 -0.0399  0.1517
 7666W        W24513   8.750   1.712   3.214  0.2242 -0.2025  0.4117
 7667W        W24514  17.929  17.031   3.222 -0.4805  0.0355 -0.2380
 7668W        W24515   3.828  13.909  13.239  0.1675 -0.1488  0.0051
 7669W        W24516  17.760   8.378  11.955 -0.0274 -0.0242 -0.1416
 7670W        W24517  18.185  11.178  14.741 -0.0829  0.0015  0.4525
 7671W        W24518  10.179  15.586   2.191 -0.1646  0.0107  0.0405
 7672W        W24519  16.114   8.041  12.316 -0.0140  0.0002 -0.0548
 7673W        W24520  11.381   2.517  14.565 -0.1556 -0.1335  0.2609
 7674W        W24521   2.330  13.919  14.800 -0.1561 -0.1217  0.0002
 7675W        W24522  14.814   6.157   4.995  0.0463 -0.1304 -0.3074
 7676W        W24523   3.058   5.857   0.427  0.2882 -0.0476 -0.3353
 7677W        W24524  11.974   4.221   3.584  0.1617 -0.0890 -0.1704
 7678W        W24525   8.809   0.103   0.263 -0.1207 -0.0269 -0.0953
 7679W        W24526  10.123  16.509   2.396  0.1662 -0.0088  0.0550
 7680W        W24527   5.955   1.639  14.218  0.2285  0.0011  0.0671
 7681W        W24528  15.452  17.224  15.891  0.0990  0.4517 -0.0542
 7682W        W24529   8.863   2.832  14.974 -0.0364  0.1352  0.1812
 7683W        W24530   1.507   9.065   3.067  0.1103 -0.3324  0.0096
 7684W        W24531   3.226  12.988   5.479 -0.1199  0.0659  0.2083
 7685W        W24532  11.182  15.712  14.914 -0.0725  0.1213 -0.0849
 7686W        W24533  11.398  10.367  12.049  0.0653 -0.0684  0.0059
 7687W        W24534  13.803  16.960  11.293 -0.2135 -0.1800  0.1570
 7688W        W24535   7.038   6.419   4.986  0.0254 -0.2437 -0.0986
 7689W        W24536   6.961   8.790   6.651 -0.0257 -0.0071  0.2371
 7690W        W24537  16.212  11.165   0.544  0.2092 -0.0821  0.0401
 7691W        W24538   9.322   4.118   5.063 -0.0187  0.1820 -0.5377
 7692W        W24539   6.589  12.221  13.808  0.2355  0.2693  0.0528
 7693W        W24540   7.299  13.929  11.805  0.1539 -0.0144  0.1741
 7694W        W24541   7.888   2.156   2.554  0.0338 -0.2028 -0.3655
 7695W        W24542  14.112   3.221  15.004 -0.1673 -0.0002 -0.3029
 7696W        W24543   6.436  17.475  13.330 -0.0455  0.1709  0.0501
 7697W        W24544  15.732   1.929  10.812 -0.0298  0.1742 -0.3030
 7698W        W24545   6.958  12.466   3.591  0.0829 -0.2440  0.1912
 7699W        W24546   8.718   8.267  15.031 -0.0440  0.1610  0.1012
 7700W        W24547  12.140   5.971  12.591 -0.3155  0.0746 -0.4752
 7701W        W24548  13.802   3.157  12.106 -0.1624 -0.1496  0.4185
 7702W        W24549  15.270   6.942  11.905 -0.0136  0.0400 -0.0785
 7703W        W24550   7.411   0.209  14.424  0.2485  0.0359  0.0433
 7704W        W24551   8.291   4.028  14.890  0.1056 -0.0141 -0.1113
 7705W        W24552  16.407   1.232   3.176  0.2730 -0.0562  0.0472
 7706W        W24553   9.797  15.180  12.754  0.1096  0.3427  0.2292
 7707W        W24554  16.147  10.683  15.448 -0.2330  0.2955 -0.2397
 7708W        W24555   0.738   2.178   4.703 -0.0948 -0.1121  0.1263
 7709W        W24556   3.572   4.534   1.271  0.1396  0.3197 -0.1013
 7710W        W24557   0.106   1.666   3.983 -0.1408  0.1033 -0.0438
 7711W        W24558   4.673  17.460   5.623  0.1427 -0.0359  0.0830
 7712W        W24559   4.551  12.534   5.342  0.2746  0.0559  0.2572
 7713W        W24560   9.745  16.718  15.087  0.0832 -0.0993  0.0519
 7714W        W24561   7.672  12.151   2.761  0.1138 -0.4718  0.4781
 7715W        W24562  15.041   7.375  11.755 -0.0668  0.1216 -0.2478
 7716W        W24563   0.857  13.241   4.185 -0.1823 -0.0682 -0.0029
 7717W        W24564   2.704  16.930   2.899 -0.0449 -0.2591  0.0199
 7718W        W24565  14.202   1.705  11.753  0.0379  0.3394  0.1224
 7719W        W24566   6.841  11.034   4.846 -0.0975  0.0945 -0.0191
 7720W        W24567  10.011  17.519  13.362 -0.1332 -0.1423 -0.1367
 7721W        W24568   0.758   8.406   4.136 -0.0730  0.2894  0.1609
 7722W        W24569   3.950   5.818   5.002 -0.0044 -0.1017  0.0005
 7723W        W24570   7.420   9.173  14.606  0.1130 -0.0491 -0.0874
 7724W        W24571  15.166   0.220   6.017  0.0112  0.4489 -0.3834
 7725W        W24572   7.358  15.513  12.719 -0.0245  0.3779  0.1432
 7726W        W24573   7.767  16.204  15.074 -0.2404  0.3218 -0.2570
 7727W        W24574   3.175  10.128  16.017  0.1216 -0.2034 -0.0131
 7728W        W24575   8.434  16.427   4.964  0.0831  0.1796  0.1552
 7729W        W24576  15.716   1.213  15.975  0.1527 -0.1575 -0.0423
 7730W        W24577  17.745   8.707  11.528  0.0898  0.0039 -0.2387
 7731W        W24578   1.682  17.578  11.045  0.4173 -0.4106  0.2422
 7732W        W24579  12.945  10.997  13.015  0.1654  0.0459  0.3643
 7733W        W24580   8.166   9.199   3.171 -0.0631  0.3318 -0.0426
 7734W        W24581   5.609  17.812  12.729  0.2635 -0.1898 -0.0700
 7735W        W24582   1.347   7.903  11.054  0.1072  0.0357 -0.0997
 7736W        W24583  11.279   5.194   3.764  0.0407  0.1091  0.1933
 7737W        W24584  13.661   4.912   4.291 -0.2395 -0.4379 -0.1672
 7738W        W24585  10.230   4.660  15.450 -0.1295 -0.2172  0.1396
 7739W        W24586  11.946  16.273  14.459 -0.0116  0.1205  0.2603
 7740W        W24587  16.648   2.717  15.275 -0.0100  0.1386  0.2400
 7741W        W24588  11.650  17.494  14.963  0.0807  0.1610 -0.2216
 7742W        W24589  12.784  13.155  14.045  0.0667 -0.1704 -0.1230
 7743W        W24590   4.217   3.032  11.841  0.2292 -0.0126  0.4069
 7744W        W24591  10.426  16.242  12.492  0.3171  0.1721  0.0996
 7745W        W24592   8.496  15.829   0.578  0.4463  0.1496  0.0668
 7746W        W24593   1.038   0.651  13.803  0.1114 -0.1868 -0.0235
 7747W        W24594  14.415  12.637  14.650  0.0902 -0.3461 -0.2561
 7748W        W24595   3.167  10.550  13.788 -0.1566 -0.1198 -0.2580
 7749W        W24596  11.609  16.561  15.925 -0.1618 -0.1413 -0.3515
 7750W        W24597   8.965  13.799   2.340  0.1297  0.0611 -0.1510
 7751W        W24598   8.247   4.947   3.148  0.1587 -0.1806  0.0398
 7752W        W24599   3.330  11.673   4.924  0.2938 -0.1604 -0.1232
 7753W        W24600  10.909  13.756   2.110  0.0273  0.4146  0.3241
 7754W        W24601   0.004   9.183   2.062  0.0825 -0.0336  0.0781
 7755W        W24602  11.977   8.700  13.792  0.0528 -0.5773 -0.0445
 7756W        W24603   9.613  14.637  11.062  0.0796  0.1733  0.1022
 7757W        W24604   0.976  10.939  11.923 -0.2544 -0.2045  0.0445
 7758W        W24605   3.392  12.291   4.233  0.0554  0.0680 -0.0703
 7759W        W24606  10.788   5.262   2.622  0.0864  0.0905  0.0171
 7760W        W24607   8.327   8.860   4.861 -0.1774 -0.0929 -0.1519
 7761W        W24608  16.879   5.150   1.558 -0.1579 -0.2365 -0.1969
 7762W        W24609   3.302  16.778  14.894 -0.3078 -0.0733 -0.1463
 7763W        W24610  16.056  15.636   3.848  0.0435  0.2673  0.0981
 7764W        W24611   4.862   7.491   3.272  0.1205  0.2189 -0.0420
 7765W        W24612  14.911   3.772   4.311  0.1729  0.1304 -0.1379
 7766W        W24613   8.744  16.187   1.643 -0.2002  0.0324 -0.0417
 7767W        W24614  15.593   2.995  10.394 -0.0416  0.0251  0.0349
 7768W        W24615  13.514   0.935  14.452 -0.0716 -0.0353  0.1412
 7769W        W24616  11.244  11.774   3.951 -0.1050 -0.1635 -0.0451
 7770W        W24617   3.473  17.610  16.155 -0.2925 -0.2372  0.0015
 7771W        W24618   0.502  13.790   1.924  0.1856 -0.0661 -0.1169
 7772W        W24619  17.903  14.708   4.642  0.0282 -0.0612 -0.1903
 7773W        W24620  11.892   3.905   1.581  0.0130  0.0744 -0.4177
 7774W        W24621   3.128   8.799   1.387 -0.1403 -0.1286 -0.0833
 7775W        W24622  15.857   2.737   0.661 -0.0419  0.0407 -0.4434
 7776W        W24623   3.586   8.479  14.006 -0.1041  0.1480  0.1324
 7777W        W24624   1.432   4.547  12.425  0.1671  0.0942 -0.0088
 7778W        W24625  15.068  11.598   0.706  0.1146  0.3001 -0.1065
 7779W        W24626  18.162   2.080   3.761  0.0123 -0.1003  0.2014
 7780W        W24627   7.932  16.081  11.286  0.1897  0.0519  0.5356
 7781W        W24628  10.923   3.990   1.883 -0.3179  0.0289 -0.1268
 7782W        W24629   2.528  12.374  14.415  0.2946 -0.1196  0.2219
 7783W        W24630   7.401  11.275   5.578  0.0459  0.5702 -0.1567
 7784W        W24631  14.691   1.819   4.463  0.0151  0.0416  0.0334
 7785W        W24632   2.061  17.713  13.130  0.2207 -0.1422 -0.0081
 7786W        W24633  16.928   8.991  11.681  0.1530  0.2346  0.0759
 7787W        W24634  14.247   4.200   3.231  0.1816  0.2460  0.0093
 7788W        W24635  10.310  11.999  15.681 -0.0305  0.1745  0.2188
 7789W        W24636  12.423  17.472   0.633 -0.0665 -0.2202  0.1867
 7790W        W24637  10.703   2.406   0.471 -0.1721  0.0672 -0.3846
 7791W        W24638   9.974  15.927   0.039 -0.0866 -0.2157 -0.1576
 7792W        W24639   1.721  15.271   1.973 -0.1312 -0.1382  0.1988
 7793W        W24640   4.316   6.440  11.522  0.2636 -0.0143 -0.0557
 7794W        W24641  15.254   3.081   2.252  0.0043  0.2325 -0.0966
 7795W        W24642  12.943   8.842  14.509 -0.2212 -0.2599  0.3910
 7796W        W24643   4.417  17.870   4.929 -0.2742  0.1634  0.2472
 7797W        W24644   7.727  13.522  14.974  0.2204 -0.2511 -0.0789
 7798W        W24645   9.215  15.310   4.702  0.0391  0.1445  0.1505
 7799W        W24646   7.215  11.990   2.776 -0.0429  0.2619 -0.0422
 7800W        W24647   2.670   5.553  15.725 -0.1264  0.1800  0.2146
 7801W        W24648  12.212   0.108  14.496 -0.3100  0.2438  0.0072
 7802W        W24649   1.369   7.911   4.617 -0.1499 -0.0162 -0.5777
 7803W        W24650  14.926   7.361  12.611  0.2108  0.1538 -0.0953
 7804W        W24651   0.047  13.949   3.952 -0.0073  0.0257 -0.1365
 7805W        W24652   6.094  15.194  11.666  0.0234  0.1361 -0.0545
 7806W        W24653  16.689  16.004  13.733 -0.1204 -0.2522 -0.1286
 7807W        W24654  17.152  14.981  11.235  0.0351  0.0580  0.2304
 7808W        W24655   2.696  11.779   5.806  0.0192  0.0465 -0.1995
 7809W        W24656  11.004  15.502   5.428  0.1997  0.0367 -0.0214
 7810W        W24657   5.848   5.907  12.744  0.3104 -0.1903  0.0110
 7811W        W24658   5.703  15.023   3.142  0.1836  0.2515  0.0196
 7812W        W24659  15.877   0.571  11.978  0.0140  0.1157  0.0932
 7813W        W24660  16.648   2.030   2.970  0.0184  0.1616 -0.2042
 7814W        W24661   7.622   2.336   2.163 -0.0089  0.0022  0.0757
 7815W        W24662  11.361   0.017  12.559  0.0985  0.1490 -0.0180
 7816W        W24663   2.522   8.313   3.825  0.0121 -0.2465 -0.1112
 7817W        W24664  15.997  13.856   0.898 -0.0503  0.3518  0.0374
 7818W        W24665   8.536   8.344   2.327  0.0728  0.0249 -0.0533
 7819W        W24666   8.834   2.739  14.373 -0.4028 -0.5223 -0.4313
 7820W        W24667   3.696   9.715   2.277  0.1672  0.1254 -0.3495
 7821W        W24668  16.795   1.340  15.669 -0.0592  0.1397 -0.0624
 7822W        W24669  11.170   3.098   3.084 -0.1270 -0.0763 -0.5313
 7823W        W24670  13.248   8.875  11.907  0.1392 -0.1855  0.0550
 7824W        W24671  15.555   8.059   2.614 -0.1468 -0.1878 -0.0783
 7825W        W24672  14.255   9.184  14.619 -0.0563 -0.1080  0.0918
 7826W        W24673   4.020   8.795   1.308  0.0098 -0.0638  0.1027
 7827W        W24674  18.227   7.184   3.668 -0.0358 -0.2894 -0.2032
 7828W        W24675   9.926   3.573   0.877  0.2119  0.0283  0.1917
 7829W        W24676   2.887  10.870   5.392  0.0379  0.1902  0.0346
 7830W        W24677   8.132  13.528   5.077 -0.3161 -0.1615  0.0211
 7831W        W24678  15.112  17.479  12.533  0.3154  0.0743  0.0291
 7832W        W24679   7.829   0.699   0.462  0.4132 -0.0435 -0.1081
 7833W        W24680  10.545   4.604   4.989  0.2801  0.2791  0.0114
 7834W        W24681  16.412   7.034  15.378  0.0564  0.2837  0.0154
 7835W        W24682  16.992  14.276  14.297 -0.1506  0.0589 -0.0104
 7836W        W24683   4.800   4.653  14.813 -0.2498  0.1045  0.0531
 7837W        W24684  12.618   1.571  13.326  0.2513  0.0285  0.0665
 7838W        W24685  15.394   6.244   0.415 -0.0398  0.1160 -0.0978
 7839W        W24686   1.077   4.884  11.791 -0.0053 -0.1755 -0.1602
 7840W        W24687  12.398   6.796   5.088  0.1961 -0.1135  0.0719
 7841W        W24688  10.597   5.741   4.771 -0.1848  0.1119 -0.0728
 7842W        W24689   2.732  12.512   1.294  0.0947  0.0481 -0.0901
 7843W        W24690   2.579   3.990   3.233 -0.0243 -0.0146 -0.0912
 7844W        W24691   9.044  13.244  13.005  0.3878 -0.0961 -0.0187
 7845W        W24692   9.684  14.362   0.559 -0.1788  0.4038 -0.3677
 7846W        W24693   2.599  14.398   3.543  0.0179 -0.1741 -0.2717
 7847W        W24694   7.593   1.958  11.323 -0.0554  0.2625 -0.2014
 7848W        W24695   9.991   3.740   2.858 -0.2126 -0.1035  0.0832
 7849W        W24696   1.963  17.749  11.491 -0.3113 -0.3413 -0.2620
 7850W        W24697   3.507   8.888  13.671  0.0705 -0.0995 -0.2912
 7851W        W24698   1.950  10.954   2.169  0.0150 -0.1298  0.0058
 7852W        W24699   5.683   1.051   3.464  0.4046  0.2225 -0.4636
 7853W        W24700  16.621  12.456   5.297 -0.0674 -0.0938 -0.0544
 7854W        W24701  11.927  16.191   4.627 -0.2044 -0.0918 -0.1628
 7855W        W24702   3.496  12.727   3.484 -0.0079 -0.1708  0.0998
 7856W        W24703  11.222  16.090   3.104  0.1811  0.3460  0.1097
 7857W        W24704  13.890   7.552   2.137  0.2148  0.0194 -0.2144
 7858W        W24705   2.195   0.155   4.960 -0.0096 -0.1052 -0.0949
 7859W        W24706  13.376   2.619   0.792 -0.1855  0.0141  0.2565
 7860W        W24707  12.481   3.471  11.860  0.0169  0.0665 -0.4464
 7861W        W24708  17.981   2.310  13.649  0.0153 -0.1730 -0.0393
 7862W        W24709   5.055   4.875   1.680  0.1094  0.1481 -0.0064
 7863W        W24710  16.763  13.183   1.863  0.0333  0.1998 -0.0042
 7864W        W24711   4.649   6.703  13.821  0.2014  0.4533  0.1168
 7865W        W24712  16.516  12.342  13.492 -0.0166 -0.1294 -0.0003
 7866W        W24713   3.502  10.598  15.222 -0.1838  0.2742  0.0185
 7867W        W24714   1.319   1.361   5.359 -0.1734 -0.2748 -0.2688
 7868W        W24715  18.062  11.788   1.785 -0.0051 -0.0436 -0.0815
 7869W        W24716  14.829   6.632  14.553  0.0812 -0.1848  0.1001
 7870W        W24717  11.774  12.774   2.205  0.0012 -0.0604  0.2573
 7871W        W24718   8.144  11.371  14.827 -0.0390 -0.0236 -0.1102
 7872W        W24719  14.436   2.084  12.925  0.4767  0.2802  0.0670
 7873W        W24720  16.217  13.225  16.142 -0.0522  0.0136 -0.1580
 7874W        W24721   7.661  10.095  15.607  0.2834 -0.0388 -0.1356
 7875W        W24722   4.893  16.274   0.561  0.1507  0.2913 -0.0456
 7876W        W24723  18.041   4.486  11.993  0.1627  0.1783 -0.1341
 7877W        W24724  12.326  13.335  13.950  0.0578  0.1012 -0.0831
 7878W        W24725   1.728   4.591   2.106  0.0557 -0.0580  0.0589
 7879W        W24726   6.370   3.021   1.768  0.0624 -0.0408  0.1367
 7880W        W24727   1.680  16.429   2.603  0.0901  0.1930  0.2854
 7881W        W24728  10.342   7.501  15.577  0.1595  0.0878  0.1168
 7882W        W24729   0.932   4.558   1.282 -0.5451 -0.4885  0.0360
 7883W        W24730  13.833  14.818  15.871  0.1786  0.1575 -0.0021
 7884W        W24731   8.418  10.950  12.018 -0.3093 -0.1720  0.1953
 7885W        W24732   9.656  16.943   3.551 -0.2055 -0.1901 -0.0317
 7886W        W24733  13.200  16.198  14.718 -0.1790 -0.1817 -0.1193
 7887W        W24734  15.132   1.674   0.343 -0.0603  0.4920  0.0968
 7888W        W24735   2.574   1.100  14.409  0.0809 -0.0927 -0.0890
 7889W        W24736   8.527   8.526  14.288  0.0108  0.1233  0.0054
 7890W        W24737  15.507  11.712   0.584  0.1477 -0.2173  0.1200
 7891W        W24738  14.778   7.366   2.346  0.1863 -0.3439 -0.2059
 7892W        W24739   1.189   3.314   1.019  0.1248  0.2464  0.0961
 7893W        W24740   7.922   1.479   1.207 -0.2341 -0.2829 -0.1011
 7894W        W24741   6.264  13.673  14.946  0.1095 -0.1111 -0.1911
 7895W        W24742  10.853   2.883   2.482  0.0779  0.0829 -0.0779
 7896W        W24743   9.303  14.946  13.313  0.1295 -0.3039 -0.1585
 7897W        W24744   1.671   2.159   4.261 -0.2698  0.2537  0.1234
 7898W        W24745   7.254   9.772  13.691  0.0675 -0.1367  0.1055
 7899W        W24746  17.948  14.188  15.679  0.0605  0.1984  0.2678
 7900W        W24747   0.951   1.091  13.571  0.1447  0.0196 -0.1757
 7901W        W24748  11.422   3.834  14.492  0.1645  0.0381  0.0451
 7902W        W24749  14.203   3.265  15.528  0.0728 -0.2596 -0.1054
 7903W        W24750  13.926  12.704   2.080  0.0765  0.4939  0.0941
 7904W        W24751  16.597   3.525   0.097 -0.2308 -0.4351 -0.0746
 7905W        W24752   4.533  10.216  14.684 -0.2961 -0.3065 -0.0136
 7906W        W24753   1.408   9.675   3.611 -0.0988 -0.2139  0.1666
 7907W        W24754  18.227   0.156   2.592  0.0130 -0.1717  0.3579
 7908W        W24755   4.326   1.474   1.334 -0.0097 -0.0506  0.1302
 7909W        W24756   2.806   0.302  13.420  0.1206  0.1325  0.0467
 7910W        W24757   9.806   5.068  14.683 -0.0085  0.0284  0.0524
 7911W        W24758   6.134  17.528   1.523 -0.3158  0.0356 -0.2911
 7912W        W24759   5.850   7.894  13.754 -0.1774 -0.0872 -0.0702
 7913W        W24760   9.571   0.041  12.919 -0.0854  0.0929 -0.1932
 7914W        W24761   8.867  10.700   4.713  0.1443 -0.0330 -0.1237
 7915W        W24762   8.027   7.188  14.506  0.1506  0.0150 -0.1015
 7916W        W24763  10.586  12.844  15.381  0.1294  0.1720 -0.0786
 7917W        W24764   4.504  14.001   0.140  0.1440 -0.0152 -0.2276
 7918W        W24765   3.488   9.483   1.860 -0.1918  0.0239 -0.1307
 7919W        W24766   3.154  13.704   0.595 -0.0277 -0.2586  0.0366
 7920W        W24767  16.958  17.612   2.642 -0.2128 -0.0552  0.0629
 7921W        W24768  10.876   1.746   4.542 -0.1966  0.0135 -0.0522
 7922W        W24769   9.929  10.436   5.540 -0.0452 -0.1156  0.2162
 7923W        W24770   9.758   6.503   1.159 -0.1596 -0.0180  0.2727
 7924W        W24771  18.192  14.153  13.270  0.0382 -0.2997  0.2831
 7925W        W24772   9.999  11.293  13.795  0.2605 -0.0405 -0.3836
 7926W        W24773   7.645  13.026  14.041  0.3080  0.1303 -0.1649
 7927W        W24774  18.313  18.315   3.815 -0.1262  0.0507 -0.0563
 7928W        W24775   7.336  10.779   2.432  0.0820  0.1482 -0.0343
 7929W        W24776   9.607  10.427   3.934 -0.2403  0.0445 -0.1247
 7930W        W24777   3.571  15.442   1.472  0.1638 -0.1855  0.0393
 7931W        W24778   2.386  11.164  16.142  0.1761  0.1334  0.0155
 7932W        W24779  12.728   3.742  13.758 -0.0013 -0.0645 -0.0833
 7933W        W24780   3.266   1.146   0.163  0.0837  0.0773 -0.2082
 7934W        W24781  14.573  12.158   3.216  0.1162 -0.0088  0.2702
 7935W        W24782  12.608   0.941   0.415 -0.0072 -0.0781 -0.2638
 7936W        W24783   2.266   5.147   1.761 -0.2397 -0.2396  0.0271
 7937W        W24784  16.553   0.096  15.315 -0.1610  0.0611 -0.0178
 7938W        W24785  12.811  15.954  11.886  0.0125  0.2388  0.1580
 7939W        W24786   4.183  14.173   1.520 -0.1132  0.0969  0.1145
 7940W        W24787  12.493   9.227  13.694  0.1238  0.0913  0.3389
 7941W        W24788  17.921  12.640   5.606  0.0760  0.0608 -0.0293
 7942W        W24789   0.646   1.032  11.389  0.2889  0.0509 -0.0857
 7943W        W24790   7.351  15.405  15.353 -0.1026 -0.2253  0.1793
 7944W        W24791   2.269  15.292  11.381 -0.2167 -0.1612  0.1369
 7945W        W24792  10.467  14.704   5.512 -0.2376  0.0388 -0.0620
 7946W        W24793  10.492   6.050   1.563  0.0317 -0.0128  0.2225
 7947W        W24794  14.775  14.836   4.784 -0.0040  0.0182 -0.0706
 7948W        W24795  15.570   1.999  12.980 -0.2526 -0.1565  0.3940
 7949W        W24796  13.464  15.540   4.796 -0.0550 -0.1963 -0.0314
 7950W        W24797   4.666   8.731  15.835  0.2361 -0.1791  0.3549
 7951W        W24798   0.653  12.885  15.878 -0.0671 -0.1575 -0.1020
 7952W        W24799   7.342   9.763  12.314 -0.1737 -0.1098  0.0022
 7953W        W24800   1.123  14.406   3.934  0.1191  0.0568  0.1290
 7954W        W24801   7.482  13.723   1.765  0.2876 -0.2241 -0.0351
 7955W        W24802  17.456   9.673  11.453 -0.0295  0.0848 -0.1767
 7956W        W24803   2.673   3.789  13.768  0.1989 -0.2796  0.1647
 7957W        W24804  10.260   9.162   2.794  0.1157  0.1275 -0.0566
 7958W        W24805   0.776  15.348  13.261  0.0466  0.1548 -0.0324
 7959W        W24806   1.264  17.686   5.238 -0.0478  0.2329 -0.1857
 7960W        W24807   3.697   7.749   4.267 -0.2112  0.0252  0.1124
 7961W        W24808  14.351  14.203  11.520 -0.0159 -0.0690  0.1490
 7962W        W24809  16.291  17.612  15.656  0.0404  0.1484 -0.0207
 7963W        W24810   0.686   9.150  11.906  0.2171 -0.1739 -0.2385
 7964W        W24811   3.297  14.089  15.760 -0.0218 -0.2264 -0.1669
 7965W        W24812   0.880   6.013  15.251  0.0957  0.3331 -0.0186
 7966W        W24813  11.472  17.132  13.998 -0.0130 -0.0291 -0.1096
 7967W        W24814   2.869   3.043  14.743 -0.1577  0.0389  0.0624
 7968W        W24815  10.790   4.053  15.744 -0.1401  0.0163 -0.0084
 7969W        W24816   7.681   7.152  12.435  0.1859 -0.1074 -0.1080
 7970W        W24817  16.278  13.878   2.199  0.0786  0.0884 -0.1250
 7971W        W24818   2.225   9.141  13.811 -0.2599  0.0644  0.0366
 7972W        W24819   6.288  13.843  11.882 -0.2862 -0.3230  0.0032
 7973W        W24820   6.669  18.093   1.181 -0.2526  0.2615  0.0592
 7974W        W24821  12.605   8.034  13.474 -0.1117  0.0853  0.0369
 7975W        W24822   4.529  12.393   0.436  0.0852 -0.0147 -0.2084
 7976W        W24823  10.880  15.360   4.518  0.2022  0.2328 -0.0019
 7977W        W24824   1.339   0.127   1.182  0.1008  0.0467 -0.1620
 7978W        W24825   4.669  10.861   1.412  0.1505 -0.0077 -0.2955
 7979W        W24826   2.092  12.295  10.745 -0.0503 -0.1964 -0.1055
 7980W        W24827  10.602   9.723  15.882 -0.2160  0.0534  0.2441
 7981W        W24828   5.197   5.224   4.171  0.1428 -0.0184  0.1997
 7982W        W24829  15.046  15.572   2.486 -0.0151 -0.2442 -0.0870
 7983W        W24830   2.858  15.540   0.927  0.0356  0.2273 -0.0694
 7984W        W24831   4.885   6.646  13.080 -0.0647 -0.0787  0.0835
 7985W        W24832   3.460   4.534   2.069 -0.1346 -0.0305 -0.1517
 7986W        W24833   2.602   8.646   5.250  0.1438  0.2714  0.0662
 7987W        W24834  12.232  13.390  15.907 -0.0132  0.2550 -0.4737
 7988W        W24835  10.247   0.824   2.726 -0.1494  0.0635  0.0753
 7989W        W24836  17.410  16.024  13.162  0.3088  0.2583 -0.1642
 7990W        W24837   3.317   4.662  12.304  0.1167  0.2336  0.3190
 7991W        W24838  13.226  15.799  15.029 -0.0597 -0.2338  0.0147
 7992W        W24839  13.495  16.540  14.957  0.0325 -0.3677  0.0143
 7993W        W24840   7.718  13.362   3.969  0.2509  0.0817 -0.2340
 7994W        W24841  15.657  11.537   2.225 -0.0999  0.4299 -0.0417
 7995W        W24842  12.756  11.158  13.788  0.0963  0.3253 -0.0763
 7996W        W24843  15.792   8.976  12.913 -0.0487  0.1066  0.2356
 7997W        W24844   3.725   5.968   4.208 -0.0472 -0.0301 -0.4767
 7998W        W24845   1.285  16.257   2.987  0.0420  0.0885  0.0359
 7999W        W24846  14.388  13.024   2.276 -0.1237  0.0502  0.2563
 8000W        W24847   7.190   5.292   4.369 -0.2897 -0.0779 -0.0435
 8001W        W24848   0.186  10.270   5.492 -0.3034  0.2584  0.3455
 8002W        W24849   7.180   3.142   5.545 -0.0690  0.0554  0.1496
 8003W        W24850   8.478  15.810  13.673 -0.1489 -0.0380 -0.0854
 8004W        W24851  17.749   6.321   0.552  0.1645 -0.1230  0.3729
 8005W        W24852   3.750  15.631  11.387 -0.0156  0.2649  0.1440
 8006W        W24853   7.996   3.300   5.322 -0.2741 -0.2245 -0.2264
 8007W        W24854   3.476   8.067  15.044 -0.1519 -0.1232 -0.1023
 8008W        W24855   1.771   8.112   5.057 -0.0810  0.0484 -0.1669
 8009W        W24856   5.554  12.951   4.821 -0.1543 -0.1553 -0.1374
 8010W        W24857  17.790  11.367   0.672 -0.0957 -0.0217 -0.1163
 8011W        W24858   2.428  14.851   0.933  0.0632 -0.1068  0.1929
 8012W        W24859  13.800  16.221  12.289  0.4099 -0.0887 -0.2322
 8013W        W24860  10.770   4.587   4.404 -0.0303  0.0119 -0.1062
 8014W        W24861  11.244   4.560   1.569 -0.1711 -0.2223  0.0683
 8015W        W24862  17.997   4.903   0.973  0.2131 -0.4423  0.0017
 8016W        W24863  12.188   3.817  12.889  0.0821  0.0051  0.0357
 8017W        W24864  13.244  15.066   4.108 -0.0988 -0.1095  0.2393
 8018W        W24865   3.171  11.898   4.522 -0.0751 -0.1788  0.2850
 8019W        W24866  13.568  12.614  11.577  0.0852 -0.0689 -0.2244
 8020W        W24867   1.207   1.717  12.336 -0.0091 -0.1042  0.1771
 8021W        W24868   5.521  14.674   3.417  0.2430 -0.1372  0.1905
 8022W        W24869  13.866   5.785  13.788 -0.1850 -0.1810  0.0987
 8023W        W24870  17.068   4.961  15.777 -0.1894 -0.2748 -0.3347
 8024W        W24871   4.193   5.745  15.325 -0.1810 -0.2870 -0.1502
 8025W        W24872  10.675  12.665  11.335 -0.0976  0.1859  0.1626
 8026W        W24873  16.486   6.677  14.206  0.2620  0.0524  0.2375
 8027W        W24874  15.960  11.593  11.830 -0.0831  0.2045  0.0913
 8028W        W24875   6.786   8.840   0.807  0.2099 -0.0393  0.0351
 8029W        W24876   9.180  13.224   5.488  0.1831  0.0743 -0.1728
 8030W        W24877  17.400  12.602   0.135  0.1055  0.0349  0.1735
 8031W        W24878   5.627  11.365   5.004  0.1305 -0.2747  0.0543
 8032W        W24879  11.848   3.330  12.433 -0.2077  0.0480  0.1429
 8033W        W24880   5.923   2.280  16.182 -0.6720 -0.0919 -0.2054
 8034W        W24881  13.766  14.679  14.576 -0.1743 -0.3372  0.1590
 8035W        W24882   7.666   8.075  11.574  0.0267 -0.0911 -0.2106
 8036W        W24883   9.529   0.484  16.107  0.1796  0.1042  0.2023
 8037W        W24884  10.460  10.099  13.009  0.3366 -0.1563  0.1545
 8038W        W24885  12.523  14.694  13.487 -0.0686 -0.1751 -0.3002
 8039W        W24886  13.954  10.816   0.640  0.0204  0.0417 -0.1177
 8040W        W24887  15.860   2.095   3.741 -0.0004  0.0827  0.0848
 8041W        W24888   5.233  13.141  14.241  0.3479 -0.1834  0.0995
 8042W        W24889  11.352   2.698   2.310  0.0229 -0.0943  0.2306
 8043W        W24890   7.190  17.260   3.839 -0.1899  0.4287  0.1701
 8044W        W24891  10.009  13.217   5.087 -0.1426 -0.1480  0.1197
 8045W        W24892  10.050  10.849  14.639  0.1287 -0.3202 -0.3203
 8046W        W24893  18.217  12.689   3.879  0.1503  0.4225  0.0546
 8047W        W24894  17.496  17.542  14.106  0.0274  0.0455 -0.2830
 8048W        W24895   4.922   4.355   1.273  0.0614  0.1598 -0.1898
 8049W        W24896   8.489   3.332   3.834 -0.1213 -0.0308 -0.1351
 8050W        W24897  15.964  18.114   2.903 -0.3620 -0.0658  0.0190
 8051W        W24898   8.962  13.876   1.224 -0.2178 -0.1778  0.0704
 8052W        W24899   5.262  16.545   3.196 -0.0484 -0.1744 -0.1956
 8053W        W24900  17.917   4.765   2.921 -0.3554  0.1465 -0.1173
 8054W        W24901  12.715   4.196  13.498 -0.0958 -0.2225 -0.1685
 8055W        W24902   5.775   9.156   2.181  0.1794 -0.1373  0.3226
 8056W        W24903   6.607  15.973  14.575 -0.1426  0.1593 -0.0292
 8057W        W24904  13.232   7.821  13.654  0.3027  0.1395 -0.0884
 8058W        W24905  11.261   4.990   4.547 -0.1771  0.0340  0.1074
 8059W        W24906   1.344   8.166   1.443 -0.1289  0.0269 -0.2248
 8060W        W24907  17.787   0.051   4.104  0.1486 -0.1454  0.0545
 8061W        W24908   0.885   0.584   3.010  0.0193 -0.1511  0.1385
 8062W        W24909   6.569  13.533   0.872  0.0636 -0.1038 -0.0045
 8063W        W24910  14.914  13.141   2.790  0.2746  0.0080 -0.1478
 8064W        W24911  12.973   2.316   3.769  0.2979 -0.3884 -0.1154
 8065W        W24912   5.422  16.856   0.680 -0.1579  0.3411 -0.1022
 8066W        W24913   0.502  17.323   3.330 -0.2284 -0.1146 -0.0663
 8067W        W24914  12.925  14.129   4.263 -0.3094 -0.1937 -0.1782
 8068W        W24915  16.333  15.902  14.775  0.0594  0.1847 -0.0900
 8069W        W24916  14.878   3.431   3.359 -0.0330  0.3206  0.0455
 8070W        W24917  15.849  15.811  11.464 -0.1484  0.0801  0.0152
 8071W        W24918   4.956   9.375   3.640  0.1624  0.2032  0.0695
 8072W        W24919  10.271  15.646   2.690  0.0704  0.2908 -0.0269
 8073W        W24920  10.805  17.474   1.727  0.0934  0.0948 -0.0108
 8074W        W24921   9.122   3.792   4.659  0.1224 -0.0673 -0.2446
 8075W        W24922  17.998   3.747   4.002 -0.3161  0.1263  0.2843
 8076W        W24923   5.709   4.115  11.662 -0.1313 -0.0197  0.2378
 8077W        W24924  12.646  11.298   4.193  0.0162 -0.1812 -0.1605
 8078W        W24925  14.674  12.784   0.652 -0.0925  0.2590 -0.0525
 8079W        W24926  16.266  15.177   5.089 -0.2182  0.3476  0.0933
 8080W        W24927   3.813  15.208   1.860  0.1416 -0.1022 -0.0918
 8081W        W24928  15.446   2.742   3.209 -0.0184  0.2150  0.1906
 8082W        W24929  11.449  12.890  13.490  0.1370  0.1318 -0.1466
 8083W        W24930   7.863   2.191   3.855  0.2135  0.3167  0.0622
 8084W        W24931  10.181  15.996  13.468 -0.0499 -0.0187 -0.1196
 8085W        W24932   8.689   6.358  13.362  0.2221 -0.0661 -0.0615
 8086W        W24933   1.559   6.481  10.323 -0.0747  0.2755  0.0524
 8087W        W24934  16.649  17.761   3.036  0.2768  0.0751  0.4630
 8088W        W24935  15.516  13.790   1.785 -0.0407 -0.0649  0.1548
 8089W        W24936  13.488   0.039  12.840 -0.0198 -0.5228 -0.0877
 8090W        W24937   2.594  10.009  15.482 -0.0378  0.2276  0.0998
 8091W        W24938  11.926   1.555  15.436 -0.0171 -0.1016  0.0613
 8092W        W24939   8.130  14.753   0.565 -0.1288  0.0983 -0.2313
 8093W        W24940  11.189  12.750   0.717 -0.2578 -0.0681  0.2567
 8094W        W24941   2.853   0.492  15.758  0.1583  0.3262 -0.2868
 8095W        W24942   1.669  16.485  16.099  0.1097  0.0520  0.0180
 8096W        W24943   1.091  11.657   3.671  0.0444 -0.1491  0.3301
 8097W        W24944  16.947  12.808   2.773  0.1790  0.1033 -0.2412
 8098W        W24945  13.230   9.291  15.820  0.2950  0.0021  0.0276
 8099W        W24946   6.623   1.874   5.234  0.3949 -0.1935 -0.0867
 8100W        W24947   0.601   5.316   0.388  0.0905 -0.0848  0.1221
 8101W        W24948   9.479  15.170  15.920 -0.1742 -0.2062 -0.0251
 8102W        W24949   4.362  10.979  14.288 -0.4315 -0.0532 -0.0043
 8103W        W24950  13.370  15.989   1.922 -0.2010  0.2554 -0.1935
 8104W        W24951   7.347   1.962   4.134  0.3606  0.1346  0.3465
 8105W        W24952  18.178   1.127   4.946  0.0667  0.3104  0.2350
 8106W        W24953   9.448   4.341   3.653 -0.0798 -0.0516  0.0820
 8107W        W24954   0.275   2.807   0.265  0.3682  0.2132  0.1629
 8108W        W24955   7.618   0.607  14.553  0.1134 -0.1000 -0.0208
 8109W        W24956   0.963   9.286   4.876  0.2058  0.0831  0.4442
 8110W        W24957  12.222  10.351  11.554 -0.0693 -0.0026 -0.0309
 8111W        W24958  12.174   8.848  12.826 -0.5331  0.1146 -0.1843
 8112W        W24959   0.559   4.756   3.094  0.0858  0.2328  0.0964
 8113W        W24960   8.077  16.278  14.565  0.0425  0.0994 -0.2515
 8114W        W24961   7.732  11.514  14.576 -0.0075 -0.2952 -0.6114
 8115W        W24962   7.540   0.746   2.908 -0.2169 -0.2996  0.0293
 8116W        W24963   3.040   4.587   1.658 -0.1372  0.0816  0.0814
 8117W        W24964  13.509  17.538   0.608  0.2030  0.4247  0.1973
 8118W        W24965   4.491   2.544  14.313 -0.0269 -0.1946  0.3428
 8119W        W24966  11.691  15.736   2.502 -0.1849 -0.2012 -0.0128
 8120W        W24967  14.102   0.126  12.458  0.2082  0.0982  0.0269
 8121W        W24968   2.987  11.284   5.071 -0.0606 -0.0340 -0.0452
 8122W        W24969   9.722  17.948   1.771 -0.0708  0.0375  0.2077
 8123W        W24970   3.035   2.094  12.592 -0.0333  0.1319  0.0350
 8124W        W24971   7.077   7.578   3.667 -0.0904  0.0669  0.1370
 8125W        W24972  10.731   7.834  10.761  0.0569 -0.0934 -0.1535
 8126W        W24973   4.270   6.362  13.809  0.0179  0.2445 -0.0776
 8127W        W24974  13.159  11.604   1.518  0.0662  0.2592 -0.0941
 8128W        W24975   6.467  13.935   5.117  0.2331  0.0567  0.0026
 8129W        W24976   6.956  14.120   2.852  0.0337 -0.1302  0.0574
 8130W        W24977  10.561   3.719   2.175  0.0575 -0.1081 -0.2940
 8131W        W24978   2.056  15.402  13.032 -0.1520  0.2121  0.1043
 8132W        W24979   8.336   0.970  12.520 -0.0576  0.3108 -0.0205
 8133W        W24980  11.003   2.841  14.527  0.0855 -0.2129  0.1413
 8134W        W24981   2.700   2.292  16.018  0.0241 -0.1972  0.2176
 8135W        W24982  14.879  11.943   1.725  0.3301  0.0073 -0.1299
 8136W        W24983  13.403   4.113   5.044 -0.2656  0.0634 -0.3338
 8137W        W24984  17.521   9.713  15.004  0.1872  0.1233 -0.1712
 8138W        W24985  10.202   2.994  11.068 -0.2502  0.2388 -0.0574
 8139W        W24986   9.428  13.855   2.231  0.1005  0.2107  0.0431
 8140W        W24987  13.936  16.385   1.527  0.0063 -0.1461 -0.0702
 8141W        W24988  16.057  10.941   3.437  0.0036  0.2056 -0.1542
 8142W        W24989  13.697   0.268   5.632  0.1139  0.1594 -0.1153
 8143W        W24990   1.033  11.545   5.300  0.0572 -0.3670 -0.3053
 8144W        W24991   2.795   9.182  15.938 -0.0590  0.4725 -0.1306
 8145W        W24992   1.278  11.006   2.554  0.1234  0.1368  0.0697
 8146W        W24993   1.175   2.518  12.693  0.4789  0.2705  0.1065
 8147W        W24994   7.881  12.184   0.623  0.0759  0.1104  0.0449
 8148W        W24995  11.481   1.413   1.117  0.2220  0.0640 -0.1593
 8149W        W24996  11.737   2.957  14.454  0.1596 -0.2847  0.2277
 8150W        W24997   9.969  18.313  11.355  0.0073  0.1670  0.0015
 8151W        W24998   6.093   2.593   5.218  0.1037  0.0194  0.2864
 8152W        W24999   8.863  10.171  14.807 -0.0617  0.3706 -0.0401
 8153W        W25000   5.226   2.857  14.537  0.0129 -0.0617  0.1559
 8154W        W25001   4.747  13.797  14.426  0.0236 -0.1370 -0.2833
 8155W        W25002   1.840   4.274   1.267 -0.2079 -0.0583  0.1594
 8156W        W25003  13.955   0.483   0.524  0.0466 -0.0568 -0.1964
 8157W        W25004  14.505  16.570   6.212 -0.0998  0.1957  0.3090
 8158W        W25005   7.010   8.909  15.283  0.1371 -0.0356 -0.1121
 8159W        W25006   5.563   0.783   2.031 -0.0108  0.0404  0.0198
 8160W        W25007   6.333  12.275  13.271  0.0443 -0.1697  0.0374
 8161W        W25008   2.942  10.781   0.729  0.0758 -0.0598 -0.4801
 8162W        W25009  11.852   7.492  11.468 -0.3700 -0.0908 -0.2074
 8163W        W25010  17.653   3.329   1.076  0.3486 -0.0049 -0.1736
 8164W        W25011  10.520  18.216   0.005  0.0251 -0.1706  0.0134
 8165W        W25012  11.858   9.653  13.277 -0.0051 -0.2079 -0.0707
 8166W        W25013   9.202   0.676   4.440 -0.0629  0.0573 -0.3067
 8167W        W25014   4.129  17.806  15.200  0.1386 -0.5456 -0.3135
 8168W        W25015  11.618   9.184  13.275  0.3565  0.0991  0.0543
 8169W        W25016  12.300  10.061  10.184  0.2764  0.0737 -0.0632
 8170W        W25017   4.601   8.965  11.983 -0.0590 -0.1162  0.1671
 8171W        W25018  16.534   4.281  13.989 -0.0999  0.0825 -0.0383
 8172W        W25019   6.497   6.362   5.629  0.0821  0.0714  0.1407
 8173W        W25020   7.474   2.039  15.819  0.2047 -0.0735 -0.1357
 8174W        W25021  11.337  11.005  15.631 -0.0738  0.1981 -0.4047
 8175W        W25022  12.689   1.421  16.051 -0.0490 -0.0051  0.1816
 8176W        W25023   0.495   7.952   1.967 -0.1081  0.0670 -0.4240
 8177W        W25024   6.349   3.143   3.092  0.0175  0.0513  0.0815
 8178W        W25025   3.817   8.219  12.203  0.2301 -0.1706 -0.2984
 8179W        W25026   7.187   5.069  11.719  0.0285 -0.2093 -0.0468
 8180W        W25027   6.633   1.916   2.713  0.0697 -0.1517  0.1626
 8181W        W25028   5.055  18.145   1.360  0.0338 -0.1092  0.1505
 8182W        W25029  14.894   4.310   1.898 -0.2580  0.0745 -0.1461
 8183W        W25030   4.149   5.006  13.196 -0.1398  0.0050  0.0102
 8184W        W25031   7.349   4.611  11.633  0.3142 -0.0716  0.1225
 8185W        W25032  14.048  18.249   5.328  0.1263 -0.2526  0.0202
 8186W        W25033  15.572  13.738   1.244 -0.2239 -0.0682 -0.2007
 8187W        W25034  17.443   7.704   0.677 -0.1254  0.0113  0.0220
 8188W        W25035   8.328   9.985   2.954 -0.0379 -0.0127 -0.0340
 8189W        W25036  10.746   5.361   5.561 -0.0143  0.0709  0.0496
 8190W        W25037  16.622   2.573  11.101 -0.0509  0.1599  0.3609
 8191W        W25038  12.338  14.671   0.134 -0.3422 -0.0555 -0.2579
 8192W        W25039   0.687  12.078  13.165  0.2754  0.2272  0.0703
 8193W        W25040  11.088   0.840  14.838 -0.0269  0.0804 -0.1150
 8194W        W25041  12.488   6.473  13.908 -0.2341 -0.0659 -0.0165
 8195W        W25042   2.908  13.304  15.798  0.0233  0.1543  0.2366
 8196W        W25043  12.396   1.997  12.511  0.0790 -0.2184 -0.0125
 8197W        W25044  17.369   4.339  12.751  0.1384  0.2440 -0.3531
 8198W        W25045   4.770   2.016   1.065  0.0627 -0.1931  0.2888
 8199W        W25046   8.414   3.112  14.723  0.0325 -0.0751 -0.2427
 8200W        W25047   5.686  14.032   1.848 -0.0279  0.1507  0.0225
 8201W        W25048  11.149   4.361  13.362  0.1835  0.0258  0.1028
 8202W        W25049   3.342  10.504   2.678 -0.1376  0.1406  0.1634
 8203W        W25050  12.710   1.848   0.996  0.1336  0.0881  0.1469
 8204W        W25051  13.124  17.610   1.233 -0.0240  0.1561  0.2419
 8205W        W25052   6.277  16.892   0.201  0.0564 -0.0496 -0.0610
 8206W        W25053   5.496   4.733  14.929 -0.0047  0.1003 -0.0020
 8207W        W25054  14.735  11.626  12.017 -0.2958  0.1519  0.2158
 8208W        W25055  16.837   1.009   5.131 -0.1855  0.2245 -0.2145
 8209W        W25056  14.038   0.104   4.813 -0.1617 -0.0960  0.1585
 8210W        W25057  17.192  18.278  15.195  0.4642  0.0018  0.0090
 8211W        W25058   6.274  11.634   3.423  0.0952  0.1018  0.1860
 8212W        W25059   4.351   8.911   5.625 -0.1031 -0.0891  0.0359
 8213W        W25060  17.857  16.562   5.184 -0.0172 -0.1847 -0.2632
 8214W        W25061  11.356   6.021  10.221  0.2210  0.2472  0.0015
 8215W        W25062  11.483  15.899   3.507 -0.1483  0.1325  0.1712
 8216W        W25063   6.840   6.804   1.051  0.1362  0.0182  0.0425
 8217W        W25064  10.321  15.460  14.826 -0.1365  0.0265  0.1857
 8218W        W25065  15.317  12.231   3.591 -0.1243  0.0919  0.0482
 8219W        W25066   6.173   0.655  15.884  0.3352 -0.1031 -0.1056
 8220W        W25067  12.151  11.538   0.472  0.1799 -0.0138 -0.2013
 8221W        W25068   7.347   5.531  15.522 -0.0344 -0.2092 -0.0217
 8222W        W25069   5.706   1.359   0.865  0.0051  0.0898 -0.0743
 8223W        W25070  12.200  12.102   2.316 -0.2464 -0.0280 -0.1236
 8224W        W25071  11.522  15.485  13.439 -0.1268  0.2103  0.3252
 8225W        W25072  13.347  12.135  15.333 -0.0663  0.0495  0.0444
 8226W        W25073   2.913   3.534   1.765 -0.0323 -0.1826  0.0448
 8227W        W25074  11.911   3.159   5.310 -0.0010  0.1863  0.0044
 8228W        W25075  15.707   0.680   4.059 -0.0069 -0.1824  0.1513
 8229W        W25076   9.438  10.843  11.870  0.1858  0.0769 -0.0310
 8230W        W25077   1.111  13.712   0.858  0.2166 -0.0626  0.2848
 8231W        W25078   2.470   0.448   3.061 -0.0480  0.2639  0.1046
 8232W        W25079  15.180  12.584   3.906  0.0591  0.1083  0.1187
 8233W        W25080  14.814  11.683   0.040  0.0902  0.2738 -0.0794
 8234W        W25081  15.123   4.424   3.730  0.1179 -0.2783 -0.0649
 8235W        W25082  12.105   0.734  12.921 -0.3478 -0.2672  0.0318
 8236W        W25083  11.748  10.518   1.108  0.1222 -0.4372  0.1159
 8237W        W25084   7.554   2.677   0.359 -0.0388  0.0621  0.1457
 8238W        W25085   8.452  15.807  14.637 -0.0356 -0.1681  0.1609
 8239W        W25086   5.884  13.805   3.060 -0.0408 -0.2056 -0.0705
 8240W        W25087  11.525  18.089  14.842 -0.0755  0.3241  0.3387
 8241W        W25088  12.958  18.092  10.995  0.0495  0.1440  0.0513
 8242W        W25089   3.994   3.287  11.427  0.1588 -0.2350 -0.1670
 8243W        W25090   4.433  10.640   0.231  0.1443 -0.0464 -0.0134
 8244W        W25091   5.476   8.827   4.237  0.0530  0.1149  0.0146
 8245W        W25092  16.144  11.050   2.900  0.0553  0.0471 -0.1387
 8246W        W25093   4.515   2.918   0.056  0.2873  0.1040 -0.4257
 8247W        W25094  12.104   3.664   3.732 -0.1242 -0.1834 -0.1556
 8248W        W25095   1.681   3.002   1.973 -0.0035 -0.0943 -0.1228
 8249W        W25096   7.457  15.788   4.591  0.0060  0.1334 -0.2923
 8250W        W25097  16.583  13.894  15.502 -0.0614  0.3446 -0.0928
 8251W        W25098  11.738   4.960   3.697  0.2100  0.1822  0.2039
 8252W        W25099   1.132   5.725  11.895  0.1247  0.0266  0.1047
 8253W        W25100   9.271   3.476  12.365 -0.2210 -0.0860 -0.1360
 8254W        W25101  16.318  14.425  10.459 -0.0700  0.3103 -0.4838
 8255W        W25102  17.626  10.900   5.075 -0.1533  0.3157  0.0439
 8256W        W25103  17.899   7.566   2.904 -0.0333 -0.2660  0.2173
 8257W        W25104   8.919   1.184   2.767 -0.2137 -0.2223 -0.1072
 8258W        W25105   4.199  13.043   3.258 -0.0569  0.1079 -0.0553
 8259W        W25106   2.358   4.145  13.595 -0.1379  0.0611  0.1532
 8260W        W25107   1.941   9.276  14.220  0.4004  0.1156  0.2718
 8261W        W25108  15.111  13.232   1.542 -0.2425 -0.0070 -0.2890
 8262W        W25109  17.098   4.450   1.458  0.1464  0.1173  0.1727
 8263W        W25110  16.452   2.126   1.440  0.1530 -0.0379 -0.1698
 8264W        W25111   3.470   1.003   0.670 -0.1379 -0.2261 -0.0392
 8265W        W25112   5.407  18.067   0.758 -0.0049 -0.0691 -0.0947
 8266W        W25113  13.393  15.328  11.695 -0.1125  0.1136 -0.1458
 8267W        W25114  12.280  15.947  14.441  0.0812 -0.0626 -0.1684
 8268W        W25115   0.636   3.028  14.554 -0.2992 -0.0871 -0.2638
 8269W        W25116  15.247   4.108   1.532 -0.0739  0.2560  0.1207
 8270W        W25117  10.297   5.041  12.232 -0.0965  0.0172 -0.0115
 8271W        W25118  13.731   1.948  15.865 -0.1030 -0.0528  0.1539
 8272W        W25119  17.351   6.640  15.206 -0.1265  0.0743  0.0634
 8273W        W25120  18.119  10.292   2.696 -0.2466 -0.0265 -0.0188
 8274W        W25121  14.244  10.997  14.691  0.2488 -0.1810  0.0988
 8275W        W25122   8.704   9.337  12.986  0.5900  0.0965  0.1541
 8276W        W25123  17.235   6.986  12.913 -0.1189 -0.1023  0.1431
 8277W        W25124   2.162  12.424  14.891 -0.1578 -0.1906 -0.0742
 8278W        W25125   7.015   4.571  15.718  0.0806 -0.1155  0.1421
 8279W        W25126   3.903   3.690  12.369 -0.0681  0.0484  0.1850
 8280W        W25127  12.402   3.598  14.102 -0.2506 -0.0520  0.5407
 8281W        W25128  15.369  12.740  13.828  0.2102  0.2404 -0.0792
 8282W        W25129  15.447  14.464  11.859  0.3936 -0.2705 -0.0673
 8283W        W25130   3.909   2.296   4.217 -0.1193  0.1736 -0.0222
 8284W        W25131   1.911   2.728  11.460 -0.1932  0.0023  0.2693
 8285W        W25132   6.284   4.984  13.476 -0.0346  0.0730  0.0373
 8286W        W25133  12.475   0.464   0.696 -0.0463  0.3142 -0.2760
 8287W        W25134   4.941  11.206  15.215  0.1346  0.1677 -0.1362
 8288W        W25135  16.937   4.610   3.391  0.1025 -0.0200  0.2543
 8289W        W25136  11.129   5.923  14.877  0.0304  0.1363  0.3937
 8290W        W25137   6.279   2.167  15.827  0.2128 -0.1145  0.0245
 8291W        W25138   3.540   7.871   0.872  0.0997  0.2306 -0.1036
 8292W        W25139  14.371   5.098   0.734  0.0277  0.0914 -0.1782
 8293W        W25140   6.604   5.805   6.280 -0.1694  0.0523 -0.0766
 8294W        W25141   1.597   1.704  15.745  0.0053 -0.1080  0.0358
 8295W        W25142   5.104   9.544  14.933  0.0469  0.2912  0.0881
 8296W        W25143   8.183  11.262  12.758 -0.0128  0.0069 -0.0135
 8297W        W25144  16.938  16.278  12.881  0.0722 -0.2016 -0.0749
 8298W        W25145  12.409  17.928  14.508 -0.2552 -0.2792  0.0915
 8299W        W25146  12.115   6.590   1.205  0.0297  0.0016  0.0432
 8300W        W25147  13.093  13.639  15.942  0.0632 -0.2377  0.0457
 8301W        W25148  10.605   5.954  14.819  0.4678  0.1455  0.2985
 8302W        W25149   0.067   1.235  12.050  0.0134 -0.1909 -0.1015
 8303W        W25150  16.963  15.379   5.880  0.0532  0.1786 -0.0519
 8304W        W25151  17.909   5.082  12.022 -0.1069 -0.1601 -0.0447
 8305W        W25152  15.813  12.298  11.297  0.0735 -0.1444  0.1024
 8306W        W25153  14.167   3.519  12.189 -0.1521 -0.1130  0.3102
 8307W        W25154   3.345   7.335  12.535 -0.0931 -0.0303 -0.1836
 8308W        W25155   4.071   4.850   1.379 -0.1660  0.1940 -0.0242
 8309W        W25156   4.113  13.005  13.567  0.0810 -0.2784  0.4234
 8310W        W25157   4.262  17.488  14.629  0.2762  0.0571 -0.2225
 8311W        W25158   5.923  10.933  11.046  0.2588 -0.4253 -0.2618
 8312W        W25159   6.648  10.965   1.768  0.1231  0.0613 -0.1651
 8313W        W25160  11.428  17.633   4.581 -0.1799 -0.2109 -0.0963
 8314W        W25161   8.402  18.276   5.395 -0.1103  0.2444  0.0150
 8315W        W25162   6.937   0.019   4.516 -0.3545  0.2103  0.0321
 8316W        W25163  13.683  10.965  15.014  0.1796  0.3440  0.0909
 8317W        W25164  13.208   4.162  14.407 -0.0596 -0.0392  0.2254
 8318W        W25165   0.350   5.926  14.312 -0.0157 -0.0293  0.1588
 8319W        W25166  10.764  17.968  14.303 -0.3253 -0.2424 -0.0784
 8320W        W25167  13.621  15.445   0.563  0.0834  0.0774 -0.2472
 8321W        W25168  13.968   8.284  16.047  0.1778  0.1142  0.2158
 8322W        W25169  10.065   7.654  13.368  0.2122 -0.0954 -0.0325
 8323W        W25170   5.410   1.195  12.432  0.0686 -0.3370  0.0210
 8324W        W25171   9.500  17.714   4.172  0.0070 -0.2986 -0.0963
 8325W        W25172  16.214   4.536   4.642  0.0371  0.1403 -0.0022
 8326W        W25173  12.291   6.601  12.516 -0.1084  0.0239 -0.1569
 8327W        W25174  13.774   4.644  11.644 -0.3293 -0.1183  0.0836
 8328W        W25175  14.134  17.256  11.672  0.1153 -0.5168 -0.0381
 8329W        W25176   6.680  15.650  10.348  0.0651  0.0819 -0.0738
 8330W        W25177  13.079  11.458   3.942 -0.1324 -0.1047 -0.0167
 8331W        W25178   6.200  17.150   1.824  0.0472  0.1792  0.0196
 8332W        W25179   1.151   3.029   3.233 -0.1693  0.1619 -0.2327
 8333W        W25180   3.279   5.795  16.128  0.0116 -0.1143 -0.0145
 8334W        W25181  11.295  14.925  12.247  0.3751  0.0554  0.3564
 8335W        W25182   1.461  12.011   0.328 -0.2759  0.0454 -0.0040
 8336W        W25183  16.973   9.110  14.646 -0.2854 -0.2736 -0.2509
 8337W        W25184  14.436   2.593   1.739 -0.3110 -0.2135 -0.2897
 8338W        W25185   4.591  11.183  11.709 -0.1981  0.2289 -0.2294
 8339W        W25186  10.138  16.800  15.472 -0.2016 -0.2040  0.2258
 8340W        W25187  17.042   4.274  13.929  0.0102  0.2348  0.1697
 8341W        W25188  10.804  10.734   4.370 -0.1975  0.0730 -0.2635
 8342W        W25189  16.418  12.867   5.132 -0.2907  0.1106  0.0038
 8343W        W25190   7.707  12.473  14.928  0.0617 -0.0459  0.2630
 8344W        W25191   1.759  10.563  13.159 -0.1739  0.0867 -0.0257
 8345W        W25192  15.300   7.841   9.851 -0.0421 -0.3487  0.2181
 8346W        W25193   2.262   1.555  15.279 -0.0677 -0.1395  0.1747
 8347W        W25194  11.497   9.488  13.640  0.3103 -0.0545 -0.0088
 8348W        W25195   2.917  16.934  14.619  0.1850 -0.2203  0.2652
 8349W        W25196  11.704   9.462   3.533  0.1565  0.0190  0.1027
 8350W        W25197  10.499   7.375  11.164 -0.0019  0.0734 -0.1211
 8351W        W25198   1.430  18.118  12.361  0.1760 -0.0352  0.2348
 8352W        W25199   5.997  12.059  12.388  0.0886  0.1112 -0.1009
 8353W        W25200   2.337   3.812  14.693  0.2064 -0.1497  0.0655
 8354W        W25201   7.222  12.376   1.124  0.1727  0.0978 -0.2346
 8355W        W25202  17.375  15.363   2.571 -0.1580 -0.0307 -0.1018
 8356W        W25203  14.519   7.662  10.888 -0.1619  0.3563 -0.0066
 8357W        W25204  13.904  12.358   4.381  0.0553  0.1263 -0.0337
 8358W        W25205   9.300   9.282   4.165 -0.0237  0.1224  0.0215
 8359W        W25206   8.737   5.913  11.275 -0.1886  0.0133  0.4308
 8360W        W25207  14.769  17.913   0.650  0.1935  0.0504 -0.2211
 8361W        W25208  11.226  13.707  14.800 -0.1597  0.2503 -0.0196
 8362W        W25209   7.081  14.821   3.205 -0.0624 -0.0988 -0.1077
 8363W        W25210   6.163  15.144  14.366 -0.1688  0.2031  0.0688
 8364W        W25211  16.564   7.583  10.204  0.0772  0.0767  0.2423
 8365W        W25212  16.678  11.402   4.492 -0.3349  0.1076 -0.0285
 8366W        W25213  16.906   4.802  12.704 -0.0090  0.3060 -0.0150
 8367W        W25214   6.442   0.745  15.453 -0.0296  0.1960 -0.0632
 8368W        W25215  10.049   4.341   4.829 -0.0708 -0.1018  0.0559
 8369W        W25216  13.719  12.443  15.138 -0.0049 -0.0216 -0.0663
 8370W        W25217   1.966   5.187  12.985  0.1258  0.0805 -0.0738
 8371W        W25218  14.837  13.313  14.568  0.2046 -0.1496  0.0845
 8372W        W25219  12.140   1.320   1.513  0.1115 -0.1892  0.0221
 8373W        W25220  16.066  16.496   4.430  0.0889 -0.0750  0.0825
 8374W        W25221  11.804   1.348   3.407  0.0543 -0.0130  0.0161
 8375W        W25222   3.523  16.380  14.745 -0.1071  0.0306  0.0696
 8376W        W25223  12.879   9.828   0.518  0.0126 -0.0943 -0.2467
 8377W        W25224  12.428   7.573   1.926  0.0785  0.0066 -0.0004
 8378W        W25225  14.558  17.145   5.352  0.0758  0.2862 -0.0889
 8379W        W25226   4.293  17.102  15.303 -0.1761  0.0114 -0.2988
 8380W        W25227  14.313   6.224   0.622  0.0823 -0.1199 -0.0281
 8381W        W25228   5.092   0.601   2.102 -0.1391 -0.0625 -0.0245
 8382W        W25229  11.780   9.657   0.413  0.0416 -0.1884  0.0180
 8383W        W25230   7.832  14.094   3.271 -0.1182 -0.0472 -0.0461
 8384W        W25231   3.922  17.537   0.221 -0.0850  0.0377 -0.0425
 8385W        W25232   5.706  12.263  13.983  0.1716  0.0465 -0.1627
 8386W        W25233  14.148  17.849  15.456 -0.0520 -0.0456  0.1041
 8387W        W25234   3.274  16.582   0.286  0.1731  0.2581 -0.0550
 8388W        W25235  16.782  17.803   0.261 -0.1378  0.1747 -0.0800
 8389W        W25236   7.519   9.335  12.482 -0.0117 -0.2642  0.2792
 8390W        W25237  15.179   9.054   3.465 -0.2227  0.0093  0.1337
 8391W        W25238   0.991   5.287  12.154  0.2136 -0.0568  0.2524
 8392W        W25239  16.375  15.130  12.255  0.1352 -0.1329  0.0336
 8393W        W25240  17.940  13.991  15.165 -0.0791 -0.4679  0.1474
 8394W        W25241  11.497   6.961  14.938  0.3746 -0.0283 -0.0111
 8395W        W25242  15.722   5.381  14.271  0.2809  0.1648 -0.0681
 8396W        W25243   8.389  12.998  13.172 -0.0451 -0.0173 -0.2169
 8397W        W25244   7.782  13.114  11.952 -0.2773  0.0286  0.0992
 8398W        W25245  11.021  10.845   0.458  0.1459 -0.1144  0.0673
 8399W        W25246  17.241  17.947  14.142  0.0824  0.0962 -0.1544
 8400W        W25247   0.206   4.019   2.893  0.4162 -0.0665  0.0105
 8401W        W25248   1.680  10.479   2.008 -0.1558 -0.1525  0.0961
 8402W        W25249   7.062  12.480   2.835  0.0716  0.0334  0.2941
 8403W        W25250   7.999   4.076   2.112  0.3507 -0.1902  0.2372
 8404W        W25251  10.662  10.450   2.507  0.2043 -0.1774 -0.0346
 8405W        W25252   9.073   8.008   0.297  0.0109  0.2597 -0.0391
 8406W        W25253  14.869  17.316   1.749 -0.1746 -0.1427 -0.0272
 8407W        W25254  10.692   7.092  12.045  0.0278  0.1943 -0.1060
 8408W        W25255   9.347   6.354  14.879 -0.2399  0.1371  0.1919
 8409W        W25256  16.232   0.097  10.509  0.2182 -0.2364 -0.0533
 8410W        W25257   5.952   7.279   3.059  0.0424 -0.0379 -0.0840
 8411W        W25258   1.235  16.933  12.860  0.0200  0.1993 -0.0293
 8412W        W25259  14.208  16.269  15.758  0.0092 -0.0324 -0.0353
 8413W        W25260   1.543  17.742  15.321  0.1776 -0.0378 -0.6300
 8414W        W25261   1.698   8.985   5.371  0.0112  0.2774 -0.0572
 8415W        W25262  17.591  13.151   0.802 -0.0363  0.1953 -0.0963
 8416W        W25263   3.923  11.133  13.503 -0.1250  0.0293 -0.0359
 8417W        W25264  12.434  17.466  15.887 -0.2912 -0.2694  0.1319
 8418W        W25265  18.206   2.359   2.336  0.1995 -0.1456  0.3391
 8419W        W25266   7.271  14.812   5.015  0.1412 -0.3421 -0.1306
 8420W        W25267   3.749   3.056  15.774  0.0170 -0.2124 -0.0944
 8421W        W25268   9.481   7.468  16.132 -0.0112 -0.2793  0.1248
 8422W        W25269   9.909   4.448   4.334  0.0332 -0.2938 -0.1234
 8423W        W25270  12.559  15.475  14.507  0.0096 -0.1627 -0.0621
 8424W        W25271   3.723   4.280  11.791  0.0379 -0.1008 -0.3105
 8425W        W25272  10.583  11.201   4.177 -0.2075  0.2986 -0.2259
 8426W        W25273   6.990   4.504  11.940 -0.0079 -0.2006 -0.0470
 8427W        W25274  12.362   7.246   5.629  0.1730  0.0966 -0.2528
 8428W        W25275  14.382   5.284  11.980  0.0789 -0.2904 -0.1906
 8429W        W25276  10.901  14.091   3.518 -0.2650 -0.0255 -0.1706
 8430W        W25277   1.296   9.159   0.279 -0.1643  0.3311  0.0389
 8431W        W25278  17.204   8.851  13.737 -0.3182 -0.0147  0.0576
 8432W        W25279   2.090   2.166   3.878 -0.1661 -0.0238 -0.1161
 8433W        W25280  15.255   0.638  15.226  0.0202  0.1739  0.0969
 8434W        W25281   7.378  12.263   0.608  0.0847  0.0439 -0.0045
 8435W        W25282   4.941  11.499   2.585 -0.3525  0.0473  0.0814
 8436W        W25283   8.030   7.383  12.178 -0.0173  0.3146  0.0833
 8437W        W25284   4.581   3.405  14.844 -0.0990  0.1558 -0.0593
 8438W        W25285  13.791  15.598   1.280  0.2689  0.4243 -0.0614
 8439W        W25286  12.339  12.451  10.566  0.1390 -0.2741 -0.0636
 8440W        W25287   2.475   3.445   0.290  0.0580 -0.3277 -0.1490
 8441W        W25288   1.119   7.376  14.902 -0.3481  0.1850 -0.0845
 8442W        W25289   7.462   0.196  13.534  0.0651 -0.2946  0.0943
 8443W        W25290   2.223  14.332   0.748 -0.0722  0.0108  0.0316
 8444W        W25291  16.805   5.833  13.415  0.1485 -0.0242 -0.0341
 8445W        W25292   8.706  17.513  14.221 -0.4063  0.0974 -0.1346
 8446W        W25293   9.028  18.095   2.675 -0.0737 -0.1093  0.4364
 8447W        W25294   9.852   6.564   0.475 -0.2258  0.3127 -0.0975
 8448W        W25295   0.177   3.169  13.805 -0.0309  0.2733  0.0718
 8449W        W25296  17.872   6.119  14.857  0.0486 -0.0459 -0.1156
 8450W        W25297   9.662   1.770   1.474  0.2215 -0.1732 -0.1370
 8451W        W25298   5.348   7.965   5.662 -0.0466  0.0206  0.1261
 8452W        W25299   6.000  17.404   5.510  0.0930  0.3842  0.2073
 8453W        W25300  10.584   7.404   3.270  0.0770  0.0591 -0.0428
 8454W        W25301  11.637  16.359   3.439 -0.2103  0.2804 -0.0680
 8455W        W25302   2.490  17.727   1.453 -0.2550  0.2675 -0.3234
 8456W        W25303   5.779   5.922  14.318 -0.3458 -0.3068  0.3040
 8457W        W25304  14.406  13.742  13.917 -0.0542 -0.0670 -0.2570
 8458W        W25305  12.545   7.146  16.111  0.0542 -0.2094  0.0813
 8459W        W25306   9.231  18.145  12.618  0.0748  0.1735  0.1912
 8460W        W25307   1.469   6.347  13.768 -0.0744  0.0771  0.3732
 8461W        W25308  17.959   0.711  11.638  0.0120  0.1881  0.1981
 8462W        W25309  13.897  14.691   2.952  0.0778 -0.4062  0.0247
 8463W        W25310   9.671  10.246  12.507 -0.3126 -0.0832  0.0284
 8464W        W25311  17.909   0.447  14.406  0.1697 -0.1049  0.6492
 8465W        W25312   8.701   6.402   4.735  0.2924 -0.1184 -0.2902
 8466W        W25313  15.963   1.531   3.086 -0.0051 -0.5091 -0.1209
 8467W        W25314   9.753   4.671  15.572 -0.0937 -0.5812 -0.1243
 8468W        W25315   7.679   2.771  12.399 -0.0413  0.2041 -0.1695
 8469W        W25316   1.258  18.175  11.456 -0.5606  0.2382 -0.0786
 8470W        W25317  11.330   8.867   4.560  0.1148  0.0402 -0.1814
 8471W        W25318  13.836  14.517   3.751  0.2811 -0.2064  0.1543
 8472W        W25319   0.187   9.032  15.102 -0.1371 -0.1800  0.1296
 8473W        W25320  16.431   0.520   9.999 -0.0859 -0.1433  0.2247
 8474W        W25321  13.524  10.516  15.167  0.2075  0.1075  0.2711
 8475W        W25322   2.160  17.595  10.212 -0.0885 -0.2650 -0.0459
 8476W        W25323   9.456   6.903   4.821  0.1772 -0.0601 -0.1721
 8477W        W25324  12.861   6.028   1.134 -0.1286  0.4063  0.1140
 8478W        W25325  14.870   5.107   2.938 -0.2761 -0.0277  0.1236
 8479W        W25326   9.804   7.876   2.278  0.1031  0.0383  0.0308
 8480W        W25327   6.028   7.773  13.265  0.1537 -0.0680  0.1125
 8481W        W25328  13.674   5.481  14.395  0.0077  0.0967 -0.1093
 8482W        W25329  16.905   6.381  14.044 -0.3240  0.0323 -0.0816
 8483W        W25330  17.900  17.742  11.138  0.1034 -0.1132 -0.1193
 8484W        W25331   3.403  13.196   1.190 -0.1853  0.0939 -0.1208
 8485W        W25332  15.314  14.737   5.034 -0.0375 -0.2602  0.1814
 8486W        W25333   6.890   6.028   1.689 -0.1598  0.0070 -0.2965
 8487W        W25334  14.493   1.881  15.321 -0.1182 -0.0715 -0.2389
 8488W        W25335   5.818   6.512  15.206 -0.4307  0.0914 -0.0349
 8489W        W25336  12.834  11.945   4.921  0.1536 -0.0892 -0.0238
 8490W        W25337  14.431  16.232  15.357 -0.1690  0.2147  0.2224
 8491W        W25338   9.300   1.860  12.889 -0.0036 -0.1583 -0.4081
 8492W        W25339   9.217  12.602  15.910 -0.0433  0.0257 -0.0030
 8493W        W25340  16.871  16.610  11.978  0.0382 -0.0615 -0.1300
 8494W        W25341   6.596   8.147  11.638 -0.1339  0.0893 -0.0997
 8495W        W25342   7.744  13.697  12.638  0.1349 -0.0554  0.1777
 8496W        W25343  16.556   6.561  16.106  0.0785 -0.1339 -0.2948
 8497W        W25344  12.575  10.748   0.005  0.0677 -0.0513  0.0015
 8498W        W25345   3.852   7.889  15.856  0.3163 -0.5378  0.0231
 8499W        W25346  12.967   0.854   4.279  0.1152 -0.1061  0.0939
 8500W        W25347  12.740  13.494  13.633 -0.0401  0.1248 -0.3429
 8501W        W25348   1.484  15.566   4.698  0.2204  0.0554 -0.1903
 8502W        W25349  15.374  14.980   1.204  0.0028 -0.1028  0.1388
 8503W        W25350  16.595   3.479  13.571 -0.0950 -0.1461 -0.0352
 8504W        W25351   2.640  18.149   1.694 -0.2685 -0.2622 -0.1910
 8505W        W25352   3.266   4.771  15.315  0.0058  0.0498 -0.2960
 8506W        W25353   7.145  17.985  14.652 -0.1666  0.0107  0.0548
 8507W        W25354   2.170  10.257  14.611  0.1454 -0.3185 -0.2542
 8508W        W25355   2.044  10.538   0.333 -0.0866  0.2273  0.1008
 8509W        W25356   2.603  17.155  12.938 -0.0885  0.1632  0.0702
 8510W        W25357   1.603   4.513  15.908  0.0964 -0.4588 -0.0257
 8511W        W25358   9.585   9.043  14.163 -0.3366  0.2981  0.3690
 8512W        W25359  11.768   3.632  13.254 -0.0170  0.3153 -0.0053
 8513W        W25360   8.724   1.752   1.528  0.0056 -0.1996 -0.0542
 8514W        W25361   6.082  15.775   0.886 -0.1799 -0.2307 -0.0232
 8515W        W25362   1.637   9.095  12.226 -0.1136 -0.0896  0.3357
 8516W        W25363  13.525  14.716  13.259 -0.1725 -0.2277  0.0959
 8517W        W25364  16.838   8.378  12.620 -0.2222  0.2376  0.3164
 8518W        W25365   2.738   2.317   1.949 -0.1676  0.0917  0.3434
 8519W        W25366  15.851   1.774   2.571  0.1875 -0.1243 -0.0073
 8520W        W25367   6.662   6.263   4.219  0.1087 -0.0122 -0.1303
 8521W        W25368   6.741  15.913   3.140 -0.2492 -0.0779 -0.0303
 8522W        W25369  12.363   7.814  13.901 -0.1203 -0.1183 -0.0669
 8523W        W25370   9.977   1.333   4.546 -0.0645 -0.0245  0.0706
 8524W        W25371   6.939  10.386   4.641  0.2512  0.1788  0.0734
 8525W        W25372  16.442  15.776  14.167 -0.1916 -0.0521 -0.2347
 8526W        W25373   4.812   5.580   4.792  0.0491 -0.1952  0.4124
 8527W        W25374   3.837  10.137   5.044 -0.3520 -0.0084  0.0403
 8528W        W25375  15.293   1.430  15.661 -0.1700  0.0803 -0.2660
 8529W        W25376  14.269  11.912   2.872  0.1232  0.0098 -0.1005
 8530W        W25377   7.808  13.878   5.310 -0.3602  0.2403 -0.3006
 8531W        W25378  17.557   8.222   0.856 -0.4143  0.1126  0.0237
 8532W        W25379   1.707   4.818  13.467  0.1858 -0.0933 -0.1776
 8533W        W25380  10.381  12.349  12.691 -0.1162 -0.0872 -0.4015
 8534W        W25381   4.478   1.907  11.677 -0.1380 -0.2567 -0.0401
 8535W        W25382   6.457  12.597   2.611  0.1802  0.0963 -0.1818
 8536W        W25383   5.456   3.216  15.302  0.0824  0.0549 -0.2405
 8537W        W25384   0.583   6.139  13.410 -0.3399  0.0708 -0.2439
 8538W        W25385   4.506   3.772   0.882 -0.1831 -0.2961  0.1235
 8539W        W25386   7.589  14.173  13.293  0.0039 -0.0687 -0.1618
 8540W        W25387   3.004  17.654   0.193 -0.1989  0.1632 -0.0032
 8541W        W25388   9.145  15.188   1.398  0.0850  0.0710  0.0717
 8542W        W25389  13.504   6.945  11.975  0.1714 -0.0466 -0.3035
 8543W        W25390   0.918  14.651  16.120 -0.0904  0.1870 -0.1633
 8544W        W25391  14.169   6.413  15.273 -0.1593 -0.1618  0.0077
 8545W        W25392  12.528   9.933  15.871 -0.1255  0.3174  0.3756
 8546W        W25393  10.163   5.421  14.593  0.1086  0.0678 -0.2189
 8547W        W25394   1.290   1.253   4.608 -0.1376 -0.0337  0.1971
 8548W        W25395   8.093   6.680  11.491  0.1072  0.2892  0.0353
 8549W        W25396  10.966   5.103   4.173 -0.3537  0.0315 -0.0884
 8550W        W25397   2.845   1.817   4.924 -0.0701 -0.1790  0.1794
 8551W        W25398  17.657   1.220   1.626  0.2916  0.2747  0.1996
 8552W        W25399  14.923   8.404   4.065  0.2373  0.0501 -0.0448
 8553W        W25400   9.433   9.784  12.565  0.2849 -0.1514  0.0552
 8554W        W25401   5.984  13.667  15.365  0.0012  0.0588  0.2287
 8555W        W25402   2.708   5.373   3.034 -0.2607  0.1479 -0.2221
 8556W        W25403   0.823   1.602  13.788 -0.1166 -0.0806 -0.3133
 8557W        W25404   2.641   6.994   0.818 -0.1671 -0.2706  0.1720
 8558W        W25405   5.216   0.625  12.456  0.2761 -0.0034  0.0701
 8559W        W25406   6.692  10.645  11.762 -0.0727  0.2433  0.1475
 8560W        W25407   2.943   5.269  14.624  0.0700  0.3372  0.0301
 8561W        W25408  17.942  11.469  12.156  0.2610 -0.3118  0.3766
 8562W        W25409   8.266   6.486  11.926  0.1875  0.0075  0.1193
 8563W        W25410   1.696   1.845  11.384  0.0616 -0.1444 -0.2521
 8564W        W25411   6.370  12.671  15.330  0.3437  0.0201  0.0794
 8565W        W25412   8.817   5.631  11.961 -0.2350  0.2985  0.0870
 8566W        W25413   1.408   1.197   3.670 -0.0294 -0.0654  0.1290
 8567W        W25414   0.769   5.001  11.266 -0.0169 -0.0370 -0.0082
 8568W        W25415  11.942   6.389  12.894  0.2330 -0.0345 -0.1134
 8569W        W25416  14.266   9.567   2.213  0.0815  0.1976  0.3032
 8570W        W25417   2.371   4.878  12.768 -0.1902 -0.0742 -0.2808
 8571W        W25418   8.480   9.426   0.435 -0.0313  0.2506  0.2240
 8572W        W25419   0.892   7.952   2.279 -0.3229  0.1053 -0.2007
 8573W        W25420   1.958  10.637   5.158  0.3437  0.0173  0.1644
 8574W        W25421   6.510   7.103   5.158  0.0717 -0.0498 -0.0839
 8575W        W25422  14.770   3.480  10.813 -0.3066  0.2605  0.2449
 8576W        W25423   7.117   3.035  10.963 -0.0605 -0.0889  0.0218
 8577W        W25424  15.688   6.754   2.814 -0.0199 -0.3016  0.1840
 8578W        W25425   4.798   2.644   1.777  0.1837 -0.1754  0.1139
 8579W        W25426  11.378   3.025  11.270  0.1032  0.1904  0.1545
 8580W        W25427   6.257  15.817  10.119  0.1046  0.0228 -0.2139
 8581W        W25428  12.357  15.586  14.075 -0.0186 -0.0765  0.0898
 8582W        W25429   8.790  13.569  10.705  0.1224 -0.2113  0.1226
 8583W        W25430   7.691   5.161  15.496 -0.1771 -0.1674 -0.1430
 8584W        W25431  11.272   4.516  14.179  0.0895 -0.3206 -0.0874
 8585W        W25432  10.326   0.217   2.222 -0.3864 -0.1239  0.1424
 8586W        W25433   2.068   7.365   2.185  0.1424  0.1286  0.3834
 8587W        W25434  14.814  10.237  13.436 -0.3989 -0.0311  0.1164
 8588W        W25435  17.781   5.935  13.893  0.0173  0.0884  0.2493
 8589W        W25436  14.186   7.290   1.040  0.1632 -0.0304 -0.2058
 8590W        W25437   3.072  15.717  10.849  0.0308 -0.1667  0.2486
 8591W        W25438   7.227  11.663  12.550  0.0086  0.1082  0.2814
 8592W        W25439  11.656   5.284  14.450  0.0053 -0.1720  0.1064
 8593W        W25440  10.266  11.891   0.115 -0.2291 -0.0414 -0.1945
 8594W        W25441  16.795   3.099   1.604 -0.1871 -0.1337 -0.0133
 8595W        W25442  11.620   9.756   5.889  0.0328  0.1211  0.1828
 8596W        W25443  14.136   0.536   5.907  0.1009 -0.1933 -0.1500
 8597W        W25444   6.555  10.236   3.785 -0.0082  0.1249  0.2812
 8598W        W25445   3.412  13.327  14.992  0.0100  0.0282  0.0963
 8599W        W25446  13.500  16.627   3.708 -0.2907 -0.2060 -0.1711
 8600W        W25447   2.651   9.426   2.272  0.0948 -0.1684 -0.3615
 8601W        W25448  16.360  12.087  12.252  0.2656 -0.2037  0.0539
 8602W        W25449  10.928  11.716   1.582  0.0773  0.1535 -0.0277
 8603W        W25450  16.045  15.201  13.960  0.0528  0.1125 -0.6030
 8604W        W25451   2.384  17.364  14.072 -0.3344 -0.4824 -0.0164
 8605W        W25452  16.777  11.296   1.576 -0.2322  0.1688  0.2776
 8606W        W25453  10.405   0.331   4.073  0.3455 -0.1059 -0.2531
 8607W        W25454  10.627   0.359  13.755  0.2045  0.0210  0.1552
 8608W        W25455   3.869   2.441   2.611 -0.0346  0.0191 -0.1981
 8609W        W25456   1.666   5.988   4.642  0.1332  0.2122  0.0326
 8610W        W25457   5.619   3.079  11.161  0.2687  0.0400  0.0429
 8611W        W25458  10.735  12.177   4.658  0.0948  0.1197 -0.1761
 8612W        W25459   2.749  15.349  11.804  0.1211  0.0741 -0.1723
 8613W        W25460  10.918  18.008   1.062 -0.0720  0.0167  0.2909
 8614W        W25461  14.002  10.455   3.172 -0.0059 -0.1591  0.0581
 8615W        W25462   5.767   0.845  11.462 -0.0750 -0.4208  0.1133
 8616W        W25463  14.488   8.947   2.148 -0.0334  0.0779  0.1577
 8617W        W25464  11.500   4.769  11.486  0.0310  0.0835 -0.2992
 8618W        W25465  12.087   1.111   2.449  0.2147  0.2019  0.2841
 8619W        W25466   9.133   4.326   4.624 -0.2833 -0.2299  0.0294
 8620W        W25467   1.045   0.229   5.824 -0.1920  0.3315  0.0377
 8621W        W25468   9.387  17.011  14.552  0.0293 -0.2958  0.1747
 8622W        W25469  14.238  13.637  10.695 -0.1241 -0.0012 -0.2964
 8623W        W25470   0.582   0.945  15.085 -0.2827 -0.2600 -0.1894
 8624W        W25471   4.057  10.741   4.220  0.1141 -0.0126 -0.0797
 8625W        W25472  17.868   9.684   3.576  0.0105 -0.3694  0.1733
 8626W        W25473  11.351  11.732   1.839  0.1437  0.0070  0.2132
 8627W        W25474  12.575  11.654  14.677  0.2412 -0.0042 -0.0942
 8628W        W25475   1.443   1.898   5.955 -0.1747  0.0778  0.2739
 8629W        W25476   4.614   7.089  12.266 -0.1540  0.0234 -0.0263
 8630W        W25477   0.935  16.875  11.984 -0.2126 -0.0388 -0.0409
 8631W        W25478   6.829   8.591  11.677 -0.3010  0.1802 -0.0586
 8632W        W25479   1.775   1.595  13.370  0.2444 -0.0352 -0.1035
 8633W        W25480  11.925  15.199   1.114  0.0219  0.2331  0.0623
 8634W        W25481  10.373  17.822  11.985  0.0748  0.2572 -0.1526
 8635W        W25482   0.363  13.588  11.689 -0.3495  0.1496 -0.2535
 8636W        W25483   7.640  14.263  15.498 -0.1092  0.0251 -0.0303
 8637W        W25484  11.332  12.243  15.606 -0.1639  0.1548 -0.0666
 8638W        W25485  10.960   5.871   1.812 -0.0201 -0.0275  0.0671
 8639W        W25486   6.643  15.459   0.090 -0.1203 -0.2442 -0.1872
 8640W        W25487   3.131  16.838   2.235  0.4588 -0.0472  0.3352
 8641W        W25488  18.137   4.285   1.597  0.1311 -0.0135  0.0623
 8642W        W25489  13.726  12.704   4.053  0.1452 -0.1550  0.5344
 8643W        W25490   8.588  12.248   5.705  0.1999 -0.1896 -0.3166
 8644W        W25491   9.421   7.473   4.781  0.1837 -0.2545 -0.3221
 8645W        W25492   6.538  11.131  15.820  0.0398  0.1240 -0.2418
 8646W        W25493  16.816  13.132  13.734 -0.1860 -0.0569  0.0956
 8647W        W25494   6.069  14.455   1.916 -0.0271 -0.0422  0.1348
 8648W        W25495  11.803  13.211  11.238 -0.0273 -0.2942  0.2991
 8649W        W25496   0.101   3.759   1.778  0.0537  0.0677 -0.0622
 8650W        W25497  17.511   3.015  12.269 -0.1378 -0.0397 -0.0126
 8651W        W25498   5.301   9.661   4.197  0.1371  0.0842  0.1387
 8652W        W25499  11.866  10.890  13.526 -0.2863 -0.0599 -0.3543
 8653W        W25500   7.962  11.779   0.850  0.0965 -0.4662  0.2267
 8654W        W25501   5.628   0.807  14.553  0.0467 -0.0487  0.4403
 8655W        W25502   4.351  13.961   2.142  0.2607 -0.0635 -0.0325
 8656W        W25503   8.225   1.381   3.935 -0.0248  0.0471 -0.0849
 8657W        W25504  13.536   2.929   2.113  0.2230  0.0121  0.2929
 8658W        W25505  16.483  17.797  14.761  0.3397 -0.5004 -0.1961
 8659W        W25506  15.232  10.688   1.982  0.0399  0.2446  0.0798
 8660W        W25507  17.720   9.177  15.826 -0.0688  0.3186 -0.0168
 8661W        W25508   7.620  15.865   3.651  0.3133  0.0542  0.0419
 8662W        W25509   0.134   8.108   0.990 -0.0004 -0.0887  0.1261
 8663W        W25510   6.797  17.492  15.911  0.0262  0.0740  0.0817
 8664W        W25511  15.888  10.259   1.660  0.1956 -0.1327 -0.1048
 8665W        W25512  11.751  14.375   5.263  0.0051 -0.0083  0.1579
 8666W        W25513   6.220   1.077   4.273 -0.2540 -0.1261 -0.0721
 8667W        W25514  17.376   1.116   0.553 -0.0364 -0.0591 -0.0781
 8668W        W25515   0.972  17.678  14.009 -0.0965  0.1736  0.2300
 8669W        W25516   6.267  11.689  12.258 -0.1543  0.2049 -0.4686
 8670W        W25517  12.419   8.672  14.660 -0.0038  0.0879  0.1450
 8671W        W25518   3.712   0.123   2.028 -0.1582 -0.0833  0.2590
 8672W        W25519   8.688  14.979  12.657 -0.0976 -0.0049 -0.0959
 8673W        W25520  11.183  11.497  16.020  0.2756  0.2304  0.0006
 8674W        W25521  10.462   4.415   0.671 -0.0403 -0.3803  0.1168
 8675W        W25522  14.925  16.960  13.195 -0.1112 -0.0539 -0.2810
 8676W        W25523  15.353   2.344  11.157  0.0007 -0.0261 -0.1995
 8677W        W25524  17.185   6.620  11.234  0.2850  0.1839 -0.1853
 8678W        W25525  17.285   7.327   1.371  0.1030 -0.1873 -0.1349
 8679W        W25526  12.404  15.673   0.592 -0.2769 -0.0443  0.1490
 8680W        W25527   0.471  14.408  13.146  0.0859  0.1696  0.0837
 8681W        W25528   1.907   8.030  11.840  0.0108 -0.1357 -0.0413
 8682W        W25529   3.184   8.991   3.570 -0.1544 -0.0437  0.3243
 8683W        W25530  10.625   0.382  13.037  0.1701 -0.2266  0.0063
 8684W        W25531  15.848   2.550   3.532  0.0531  0.1067  0.1778
 8685W        W25532  15.750   6.666   5.370  0.1470 -0.0869  0.0198
 8686W        W25533  11.913   1.129   1.020 -0.0811 -0.1053 -0.3144
 8687W        W25534   1.876  10.179   1.593  0.0127 -0.2060 -0.1685
 8688W        W25535   7.148  16.853   5.175  0.0025 -0.0249 -0.1437
 8689W        W25536   3.626   7.255   5.531 -0.0070 -0.1210 -0.1917
 8690W        W25537  15.452  14.826   4.291  0.1261  0.2067 -0.0399
 8691W        W25538   5.146  10.761   4.572  0.1384 -0.1492  0.0090
 8692W        W25539   6.278  15.358   1.060 -0.1315 -0.1365 -0.0376
 8693W        W25540  11.606   1.950  15.188 -0.0183  0.1231  0.0494
 8694W        W25541   0.895  12.068  13.733 -0.0159 -0.1849  0.0799
 8695W        W25542   2.279   7.451   3.019  0.0621 -0.2205 -0.0955
 8696W        W25543   0.785   9.091  16.052 -0.0532  0.0039  0.1406
 8697W        W25544   4.819  14.698  13.320 -0.4085  0.1514 -0.0757
 8698W        W25545   2.388  13.952  15.557  0.0053 -0.1519  0.3693
 8699W        W25546   4.581  11.852  14.290  0.1371  0.1575 -0.0807
 8700W        W25547  16.617   5.135  11.135  0.1228 -0.1187 -0.0423
 8701W        W25548  12.229   1.628   4.099 -0.2955  0.0452 -0.1542
 8702W        W25549   7.147   0.605   2.345  0.0151  0.0234  0.4062
 8703W        W25550   4.256  12.439   2.115  0.1643 -0.0402 -0.2283
 8704W        W25551  16.286  17.863  13.181 -0.2351  0.0977 -0.1558
 8705W        W25552  16.446   4.290  10.878  0.0904  0.1290  0.0361
 8706W        W25553  15.751  14.002   2.171 -0.0432  0.1319  0.0174
 8707W        W25554  14.672  13.144   4.649  0.0689  0.0951 -0.2210
 8708W        W25555  12.234  14.290   2.213  0.1584 -0.0495  0.4217
 8709W        W25556   9.019   0.098  13.025 -0.0890 -0.1976  0.0489
 8710W        W25557   2.636   9.701   5.702 -0.2575 -0.1261  0.0518
 8711W        W25558  13.486  11.599   5.745 -0.1325 -0.2731  0.1823
 8712W        W25559   0.634  15.471  15.106 -0.0949 -0.0524 -0.2270
 8713W        W25560   7.394  10.012   2.175  0.1147  0.1226  0.1418
 8714W        W25561  10.780   6.114  11.939  0.1903  0.0602 -0.1711
 8715W        W25562   6.486   7.366   4.768  0.0258  0.0842  0.0463
 8716W        W25563  17.513  12.614  11.920 -0.4465  0.0779  0.0507
 8717W        W25564   2.822  12.563   4.248 -0.2214  0.3202 -0.2422
 8718W        W25565   1.331  15.623  11.526  0.0140 -0.1663 -0.0063
 8719W        W25566  12.669  14.903  14.493  0.0450  0.0458 -0.1577
 8720W        W25567   7.668   4.934   0.193 -0.0866  0.0031 -0.0496
 8721W        W25568  16.051   0.227  15.490 -0.0384  0.1036  0.0821
 8722W        W25569   1.521   4.851  11.523  0.2961 -0.1491 -0.0591
 8723W        W25570   0.745   1.269   4.486  0.0283 -0.0639  0.0682
 8724W        W25571   9.750   3.162  15.686 -0.2834 -0.2994  0.0376
 8725W        W25572  10.836   7.068  13.066 -0.1140  0.2467 -0.1372
 8726W        W25573  16.582  12.106   2.101  0.0205  0.0336 -0.0716
 8727W        W25574   1.354   0.080   0.134  0.1242  0.0922  0.3967
 8728W        W25575   5.422  11.009   2.167  0.0314  0.0552  0.0460
 8729W        W25576  16.432  13.018  15.671  0.1215  0.0490  0.0588
 8730W        W25577   8.073   6.868  12.233  0.2835 -0.0589 -0.2032
 8731W        W25578  17.862   3.830   0.063 -0.2108  0.1338  0.0846
 8732W        W25579   8.680  14.171   4.858 -0.0916  0.2213 -0.2868
 8733W        W25580  10.999  16.914   0.010  0.2077 -0.1429  0.0186
 8734W        W25581   1.370   8.660  13.037  0.1076  0.1935 -0.4647
 8735W        W25582  12.966  14.334   3.695  0.1760  0.2092  0.0671
 8736W        W25583   4.478   6.946  12.952 -0.2073  0.0040 -0.0569
 8737W        W25584  15.031  16.348   3.492 -0.0098 -0.0869 -0.0185
 8738W        W25585   8.330  10.446  12.119  0.0895 -0.0839 -0.2324
 8739W        W25586  16.985   9.066   0.805 -0.3139  0.2495 -0.0083
 8740W        W25587   7.848   5.621  15.760 -0.0130 -0.1281  0.2624
 8741W        W25588  11.924  16.199  11.923 -0.3460  0.0688  0.0946
 8742W        W25589   2.727   6.213  13.631 -0.0522 -0.2744 -0.1422
 8743W        W25590  17.053   5.369  15.501 -0.2002  0.1530  0.1410
 8744W        W25591  18.197   3.986   0.913  0.3537  0.1353 -0.1173
 8745W        W25592   6.055   7.501   2.148  0.1384 -0.0158 -0.0203
 8746W        W25593   1.669  11.348   2.390 -0.3500 -0.2177 -0.0944
 8747W        W25594   3.556   2.862  12.610  0.3068  0.1467  0.1266
 8748W        W25595   6.444  12.349  15.741  0.0091  0.0498 -0.0800
 8749W        W25596  13.545   2.041   1.511  0.2609 -0.1761 -0.1545
 8750W        W25597  17.038   7.444  12.621 -0.0535  0.1289  0.2381
 8751W        W25598   5.334   3.672   5.032 -0.0425 -0.3143 -0.4018
 8752W        W25599   4.051  14.447  14.738  0.1169  0.1158  0.3217
 8753W        W25600   6.802   9.726  12.624  0.1480 -0.0261  0.0116
 8754W        W25601   2.527   7.413   2.079  0.0119  0.2104  0.0297
 8755W        W25602  18.195  17.567  12.528 -0.0966  0.0635 -0.3994
 8756W        W25603   3.066   2.000  14.821  0.0611 -0.0026  0.0907
 8757W        W25604   7.929  16.636   2.014  0.0703 -0.0964  0.1760
 8758W        W25605  18.107  11.800  13.694  0.0259  0.0251 -0.0061
 8759W        W25606  17.554   9.235  15.258  0.0371  0.1902 -0.2949
 8760W        W25607   6.709  16.952   4.472  0.0914 -0.2430  0.0220
 8761W        W25608   0.753   8.629  11.258  0.0987  0.2503 -0.1670
 8762W        W25609  16.658  15.501  16.133  0.2880 -0.3358  0.3055
 8763W        W25610   5.095  11.484  13.821 -0.1165 -0.0804  0.3168
 8764W        W25611   5.580  13.410  14.440  0.4266 -0.2045 -0.0534
 8765W        W25612  13.089  13.298   1.583 -0.2156 -0.3566 -0.1196
 8766W        W25613   2.465   3.394   1.572 -0.1863  0.0277  0.1969
 8767W        W25614  10.861   3.576  13.372  0.0406  0.3223  0.1711
 8768W        W25615  12.321   2.160   2.983  0.0185 -0.0714  0.1105
 8769W        W25616   4.068  14.561   0.766  0.1503 -0.0765 -0.2161
 8770W        W25617   1.545  16.421   5.582  0.2266  0.1455  0.3289
 8771W        W25618   4.162  14.582   4.523  0.1239  0.0219  0.2239
 8772W        W25619   9.515   3.586   2.489 -0.0615 -0.1671  0.3261
 8773W        W25620  15.761   0.665   0.937 -0.0951 -0.1590 -0.1465
 8774W        W25621  13.054  14.940  12.517 -0.1710  0.1246 -0.2201
 8775W        W25622   1.404  11.323  14.997  0.0651 -0.1974 -0.2983
 8776W        W25623  18.021   3.814   1.410 -0.0536 -0.0108  0.2482
 8777W        W25624   3.335  14.736   5.184 -0.1511 -0.0494  0.1065
 8778W        W25625   9.481  15.558   2.423 -0.2456  0.0456 -0.1711
 8779W        W25626  10.652   8.536   3.664  0.4648  0.4135 -0.1101
 8780W        W25627   0.518   7.332   3.173  0.1254 -0.0516 -0.1317
 8781W        W25628  11.391  10.019  14.863  0.1123  0.3083  0.0616
 8782W        W25629  11.521  11.073   6.119 -0.0547 -0.2750 -0.0053
 8783W        W25630   1.478  15.111  14.869  0.0156 -0.3224  0.3342
 8784W        W25631   9.120  12.235   2.453  0.0259  0.2452  0.1603
 8785W        W25632  14.526   4.538  13.724 -0.2956  0.2080  0.1497
 8786W        W25633   5.959  17.830  15.732 -0.0904 -0.2005 -0.0116
 8787W        W25634  12.201  15.465   3.424  0.1062 -0.5485 -0.4882
 8788W        W25635  16.054   7.698  16.058  0.0514 -0.2849 -0.1659
 8789W        W25636  14.658  16.378   4.282 -0.1269  0.1452 -0.0314
 8790W        W25637   9.413   9.284  11.717 -0.1081 -0.1336 -0.3696
 8791W        W25638   3.680   9.405  11.792 -0.0090  0.0442  0.1611
 8792W        W25639  11.558  14.117  14.960 -0.0019  0.1345 -0.0749
 8793W        W25640  17.997  13.294  13.780  0.1154 -0.2444 -0.0084
 8794W        W25641  15.324  17.858  13.362  0.3743  0.0304 -0.3165
 8795W        W25642   4.805   9.004  15.438  0.1545  0.2918  0.1028
 8796W        W25643   4.922  15.180  12.615 -0.2597  0.0070 -0.1428
 8797W        W25644   0.355   8.446  12.563 -0.0611 -0.1054 -0.2525
 8798W        W25645   1.353  11.045  15.681  0.0829  0.1470  0.0249
 8799W        W25646   0.214   5.588   0.346 -0.0175 -0.0186 -0.0535
 8800W        W25647   9.993  16.403  10.583  0.0639 -0.0028  0.1158
 8801W        W25648   3.338   6.039   2.893 -0.0533 -0.1259  0.1877
 8802W        W25649   0.783  18.002  11.631 -0.4071  0.1153  0.1799
 8803W        W25650   5.521   4.885   4.473 -0.1941  0.2192  0.0450
 8804W        W25651  17.104  14.958   3.728  0.2455 -0.1046  0.5115
 8805W        W25652  15.621  16.750  14.697 -0.1502  0.0320  0.0047
 8806W        W25653  17.806  12.609  15.460 -0.0644 -0.1807  0.1394
 8807W        W25654  15.539   9.662   4.800 -0.3029 -0.0367 -0.1330
 8808W        W25655  15.749   0.773  15.265 -0.0975  0.1226 -0.1287
 8809W        W25656  11.108   5.953   0.505  0.2438  0.1222 -0.1886
 8810W        W25657  14.123   0.966  10.911 -0.1193  0.0569 -0.2079
 8811W        W25658  12.948   1.489   0.251 -0.3681  0.3071  0.3427
 8812W        W25659  17.794   3.372  15.993  0.0014 -0.1357 -0.1149
 8813W        W25660  10.060   7.175   4.170  0.1112  0.3579  0.1646
 8814W        W25661  15.783   7.054  11.326  0.1453 -0.3362  0.2203
 8815W        W25662  15.409  15.245  15.670  0.5217  0.2759 -0.0332
 8816W        W25663  17.303   6.746  14.048  0.0344  0.5570  0.1568
 8817W        W25664  17.379  11.570   2.469  0.3186  0.4023 -0.0875
 8818W        W25665  16.403  10.226  13.845 -0.0431 -0.0211  0.3351
 8819W        W25666  11.417  11.756  14.080 -0.0392 -0.0939 -0.0096
 8820W        W25667   2.031  10.701  14.499  0.3959 -0.0953  0.0912
 8821W        W25668   2.368  11.232   3.389 -0.1503 -0.3398  0.3006
 8822W        W25669   2.612   3.843   4.571  0.1178 -0.0569 -0.0280
 8823W        W25670  12.694   3.494   0.905 -0.2066 -0.0020 -0.3562
 8824W        W25671   5.611  16.791   3.648  0.2102 -0.2406 -0.0047
 8825W        W25672  13.443  11.406   0.046  0.0511 -0.0815  0.0398
 8826W        W25673   3.511  14.412   2.375  0.4350  0.2064 -0.0525
 8827W        W25674   9.039   5.045  13.917 -0.0868  0.0523  0.1026
 8828W        W25675   2.172   3.821   3.717  0.3339 -0.1085 -0.0246
 8829W        W25676  17.688   1.010   5.312 -0.1126 -0.2161 -0.0061
 8830W        W25677   2.369   2.512   2.310  0.2870  0.1809 -0.2362
 8831W        W25678  18.309  16.844   2.795 -0.0949  0.0520  0.1457
 8832W        W25679   6.017   1.662  12.607  0.5977  0.2208 -0.0881
 8833W        W25680  12.515   7.176  13.472  0.0074  0.0699  0.0015
 8834W        W25681   4.955   2.384  12.112 -0.2213 -0.0202 -0.1148
 8835W        W25682   6.788   7.204   2.715  0.4266  0.1633 -0.2592
 8836W        W25683  14.046  15.449   3.946  0.2404 -0.2657 -0.2431
 8837W        W25684  17.855   1.327   2.220 -0.1920 -0.2250  0.0810
 8838W        W25685  12.289   9.192  10.970 -0.2912  0.0418  0.0100
 8839W        W25686   0.664  15.855   5.001 -0.1302  0.3184  0.3152
 8840W        W25687  15.878   4.888  13.338  0.1156  0.1521  0.4113
 8841W        W25688  12.802   5.098  14.335 -0.0855  0.2854 -0.3167
 8842W        W25689  11.773   1.966   2.104 -0.1267 -0.1572  0.0660
 8843W        W25690   8.622   2.646  13.275  0.0597 -0.0224  0.2160
 8844W        W25691  12.481  13.327  13.207  0.3947 -0.0977 -0.2781
 8845W        W25692   6.598   7.333  14.593  0.0764 -0.1833  0.0801
 8846W        W25693   2.173   8.343  15.239 -0.0604 -0.1662 -0.1838
 8847W        W25694  15.682  11.858   3.692 -0.0064 -0.1070  0.1063
 8848W        W25695  14.215  12.720   0.415  0.0028  0.2089  0.2764
 8849W        W25696   6.632   3.679  12.189  0.2366 -0.3299 -0.2723
 8850W        W25697   5.303   5.437   1.071 -0.2180 -0.1232 -0.0148
 8851W        W25698   6.699   7.918   3.833  0.1968 -0.1794 -0.0386
 8852W        W25699   6.176   4.269   1.938 -0.0246  0.0341  0.2737
 8853W        W25700  14.457   1.662  12.565 -0.1948 -0.1383  0.1981
 8854W        W25701   2.912   3.588  14.811  0.0975 -0.1200 -0.1552
 8855W        W25702  12.786   6.977  13.904  0.1693  0.0791 -0.0610
 8856W        W25703  16.615   4.516  13.017 -0.1302 -0.1567 -0.2231
 8857W        W25704   2.439   0.751  14.935 -0.2792 -0.0164 -0.1021
 8858W        W25705   1.111  10.671  13.346 -0.1453 -0.2253  0.1398
 8859W        W25706  11.014   9.983  11.366 -0.2279  0.0601  0.2872
 8860W        W25707   3.342  12.909  12.535 -0.0251 -0.1160 -0.2822
 8861W        W25708   5.071   4.335   0.412 -0.3152  0.1539  0.1887
 8862W        W25709   1.147   9.448   6.285  0.1780 -0.1243  0.2434
 8863W        W25710  11.038   4.699   0.525  0.1813  0.0441 -0.0716
 8864W        W25711   1.330   8.703  13.564  0.2482 -0.2280 -0.0457
 8865W        W25712  11.315   2.860  14.957 -0.0743 -0.0226 -0.3191
 8866W        W25713  17.793  13.701  13.532 -0.1179 -0.2999 -0.1468
 8867W        W25714   4.239   8.197   3.717 -0.1177  0.2138 -0.0062
 8868W        W25715   4.198   1.887   5.073 -0.0066  0.0885  0.2713
 8869W        W25716   5.500   7.999  14.374 -0.1644 -0.2510  0.0308
 8870W        W25717  17.752   2.407  11.685  0.0390  0.0516 -0.0599
 8871W        W25718  15.654   4.455  13.399  0.1482  0.1149 -0.0260
 8872W        W25719  10.725   7.376   4.188 -0.2290  0.2347  0.2068
 8873W        W25720   7.278   2.457  12.233  0.0098 -0.0439  0.0814
 8874W        W25721   0.862  18.284   1.281  0.2874 -0.0973  0.0704
 8875W        W25722  11.213  12.850   2.102 -0.1588 -0.1804  0.1329
 8876W        W25723   4.970  10.466  12.203 -0.0979  0.2595  0.1428
 8877W        W25724   4.771  13.997  13.899 -0.2666  0.0805 -0.1319
 8878W        W25725  17.440   9.097   1.152 -0.1887 -0.2147 -0.0570
 8879W        W25726   8.238   7.447   0.636 -0.1066 -0.0885  0.0250
 8880W        W25727  12.384   4.262  14.487  0.0851  0.2997  0.0637
 8881W        W25728  13.555  12.905  13.434 -0.2250 -0.0632 -0.0060
 8882W        W25729  10.608   1.152   3.989 -0.3337 -0.1614 -0.2905
 8883W        W25730   8.650   3.269   2.238 -0.1066 -0.0436 -0.1010
 8884W        W25731   6.019  17.889   4.182 -0.1930 -0.1627  0.3223
 8885W        W25732  16.413  11.454   1.031 -0.0610 -0.0652  0.1855
 8886W        W25733  16.207   3.378  13.905  0.1119 -0.3231  0.2554
 8887W        W25734   5.483   3.496   1.964 -0.0437 -0.1513 -0.2236
 8888W        W25735   6.455  12.893   2.125  0.0276  0.0173 -0.0820
 8889W        W25736  13.679   2.364   3.089  0.0839  0.1180  0.1875
 8890W        W25737  12.366   2.675   3.679  0.1805  0.2730  0.1661
 8891W        W25738   7.170   4.170  13.833  0.0020 -0.2935 -0.1271
 8892W        W25739   1.988   8.856   2.085 -0.0085 -0.1127  0.1377
 8893W        W25740   6.997  17.910   2.783 -0.3366 -0.1020 -0.1128
 8894W        W25741   8.666   4.664   1.928 -0.0631 -0.0555 -0.2574
 8895W        W25742  16.312   8.038   1.298  0.0501 -0.0054 -0.4040
 8896W        W25743   6.550  10.072  15.003  0.0961 -0.2074 -0.2619
 8897W        W25744   7.978   0.787   2.033  0.2048  0.2760 -0.2085
 8898W        W25745  10.196   0.730  12.422  0.0064  0.0761  0.0174
 8899W        W25746  12.679   8.722   4.136  0.0324 -0.3739 -0.2740
 8900W        W25747   9.592  12.290  13.851  0.1271 -0.2504  0.3232
 8901W        W25748  12.492   5.418  15.020  0.1424  0.1216  0.0050
 8902W        W25749   7.361   8.820   3.306  0.0031  0.1251  0.2349
 8903W        W25750   2.623  16.002  12.062  0.1561 -0.1187  0.1790
 8904W        W25751  11.162   6.398   3.050  0.0064  0.3058 -0.0098
 8905W        W25752  17.589   9.689  14.220 -0.0696 -0.1527 -0.1227
 8906W        W25753   9.410   8.277   4.587  0.2595 -0.0343 -0.0127
 8907W        W25754   9.880  12.183   2.971  0.4346 -0.0025  0.0499
 8908W        W25755   8.710  15.721   4.131 -0.1173 -0.1471  0.0138
 8909W        W25756   8.820   7.099   5.880  0.1553 -0.3232  0.0804
 8910W        W25757  11.745  18.172   2.329 -0.3591  0.1064 -0.4236
 8911W        W25758   1.941   7.985  13.543  0.0714 -0.0559 -0.2603
 8912W        W25759   5.783   9.476  12.734  0.1182  0.2442 -0.0276
 8913W        W25760   5.209   1.100  15.815  0.2146  0.0049 -0.3439
 8914W        W25761   2.571  12.511  15.487  0.1635 -0.2543 -0.0209
 8915W        W25762   1.131   0.898   3.362  0.0887 -0.5127 -0.1493
 8916W        W25763   4.910  14.740   2.708 -0.2091 -0.0982 -0.0305
 8917W        W25764   2.202   7.915  14.927  0.0690 -0.0668 -0.1405
 8918W        W25765  16.510  11.728   3.561 -0.2888  0.3623 -0.1449
 8919W        W25766   6.974  13.437  11.671 -0.0663 -0.3937  0.0326
 8920W        W25767   1.977  18.059  16.006  0.3127 -0.0232 -0.2133
 8921W        W25768   7.995  16.819   3.308  0.0947 -0.0583 -0.1839
 8922W        W25769   5.113  17.494   2.949  0.0703 -0.0128  0.1426
 8923W        W25770  18.128  17.626   0.532  0.1570  0.0329  0.0044
 8924W        W25771   3.465  16.749  13.915  0.2250  0.0345  0.0266
 8925W        W25772   0.225  16.788  11.938  0.0855 -0.0063  0.1427
 8926W        W25773   0.731  16.316  13.401 -0.0884 -0.1088  0.0882
 8927W        W25774  15.485   1.435   2.577 -0.1777  0.4597 -0.1092
 8928W        W25775   2.624  17.095   4.041  0.1724 -0.2574  0.0102
 8929W        W25776  14.491   8.844  12.769 -0.0337 -0.0240  0.1674
 8930W        W25777  18.332  12.938  12.979  0.2077 -0.0505  0.3310
 8931W        W25778   3.964  10.192  13.813 -0.2409 -0.0992 -0.0255
 8932W        W25779  14.257   2.641   4.630 -0.0580 -0.1082 -0.0102
 8933W        W25780  13.594  15.462   2.289 -0.2347  0.1258  0.2124
 8934W        W25781   9.004  17.371   0.962 -0.1369 -0.0010 -0.1389
 8935W        W25782  12.557   0.402  15.955 -0.0093  0.0526 -0.2706
 8936W        W25783   5.158  17.156  15.680  0.2922 -0.0944  0.2012
 8937W        W25784  16.838  11.726  10.607 -0.0122  0.1271  0.1165
 8938W        W25785   9.256   1.075   0.286 -0.3329  0.0099 -0.2954
 8939W        W25786  17.129   8.387  13.021  0.1321  0.0061 -0.0384
 8940W        W25787   7.595  17.014   3.043  0.1647  0.0758  0.0458
 8941W        W25788  14.800   8.576  11.889 -0.2760  0.1051 -0.1734
 8942W        W25789  16.775   4.691  14.912  0.1286  0.0893  0.2275
 8943W        W25790   6.624  15.019   4.903  0.2247  0.2790 -0.2444
 8944W        W25791   3.203   7.769   4.189 -0.2994  0.1439  0.0051
 8945W        W25792   4.577  11.268   1.157  0.1294  0.1028  0.0376
 8946W        W25793  10.562  17.582   4.157  0.2850  0.0141  0.0187
 8947W        W25794  14.472  10.124   1.942 -0.2339 -0.0858  0.1278
 8948W        W25795  16.281  18.259  11.693 -0.0298  0.0967 -0.1915
 8949W        W25796   2.400   4.799   0.122  0.2265 -0.1929 -0.0757
 8950W        W25797  17.465   1.822   0.536 -0.1855  0.1544  0.0249
 8951W        W25798   1.082   6.611   2.704 -0.1710  0.2364  0.0536
 8952W        W25799   8.794  12.308   0.403  0.0952 -0.1602  0.0296
 8953W        W25800  15.972  18.047   4.505 -0.0273  0.1599  0.0050
 8954W        W25801  10.257  11.172   4.551  0.1059 -0.3005  0.2590
 8955W        W25802   6.028   2.271   4.794 -0.0291  0.1771  0.1455
 8956W        W25803   5.496   7.493   4.992  0.0624  0.0684  0.1318
 8957W        W25804  15.769   9.239  13.722  0.2273  0.3298  0.0336
 8958W        W25805   8.669   8.145   4.586  0.1512  0.0717  0.2335
 8959W        W25806   6.965  17.353  13.254  0.1216 -0.0106 -0.1205
 8960W        W25807   2.743   7.058   4.615  0.0069 -0.2551  0.2986
 8961W        W25808  11.235  18.141  15.363 -0.0427  0.3118 -0.2088
 8962W        W25809  16.774  13.081   2.375 -0.0688  0.1858  0.0524
 8963W        W25810  10.653  17.212   5.790 -0.0517 -0.4206  0.0131
 8964W        W25811  13.715   1.601  11.825  0.0887 -0.1779  0.2476
 8965W        W25812  17.577   5.870  12.275 -0.0745 -0.2710 -0.0429
 8966W        W25813  10.741  13.835   2.606  0.0627  0.0060  0.1981
 8967W        W25814  11.379   5.920   4.359 -0.0065  0.0025 -0.1915
 8968W        W25815  14.193  11.142   3.847 -0.0201 -0.3505  0.0809
 8969W        W25816   2.342   2.063   5.549  0.1238  0.1499 -0.0742
 8970W        W25817   4.888   2.881   3.599  0.1797 -0.1677  0.0874
 8971W        W25818  10.165   1.148   0.055 -0.1013 -0.0323 -0.2525
 8972W        W25819  16.354  10.453   1.800  0.0957  0.1593  0.1576
 8973W        W25820  17.771   3.886   2.408  0.0659 -0.0995 -0.2409
 8974W        W25821   0.858  14.531  11.893  0.3806 -0.1643  0.0112
 8975W        W25822   1.263   6.045  14.427 -0.1499  0.0932 -0.1317
 8976W        W25823   7.377  17.991  12.377  0.2008 -0.0528  0.2196
 8977W        W25824  10.592   0.933   0.215  0.1951  0.1433  0.0616
 8978W        W25825  13.725  11.941  12.919  0.1362  0.0974  0.1625
 8979W        W25826   9.837   3.179  14.354  0.0876  0.0274  0.0688
 8980W        W25827  15.503  11.484  13.121  0.0915  0.2180  0.1145
 8981W        W25828  15.051   6.208  14.580  0.0350 -0.0920 -0.3581
 8982W        W25829  12.231  10.815   3.108  0.3345  0.2208  0.1136
 8983W        W25830  17.965   9.558   5.062 -0.0372 -0.0289  0.1581
 8984W        W25831  14.337   4.459   4.721  0.2701 -0.1719  0.0751
 8985W        W25832  11.914   1.677  13.063 -0.1354 -0.2253 -0.3472
 8986W        W25833  16.099  10.634   5.078  0.3369 -0.0189  0.1842
 8987W        W25834   4.039  17.218   6.063 -0.2490  0.1220 -0.0906
 8988W        W25835   6.274   1.380   6.418  0.2808  0.0060 -0.1360
 8989W        W25836  15.350  11.721  14.714  0.2025 -0.1476 -0.1811
 8990W        W25837   4.409  17.249   1.087 -0.0118 -0.4184  0.0949
 8991W        W25838   4.872   2.588  14.867 -0.0842  0.4021 -0.0162
 8992W        W25839  12.233   3.595   0.709 -0.2983  0.3239 -0.1711
 8993W        W25840   0.831   0.880   4.149 -0.1171 -0.0032 -0.2990
 8994W        W25841  14.163   9.785  12.097 -0.1521  0.1931  0.3903
 8995W        W25842   5.984   3.907   3.074  0.1397 -0.0626  0.1978
 8996W        W25843  11.308   7.800  16.139  0.1571  0.1945 -0.0350
 8997W        W25844  14.278  17.218  11.089 -0.2389  0.2037  0.0992
 8998W        W25845  15.866  16.542   0.301  0.3744 -0.1729  0.2766
 8999W        W25846   3.049  16.460  14.672  0.1809  0.1010 -0.0787
 9000W        W25847   8.047   0.245  12.918 -0.0580 -0.2880  0.0907
 9001W        W25848   0.669  15.825   1.156 -0.1738  0.0945 -0.1816
 9002W        W25849  16.794   0.193  13.660  0.0373  0.0228 -0.2390
 9003W        W25850  13.788  15.893   2.478  0.0494  0.0700 -0.1254
 9004W        W25851  11.169  15.461  15.800 -0.0556  0.3235 -0.1815
 9005W        W25852   9.688   3.040  10.979  0.1842 -0.1805 -0.1087
 9006W        W25853   3.098  12.480  13.785  0.2363 -0.1966  0.2534
 9007W        W25854   4.274  12.832  10.779  0.2611 -0.0523  0.0974
 9008W        W25855   4.526   1.291   2.646 -0.0436 -0.0542  0.1845
 9009W        W25856  14.859   7.898  11.210 -0.0812  0.1484 -0.0367
 9010W        W25857   5.097   3.362   2.396 -0.0820  0.3823  0.0210
 9011W        W25858   6.181   5.811  16.177 -0.1004  0.1378  0.0478
 9012W        W25859  12.215   2.159  14.239 -0.2149 -0.0859  0.1990
 9013W        W25860   5.555   9.003   2.636  0.0984 -0.2525 -0.0984
 9014W        W25861  12.208  18.095   4.075  0.0611  0.3187  0.1093
 9015W        W25862  15.809   4.609  12.467 -0.0045  0.0203 -0.2672
 9016W        W25863   4.133   1.801  13.761  0.0807 -0.0122 -0.2209
 9017W        W25864   2.109  18.283  11.029 -0.1430  0.0653 -0.0798
 9018W        W25865   8.751  10.271  12.884  0.0064 -0.1101  0.1934
 9019W        W25866   9.948   5.377  14.107  0.1033 -0.2703 -0.0303
 9020W        W25867  13.579  14.389   3.205 -0.1687 -0.3864 -0.0946
 9021W        W25868  13.739   5.778   4.264 -0.1864  0.3339 -0.0127
 9022W        W25869  16.560  13.097  12.694 -0.0335  0.1237 -0.0392
 9023W        W25870   1.043   9.703   4.038 -0.1463  0.0186 -0.1683
 9024W        W25871   5.140  14.313  13.326 -0.0564  0.0337 -0.4551
 9025W        W25872   6.962   8.733   4.072 -0.4733 -0.0467 -0.1256
 9026W        W25873  17.574  14.424   4.865 -0.0640 -0.1018  0.0494
 9027W        W25874  16.970   5.756  12.887 -0.0368 -0.0912  0.1860
 9028W        W25875   0.115  16.061   3.349 -0.0236  0.3926  0.2220
 9029W        W25876  11.659  17.055   4.631 -0.2122 -0.0272  0.2623
 9030W        W25877   2.984  17.319   5.360  0.0017  0.6177 -0.0324
 9031W        W25878  15.479  17.732   4.611 -0.2413 -0.0981 -0.1175
 9032W        W25879   1.526   4.308  14.260 -0.0014  0.1072  0.0279
 9033W        W25880   9.635   5.231   5.565  0.3374  0.2628 -0.1071
 9034W        W25881   1.690  16.529  12.194 -0.2927 -0.0740 -0.2127
 9035W        W25882   3.050   1.938  15.430  0.0874  0.0884  0.2511
 9036W        W25883   4.364   7.436   3.089  0.1707  0.1388 -0.1336
 9037W        W25884   7.958  17.172   1.147 -0.3965  0.3458 -0.0220
 9038W        W25885  16.875   1.551   1.063 -0.0505 -0.0939 -0.1978
 9039W        W25886  16.325   5.551  11.120 -0.1471  0.0828 -0.0286
 9040W        W25887   6.670  16.643   3.382  0.0126  0.1067 -0.0735
 9041W        W25888   4.947   9.511   5.551  0.3175  0.1084 -0.1427
 9042W        W25889   9.433  16.003   0.853 -0.0499 -0.1051  0.0810
 9043W        W25890   5.659  15.216  11.883 -0.2188  0.0219 -0.0953
 9044W        W25891  10.874  12.828  12.803 -0.0201  0.0942  0.0793
 9045W        W25892  17.995  11.458   0.185 -0.1223 -0.1652  0.2030
 9046W        W25893  12.974   8.052  14.411  0.3574 -0.1631 -0.0740
 9047W        W25894  17.061  15.641  15.429 -0.1464 -0.2018  0.2120
 9048W        W25895   5.236  13.792  14.647 -0.1681  0.0869  0.1511
 9049W        W25896   8.576   7.543  13.327  0.1029 -0.0396  0.1712
 9050W        W25897  12.319   1.584  14.239 -0.0308  0.2047 -0.2260
 9051W        W25898   0.545  12.780  11.299 -0.0587 -0.1385 -0.1419
 9052W        W25899   3.380   3.520   3.922 -0.1578  0.2332 -0.0245
 9053W        W25900  17.409  16.536  13.773 -0.1318  0.0090 -0.0690
 9054W        W25901  10.852   1.527  12.847 -0.1730  0.1099 -0.1485
 9055W        W25902   6.133  12.059   2.064  0.1178 -0.0311  0.1969
 9056W        W25903  16.450  11.646   5.364  0.1908 -0.2201 -0.0922
 9057W        W25904  15.946   3.037  11.332 -0.0739  0.1285 -0.2264
 9058W        W25905   8.013  11.353   2.226 -0.3303 -0.0792 -0.0053
 9059W        W25906   5.055   0.031   2.983  0.0175  0.0104 -0.1094
 9060W        W25907  15.168   5.198  14.508 -0.1029 -0.2203  0.0138
 9061W        W25908  12.428  12.124  15.508  0.1264 -0.0453 -0.1254
 9062W        W25909  18.216  12.448  16.120 -0.2338 -0.0148  0.0888
 9063W        W25910  10.259  10.874  11.994  0.0911 -0.2807 -0.1189
 9064W        W25911   3.809   5.736   3.667 -0.2733  0.0651  0.2497
 9065W        W25912   4.680   3.890   3.988  0.0227  0.0362  0.0051
 9066W        W25913   7.395   5.787  11.437  0.2744  0.0164 -0.0874
 9067W        W25914  14.752   6.005   1.838  0.2331  0.0699 -0.2239
 9068W        W25915   7.355  14.437   0.697  0.0062 -0.0868  0.0630
 9069W        W25916  14.127   6.099  16.112 -0.0290  0.1070  0.1411
 9070W        W25917  16.660   3.305   2.854 -0.0528  0.2532  0.0215
 9071W        W25918  13.102   9.826  15.748 -0.1095 -0.3444 -0.0357
 9072W        W25919   2.237  16.234  14.791  0.0191  0.2233 -0.1386
 9073W        W25920  17.251  13.911  14.047 -0.0288 -0.2240 -0.0132
 9074W        W25921   4.055   1.470  15.191  0.0469 -0.1108 -0.1164
 9075W        W25922  13.918   4.728   1.503 -0.1104  0.1519  0.2111
 9076W        W25923  17.329   8.984  10.536  0.1245  0.0637  0.0219
 9077W        W25924  13.550  11.633   3.884  0.0669  0.0279  0.0543
 9078W        W25925   9.892   5.400   1.797 -0.2274 -0.1414  0.2497
 9079W        W25926   9.343   0.465  15.131  0.4011 -0.0489 -0.0786
 9080W        W25927   1.252  13.586  12.256  0.0829 -0.0685 -0.2560
 9081W        W25928  13.538  12.523   5.219 -0.1605 -0.0767  0.0025
 9082W        W25929   0.090   5.532  14.534 -0.1208  0.0226  0.0766
 9083W        W25930  12.787   5.220   4.658  0.1331  0.3780 -0.1262
 9084W        W25931  15.884  10.361   4.234 -0.0599 -0.1979 -0.2564
 9085W        W25932   5.041  16.422  11.845  0.1358 -0.0478 -0.2398
 9086W        W25933  11.424   8.955   3.490  0.1090 -0.0151  0.2237
 9087W        W25934   7.191  10.553   2.934 -0.3167  0.0702 -0.1921
 9088W        W25935   4.572   3.161   1.865  0.2920 -0.0501  0.0522
 9089W        W25936  10.778  15.584   3.961  0.0959 -0.2915 -0.2562
 9090W        W25937   0.475  17.933  15.777 -0.0243 -0.0178 -0.0646
 9091W        W25938  12.741   7.504  11.306  0.1165  0.1512 -0.1263
 9092W        W25939  18.127   4.035  15.783 -0.2316 -0.0723  0.1486
 9093W        W25940   5.521   0.781  15.585 -0.2088 -0.1614  0.0349
 9094W        W25941   9.798  17.784   2.762 -0.0605 -0.1005  0.0562
 9095W        W25942   7.335  11.608  14.856 -0.0747 -0.1180 -0.1666
 9096W        W25943  17.606   1.899  15.594  0.0942  0.0678 -0.3446
 9097W        W25944   8.146   4.003   1.092 -0.2572  0.0836  0.0517
 9098W        W25945  16.336   2.239   3.708  0.0806 -0.0615  0.0972
 9099W        W25946   8.477  11.559  11.467  0.1700 -0.1483  0.0035
 9100W        W25947   7.486  18.078   2.699 -0.2143 -0.1796 -0.2947
 9101W        W25948  14.389   0.463   4.835  0.1604 -0.2852 -0.1498
 9102W        W25949   1.489   6.610  11.753 -0.1942  0.0774 -0.0354
 9103W        W25950  14.240   0.944  11.413 -0.0440  0.1031 -0.0786
 9104W        W25951  17.209   8.471   4.208 -0.0506  0.0689  0.0110
 9105W        W25952   6.238   8.061   2.230  0.0115 -0.0184  0.0974
 9106W        W25953  16.196   1.413  16.135  0.1153 -0.1213 -0.1675
 9107W        W25954  14.901   8.405  14.272  0.0696 -0.0277 -0.1774
 9108W        W25955   7.708   6.058   4.490  0.1083 -0.0409  0.1675
 9109W        W25956  13.254   7.298   1.449 -0.3623 -0.3826 -0.0520
 9110W        W25957   2.049  10.584   5.726  0.0177 -0.0337 -0.0253
 9111W        W25958   1.022  15.498   3.663  0.1601 -0.1183 -0.2056
 9112W        W25959  10.372  18.253  12.358  0.3398 -0.2162 -0.1243
 9113W        W25960   9.275   8.869   3.857 -0.1529  0.1057 -0.1912
 9114W        W25961   7.236  12.346  14.556 -0.0816 -0.1220 -0.0242
 9115W        W25962  11.015   6.534  13.153  0.1762  0.0732  0.0765
 9116W        W25963  14.893   2.665  15.371  0.0110 -0.2174  0.0447
 9117W        W25964  12.918  13.246  12.900 -0.2383 -0.1662 -0.1898
 9118W        W25965  18.253   8.085  14.770 -0.1022 -0.0048  0.0031
 9119W        W25966   0.575  15.301  13.684 -0.0774  0.0884  0.0907
 9120W        W25967   4.534  18.199   4.082 -0.2091 -0.2399 -0.2400
 9121W        W25968   0.619  18.326   3.605  0.5251 -0.2425  0.0389
 9122W        W25969   9.200   0.829   0.747  0.0191  0.2813  0.1318
 9123W        W25970   8.137   5.821   0.629  0.2221  0.1089  0.0176
 9124W        W25971   2.441  14.368  15.338  0.1209 -0.2125 -0.0857
 9125W        W25972   3.327   3.206  12.962  0.0859  0.4167  0.0142
 9126W        W25973   4.680  10.825   5.336 -0.3046 -0.4286 -0.3254
 9127W        W25974  16.158   9.432   1.564  0.2164 -0.0690 -0.1141
 9128W        W25975   0.530   9.317   2.167 -0.0678  0.0730 -0.0425
 9129W        W25976   6.230  16.178   3.564 -0.1827  0.1289 -0.2012
 9130W        W25977   3.464   7.217   4.033 -0.2142 -0.0046 -0.0500
 9131W        W25978   2.285   0.142  15.061  0.0120 -0.0425 -0.1917
 9132W        W25979  16.719   6.992  11.557 -0.1178  0.1488  0.1421
 9133W        W25980   0.963   8.826   4.474  0.0819  0.2003 -0.0217
 9134W        W25981  10.036   1.930  15.568 -0.0540  0.2602  0.2038
 9135W        W25982   2.197   5.216   3.692 -0.0105 -0.2837 -0.2427
 9136W        W25983  11.939  12.900   6.183  0.1441 -0.0736  0.3637
 9137W        W25984   9.286  16.634   3.553  0.0023 -0.1349 -0.2911
 9138W        W25985  11.356  12.801  12.840 -0.0184  0.0123 -0.0685
 9139W        W25986  17.801   1.943   3.353  0.1366  0.2386 -0.2066
 9140W        W25987  18.140  10.658  10.955  0.0676  0.3033 -0.1660
 9141W        W25988   3.412   6.672  14.567 -0.0756 -0.0048 -0.0832
 9142W        W25989   7.871  10.929  14.796  0.7000  0.1913 -0.0605
 9143W        W25990   5.770  13.828  13.007 -0.3368 -0.2230  0.0931
 9144W        W25991  15.026  15.539  11.673  0.2436  0.1352 -0.1272
 9145W        W25992   0.079  13.292   3.103  0.0234 -0.2898  0.2193
 9146W        W25993  15.909  11.477   1.730 -0.1122  0.0106 -0.0713
 9147W        W25994   8.554  16.840   4.091  0.2457  0.0084 -0.1076
 9148W        W25995  10.319   4.857   3.351  0.2810 -0.1788  0.0833
 9149W        W25996  14.668   2.382  12.592 -0.0612 -0.1391  0.2087
 9150W        W25997  10.754  11.384   5.816 -0.0553 -0.0916 -0.3101
 9151W        W25998  14.226  13.882   1.871  0.1666  0.0077  0.0451
 9152W        W25999  11.831  15.043  14.135 -0.0271  0.1296  0.0128
 9153W        W26000  12.400  10.410  14.301  0.2047 -0.2003 -0.1036
 9154W        W26001  16.510   2.175  14.197 -0.0630 -0.1502 -0.0691
 9155W        W26002   7.918  17.438   3.163 -0.0711  0.0937  0.2347
 9156W        W26003   1.003  14.193  14.866  0.0387  0.6000 -0.1919
 9157W        W26004   6.485   0.643  12.735 -0.0256 -0.2033  0.1971
 9158W        W26005   0.941  11.062  14.807  0.1223 -0.0392  0.2302
 9159W        W26006   7.235  14.419  14.453 -0.0601 -0.1934  0.0141
 9160W        W26007   7.613   3.709   1.686 -0.0323 -0.3319 -0.0440
 9161W        W26008   1.540  12.602  12.742  0.1880 -0.2913  0.1256
 9162W        W26009   7.161  15.122   4.633  0.0888  0.1830  0.3084
 9163W        W26010   4.297   0.874  14.172 -0.2975 -0.2160  0.3275
 9164W        W26011  13.228  10.778  14.870 -0.0171  0.1698  0.2010
 9165W        W26012   6.888   3.888  12.621  0.0997  0.3526  0.0048
 9166W        W26013  15.871  11.425   3.577 -0.0825  0.1491  0.0478
 9167W        W26014  16.019  15.860  10.942 -0.0684 -0.1999  0.1324
 9168W        W26015   1.537   3.712   1.739  0.0092 -0.0356  0.1015
 9169W        W26016   9.473   1.402   1.916  0.0363  0.3714 -0.0165
 9170W        W26017   0.513   2.970   2.127  0.0517 -0.1082 -0.1745
 9171W        W26018   6.981   6.433  14.172  0.3209  0.2009  0.2536
 9172W        W26019   0.683   6.319  11.438  0.0976  0.1958 -0.2628
 9173W        W26020   0.216  15.392  15.397 -0.2773 -0.1582  0.0383
 9174W        W26021  12.117  12.656  11.733  0.0622 -0.0108 -0.2383
 9175W        W26022   3.947   8.068   1.064  0.0252  0.0670 -0.0159
 9176W        W26023   5.904   2.970   3.000 -0.0899  0.0051 -0.1513
 9177W        W26024   8.899  17.418  15.160 -0.2222  0.0335 -0.0914
 9178W        W26025  16.550  10.039   4.353  0.1606 -0.3482 -0.3682
 9179W        W26026  14.293  16.965   4.939 -0.0549 -0.0209  0.2334
 9180W        W26027   9.421  13.727   4.072  0.1461 -0.1667 -0.0531
 9181W        W26028   6.955  15.715  13.274  0.0495 -0.1737  0.1949
 9182W        W26029   5.864  17.623  11.887  0.1046  0.2562 -0.2471
 9183W        W26030   7.929   5.339   5.889 -0.0522  0.4527  0.3240
 9184W        W26031   0.179   7.480   2.154  0.1742 -0.1747  0.0482
 9185W        W26032   5.264  10.491  15.965 -0.1027 -0.0512  0.2863
 9186W        W26033   6.281   2.362  15.336 -0.1778  0.0805 -0.1999
 9187W        W26034   0.197   7.402  12.381  0.0949 -0.0129 -0.1680
 9188W        W26035   2.235   7.016  13.460 -0.0328 -0.3234  0.0490
 9189W        W26036  11.059   0.039  13.601 -0.0766  0.3351 -0.0360
 9190W        W26037  10.001  15.361   5.146 -0.0510  0.2034  0.1508
 9191W        W26038   3.623  14.130  14.590 -0.2995  0.2384  0.1031
 9192W        W26039   4.035  16.490   3.238 -0.4239 -0.0587  0.0557
 9193W        W26040  16.633  16.571  11.167 -0.1572 -0.0344 -0.3498
 9194W        W26041   7.828  14.632   2.331  0.1390  0.1512  0.0791
 9195W        W26042   8.535  12.322  11.415  0.1841 -0.2082  0.0304
 9196W        W26043  14.254   7.704  12.335 -0.1071  0.0821 -0.1902
 9197W        W26044   2.373   5.820  13.878 -0.1438 -0.1444 -0.2333
 9198W        W26045   8.449  15.919  15.875 -0.0267 -0.2524 -0.2021
 9199W        W26046  15.052  13.647  11.873  0.1183  0.1214  0.1714
 9200W        W26047   3.762   6.293   5.325 -0.0897 -0.1885  0.1533
 9201W        W26048  12.481   5.873   0.621 -0.1196  0.0106 -0.0623
 9202W        W26049  12.990  16.531   3.849  0.0772  0.0617  0.0282
 9203W        W26050   3.131   9.865   3.454  0.0277  0.0429  0.2421
 9204W        W26051  18.005   9.645   4.566  0.0599  0.1289 -0.1286
 9205W        W26052  15.515  16.829   4.395  0.1594 -0.1326 -0.2022
 9206W        W26053  12.281   1.079  12.538 -0.0461 -0.0593  0.1052
 9207W        W26054   2.238   5.643  16.043 -0.0263 -0.1352 -0.0385
 9208W        W26055  11.873  11.711   5.070  0.0340 -0.0914 -0.3374
 9209W        W26056   5.142  16.783  14.567  0.0523  0.3621  0.0957
 9210W        W26057   2.207   3.052  11.778  0.3131 -0.0879 -0.1239
 9211W        W26058   9.040  17.195   0.454  0.0041  0.0791 -0.0533
 9212W        W26059   3.084   8.859  13.934 -0.4755 -0.3880 -0.1130
 9213W        W26060  11.792  13.140   5.596 -0.0931 -0.1723  0.3075
 9214W        W26061  15.149  15.883  15.779  0.0317 -0.0030  0.1919
 9215W        W26062   3.890   0.977   1.852 -0.4122 -0.0085 -0.0286
 9216W        W26063   7.303   4.659   4.040 -0.2915  0.1864 -0.1229
 9217W        W26064   7.598   2.294   1.365  0.1437  0.1766  0.3224
 9218W        W26065  11.430  14.080  13.267 -0.0722  0.1481  0.0551
 9219W        W26066   9.167  13.473   4.415 -0.0840 -0.0278  0.0141
 9220W        W26067   8.473   2.064  12.366  0.1505  0.0349 -0.0169
 9221W        W26068   1.621   4.059   2.560 -0.3250  0.0293  0.0081
 9222W        W26069   7.210   4.365   5.360  0.1537  0.1611  0.1696
 9223W        W26070   9.949  10.489  13.356  0.2957 -0.1203 -0.1310
 9224W        W26071  11.756   2.636  11.058 -0.0753 -0.1094 -0.1262
 9225W        W26072   0.625  15.600  15.742  0.3365 -0.0642 -0.0695
 9226W        W26073  12.358   5.394   0.623  0.0504 -0.2409  0.1297
 9227W        W26074   2.240   1.116  12.146  0.4054 -0.0855 -0.0915
 9228W        W26075  10.064  16.107   1.978  0.0390  0.1805 -0.1656
 9229W        W26076   9.687  13.325   5.473 -0.2948  0.1803  0.0929
 9230W        W26077   0.693  17.059   4.782  0.0749  0.0429  0.1691
 9231W        W26078   5.761  14.585   2.750  0.3405 -0.0180 -0.1782
 9232W        W26079   6.671  17.246  10.952  0.0547 -0.1422 -0.0768
 9233W        W26080   3.585  15.668   3.826  0.0154  0.0173 -0.4071
 9234W        W26081   0.792   2.332  11.070 -0.0949 -0.1699 -0.0281
 9235W        W26082  14.433   0.608   0.508 -0.0949  0.0714  0.3918
 9236W        W26083   9.360  13.169   2.938 -0.0327  0.0090  0.1802
 9237W        W26084   1.446   2.984  13.609  0.2174 -0.0368  0.3451
 9238W        W26085  15.598  11.148  12.713  0.3670 -0.2410 -0.2288
 9239W        W26086   5.520   0.756   3.836 -0.1004 -0.3442  0.2544
 9240W        W26087  15.331   8.964   1.426  0.1565 -0.2992 -0.2336
 9241W        W26088   2.684   0.350   4.914  0.0683  0.1180 -0.1932
 9242W        W26089  11.830  11.513   3.736  0.0922 -0.2169  0.1136
 9243W        W26090  15.106  12.404   2.616 -0.0265 -0.1681  0.1126
 9244W        W26091  13.764   4.231   0.123  0.0780 -0.0030 -0.2113
 9245W        W26092   8.752   5.245   4.002  0.1681  0.1086  0.0051
 9246W        W26093   3.901   4.315   3.560 -0.1152 -0.1177 -0.1002
 9247W        W26094  13.141   2.713   2.246  0.0289 -0.1536  0.2259
 9248W        W26095  16.942  12.588   1.380 -0.1411  0.1152 -0.0587
 9249W        W26096   7.026  16.417  12.752  0.0254 -0.1513 -0.0745
 9250W        W26097  16.581   5.318  15.762  0.1083 -0.0505 -0.3678
 9251W        W26098   7.795   4.750  13.912 -0.0893  0.2606  0.1159
 9252W        W26099   5.377   3.759  15.007  0.3487  0.1695 -0.2305
 9253W        W26100  16.076   4.473  14.344 -0.1898 -0.2161 -0.0990
 9254W        W26101  11.606  10.768   2.269 -0.0312  0.0606  0.0834
 9255W        W26102   9.586   2.077   3.457  0.1776  0.0136 -0.0510
 9256W        W26103   8.248  11.258  13.707 -0.3143  0.1188  0.1100
 9257W        W26104   1.719   0.952   2.643  0.0087  0.0387  0.1591
 9258W        W26105  14.015  13.772  11.425 -0.1452  0.0212  0.0153
 9259W        W26106   3.751   3.553   0.307 -0.1484 -0.1358 -0.0525
 9260W        W26107   3.336   8.229   0.626  0.3721 -0.0118  0.1984
 9261W        W26108  18.023   6.450   4.342 -0.0718 -0.0457  0.1289
 9262W        W26109   0.648  16.352   4.869 -0.1764 -0.0304  0.2215
 9263W        W26110   6.052   4.503  13.516 -0.1353 -0.2307  0.1655
 9264W        W26111  13.948   5.515  12.161 -0.3213  0.2265  0.2529
 9265W        W26112   5.333  15.905   4.145  0.0659  0.0950  0.1264
 9266W        W26113   7.317   8.581   3.778  0.1108 -0.1230  0.2541
 9267W        W26114  11.993  10.225  13.516 -0.0487  0.1755 -0.0329
 9268W        W26115  12.350  12.159  11.826 -0.1639  0.0942 -0.2307
 9269W        W26116  13.397   8.362   0.115 -0.1911 -0.2294 -0.0219
 9270W        W26117   0.238   4.843   2.088 -0.2969 -0.0992 -0.1900
 9271W        W26118  11.625  13.953   2.634 -0.2118 -0.0109  0.1636
 9272W        W26119   5.589   7.676   4.432  0.1336  0.2823  0.3662
 9273W        W26120  16.984  12.812  12.752 -0.0636 -0.3012 -0.0859
 9274W        W26121  17.345  16.339   2.822  0.0446  0.1904  0.0867
 9275W        W26122  16.007  12.984   0.363  0.0625  0.0314 -0.0039
 9276W        W26123   7.575  10.900  11.594 -0.1243 -0.1736  0.0528
 9277W        W26124  12.939   5.392  10.466 -0.0726  0.1321 -0.0540
 9278W        W26125   3.402  11.103   5.661 -0.0976 -0.5912  0.0552
 9279W        W26126   8.509  10.144   5.631  0.2827  0.0449  0.0480
 9280W        W26127  11.238   8.854  13.226 -0.0507  0.3116  0.0633
 9281W        W26128  15.249  16.779   3.464  0.0554  0.1110 -0.2819
 9282W        W26129   2.662   4.860   1.840  0.0300 -0.0352  0.1991
 9283W        W26130  12.795  11.411   4.877  0.0096 -0.0528 -0.2462
 9284W        W26131   0.928   3.315   4.050 -0.0983 -0.0237 -0.1868
 9285W        W26132  17.775  18.237   1.863 -0.1665 -0.2861  0.0773
 9286W        W26133   2.958   7.222   1.744 -0.0264 -0.1981 -0.0826
 9287W        W26134   1.540  16.274   0.521  0.1735 -0.1348  0.0073
 9288W        W26135  14.740  14.899   3.181 -0.1329  0.1446 -0.0482
 9289W        W26136   8.461  14.768   3.700  0.2073  0.1054  0.1199
 9290W        W26137  11.418   1.129  12.256  0.2053 -0.1805 -0.1696
 9291W        W26138   0.995   6.192   3.606 -0.1806  0.0534  0.2981
 9292W        W26139  11.822   2.629  12.034 -0.1288  0.0370 -0.0453
 9293W        W26140   6.877  11.433   0.015 -0.1408 -0.1701  0.0089
 9294W        W26141  17.381   2.243  12.966  0.0879 -0.2711 -0.0021
 9295W        W26142   8.641   7.374   2.764 -0.1129 -0.0524  0.0769
 9296W        W26143   4.496   5.577   3.037  0.0828  0.1019 -0.0958
 9297W        W26144   5.432   5.610  11.929  0.0472 -0.0868 -0.2164
 9298W        W26145   4.718  17.738   3.065  0.4342  0.0950  0.1213
 9299W        W26146  17.872   3.711   4.868 -0.0478 -0.0708 -0.1397
 9300W        W26147  10.668  10.080   2.877  0.1532 -0.0547  0.0205
 9301W        W26148   3.754  12.639  13.855 -0.3720  0.1787  0.0203
 9302W        W26149   8.171  10.982   5.123  0.4024  0.0775  0.1960
 9303W        W26150   4.194   8.484   0.909  0.1716  0.0451  0.0128
 9304W        W26151  10.383   9.454  11.106  0.1102  0.1871 -0.1127
 9305W        W26152   5.628  15.136  13.245  0.0961  0.0678 -0.3523
 9306W        W26153  11.686  15.507  15.002 -0.0880 -0.0784 -0.2783
 9307W        W26154   5.252  14.217   0.593  0.0477  0.1737  0.0380
 9308W        W26155   3.766   9.834  12.176 -0.2781 -0.3769 -0.2018
 9309W        W26156   5.022  17.365   2.455 -0.0121 -0.0994  0.0509
 9310W        W26157  16.648   8.653   4.536  0.0658  0.0164  0.1912
 9311W        W26158  12.099  10.284   2.796  0.4179 -0.1597  0.1555
 9312W        W26159   7.775  13.870   4.184 -0.0790 -0.4453  0.0955
 9313W        W26160   4.734   1.173   3.911  0.3388 -0.1923  0.1812
 9314W        W26161   9.951  12.094   5.925  0.0353 -0.0253 -0.0178
 9315W        W26162  15.002   2.420   3.079  0.1699 -0.2237  0.0910
 9316W        W26163   4.587   0.633  11.902 -0.1438  0.1367 -0.3145
 9317W        W26164   9.491   9.240   0.078 -0.0815  0.1682 -0.0485
 9318W        W26165  13.698   6.852   2.533  0.1056 -0.3095  0.1398
 9319W        W26166   8.046   6.152   1.572  0.0086 -0.1347 -0.0981
 9320W        W26167  11.010   6.599  12.082  0.2247 -0.1816 -0.1175
 9321W        W26168  11.828   4.259   3.028  0.0516  0.2075 -0.1168
 9322W        W26169  15.221   4.176  10.178  0.0141 -0.3096  0.0206
 9323W        W26170  14.244   3.076   1.868  0.0754  0.2274 -0.0504
 9324W        W26171   6.977  15.270  11.787  0.3443 -0.1307  0.0164
 9325W        W26172   4.486  15.219   3.467 -0.2010  0.0768  0.0650
 9326W        W26173   8.105  13.874   2.836 -0.0369 -0.2463  0.3583
 9327W        W26174  17.461   4.318   3.146  0.3347 -0.1367  0.0825
 9328W        W26175   4.794  17.918   3.803 -0.0398 -0.0202  0.0119
 9329W        W26176  11.777   3.321   0.498 -0.2256 -0.0754 -0.1649
 9330W        W26177  15.469   7.287   4.212 -0.1097 -0.0941  0.0781
 9331W        W26178  14.721  17.799  12.517 -0.0313  0.0651 -0.2364
 9332W        W26179   4.002  14.337   2.023  0.1396  0.1617 -0.1864
 9333W        W26180   3.817  13.020  10.851 -0.1763  0.1954 -0.1716
 9334W        W26181   1.471   9.536  13.423  0.0622  0.4274  0.0795
 9335W        W26182  17.124   0.869  11.884 -0.2932 -0.1120 -0.0027
 9336W        W26183  18.258   8.733   1.834  0.0205 -0.2082  0.2268
 9337W        W26184  16.519   0.723   0.194 -0.2182 -0.1722 -0.0433
 9338W        W26185   9.220  17.409   1.771  0.1073  0.1944 -0.2686
 9339W        W26186  15.279   7.159  13.942  0.0348 -0.2441  0.2090
 9340W        W26187   0.345   1.477  11.677  0.1411 -0.0747 -0.1439
 9341W        W26188  15.617   0.893   4.768  0.0911 -0.1417 -0.2206
 9342W        W26189  11.673  11.831   2.460  0.1248  0.0852  0.0098
 9343W        W26190   3.221   3.085   4.208 -0.2602  0.0946  0.1287
 9344W        W26191  10.440   8.204   2.790  0.1883  0.4626  0.1401
 9345W        W26192   0.920  13.284  12.447  0.1183  0.1673 -0.1796
 9346W        W26193  14.440   6.889   2.284  0.0086  0.2411 -0.3001
 9347W        W26194   1.441   2.664   4.193 -0.0553 -0.1937 -0.1484
 9348W        W26195   0.010   1.853   4.580  0.0084 -0.0194  0.1770
 9349W        W26196   5.253   9.909   3.064  0.1567  0.1839 -0.5117
 9350W        W26197  14.808  16.832   2.723 -0.1978  0.0013  0.1687
 9351W        W26198  15.196  14.447   4.472 -0.1500 -0.0415 -0.2043
 9352W        W26199   1.469  17.225  15.576  0.0201 -0.0933  0.0836
 9353W        W26200  16.901   6.979   1.307 -0.0053 -0.0453  0.2037
 9354W        W26201  14.984  16.220  16.118  0.0890  0.0297 -0.0718
 9355W        W26202   4.358  12.827  14.234  0.0570  0.0976  0.0419
 9356W        W26203  13.227  10.843  11.323 -0.0501  0.0100  0.0882
 9357W        W26204  14.749  10.665  13.974 -0.3236  0.2148  0.0785
 9358W        W26205   3.431   7.416  14.200 -0.2105 -0.0214  0.1194
 9359W        W26206   8.730   6.364  14.951  0.0539 -0.1509  0.1140
 9360W        W26207   9.117   9.327  15.953  0.3416 -0.1406 -0.0676
 9361W        W26208   7.044   0.241   1.973 -0.0579 -0.0157 -0.2457
 9362W        W26209  10.416  18.259  14.616 -0.2891  0.0247 -0.0730
 9363W        W26210   1.983   1.229   1.493  0.1075  0.1200 -0.3040
 9364W        W26211  11.090   4.142  15.133  0.0004  0.1263 -0.3454
 9365W        W26212  10.797   6.695  11.587 -0.1956  0.0901 -0.2193
 9366W        W26213  17.368   2.726  13.570  0.2340  0.0870 -0.0145
 9367W        W26214  15.145  17.458   6.056  0.1888  0.1258 -0.2728
 9368W        W26215  17.081   8.680  15.368  0.0602  0.1004 -0.3235
 9369W        W26216   5.488  17.119  14.444  0.3665  0.0871 -0.1335
 9370W        W26217  12.357   4.081   2.978 -0.0397  0.0911  0.1353
 9371W        W26218   6.075   2.013  12.954  0.2828  0.2586 -0.0045
 9372W        W26219  16.199   1.691   1.805  0.0466  0.2542 -0.0370
 9373W        W26220  15.913   5.118  12.849  0.0782 -0.1734  0.1049
 9374W        W26221   0.906   6.398   2.294 -0.1987 -0.2882  0.0812
 9375W        W26222  15.231   4.709  12.160 -0.1600  0.0867 -0.0198
 9376W        W26223   0.818  10.091   0.966 -0.1216  0.1324 -0.2742
 9377W        W26224   7.808   5.900   2.491 -0.3270 -0.0465 -0.3027
 9378W        W26225   4.000   4.699  11.617 -0.1621 -0.0092 -0.2270
 9379W        W26226   7.632   6.288   2.215  0.0137 -0.0796 -0.1313
 9380W        W26227  11.431  13.973  13.951 -0.1024  0.0995 -0.0327
 9381W        W26228  13.123   1.740   4.608  0.3399 -0.1467 -0.1480
 9382W        W26229   1.368   8.636   2.839  0.2658  0.0488  0.3292
 9383W        W26230   8.523  17.032  13.948 -0.1954 -0.1257  0.0548
 9384W        W26231   0.642  16.810   3.252 -0.1446  0.0010  0.0457
 9385W        W26232   7.068  11.115  12.577  0.0797  0.2918  0.2700
 9386W        W26233  13.799   9.280   4.038 -0.4666 -0.0851  0.2978
 9387W        W26234   4.950   4.338  15.531 -0.1968  0.2671  0.0686
 9388W        W26235  11.522   6.367   2.562 -0.0765  0.0804 -0.0249
 9389W        W26236   2.311  12.260   0.101  0.0671 -0.1151 -0.0091
 9390W        W26237   1.487  15.815   3.910 -0.1605 -0.2376  0.2483
 9391W        W26238   4.325   0.363   0.018  0.0698 -0.0855  0.1405
 9392W        W26239  17.921  16.200   0.509 -0.0246  0.0183 -0.0677
 9393W        W26240   4.633   8.497   5.367  0.1680  0.1154 -0.0451
 9394W        W26241   7.724   3.821  14.931 -0.0560 -0.0441  0.0182
 9395W        W26242  13.707   9.115  14.010  0.2200 -0.1892 -0.0582
 9396W        W26243   5.599   3.080  11.687  0.0067  0.0647  0.1444
 9397W        W26244  16.641   6.459  11.483  0.2638 -0.1351 -0.1309
 9398W        W26245  15.151   7.792   0.742  0.0161 -0.1335  0.1655
 9399W        W26246  17.432   1.519   0.924 -0.0289  0.1879 -0.0716
 9400W        W26247  14.279   9.245  11.887  0.2721 -0.0300  0.1181
 9401W        W26248   6.660   1.612  11.826 -0.0096 -0.1299  0.2250
 9402W        W26249  17.847  14.361  12.526  0.4188 -0.0485  0.3505
 9403W        W26250  14.008   0.390   0.023 -0.0091  0.0628 -0.2457
 9404W        W26251  17.373   8.297   4.870 -0.0431  0.1543  0.0063
 9405W        W26252  14.024   7.034   0.057 -0.0088 -0.2363 -0.2969
 9406W        W26253   9.699   9.231  15.864 -0.1277  0.3493  0.2567
 9407W        W26254  17.587  15.985   0.868 -0.0626  0.0091  0.1231
 9408W        W26255   1.614   3.050  14.785  0.2038  0.2111 -0.1789
 9409W        W26256   1.485  10.791  13.651  0.0579  0.1366  0.0423
 9410W        W26257  11.302  13.467  12.164 -0.1256  0.0762  0.2098
 9411W        W26258   1.228  15.633   2.616  0.1247  0.0474 -0.1272
 9412W        W26259  11.181  12.704   5.055  0.1807 -0.0965 -0.0311
 9413W        W26260   3.982  11.140   5.134  0.0981  0.3992 -0.0693
 9414W        W26261  15.416   7.810  11.233  0.3481  0.0237 -0.0672
 9415W        W26262   5.669   4.458   4.813  0.3613 -0.1036  0.0349
 9416W        W26263   0.717  10.820   0.950 -0.2439  0.2284 -0.0577
 9417W        W26264   2.865  11.173  12.344 -0.2341  0.1103  0.1122
 9418W        W26265  10.171   1.001   4.203 -0.0299  0.1569  0.1987
 9419W        W26266  14.088   5.693   1.943  0.1286  0.0058 -0.0738
 9420W        W26267  10.908   7.829  15.838  0.1078 -0.0869 -0.3000
 9421W        W26268   6.069  14.076  13.304  0.0799 -0.1947  0.0385
 9422W        W26269  14.695  15.128  12.308 -0.1581  0.1041 -0.0551
 9423W        W26270   3.024  14.737  12.522 -0.0910 -0.0795  0.1707
 9424W        W26271  17.789  15.616  12.402  0.0239  0.1663  0.0485
 9425W        W26272   3.946   1.675  16.036 -0.0060 -0.0886 -0.2325
 9426W        W26273  10.162   5.666   5.011  0.0760  0.2673 -0.0110
 9427W        W26274  17.258   6.933  11.623 -0.1408 -0.0677 -0.1689
 9428W        W26275  13.215  10.905   4.033 -0.0389  0.3036  0.1655
 9429W        W26276  10.968   5.240   0.518 -0.0024  0.1936  0.1978
 9430W        W26277   3.518  11.271   5.150  0.1602  0.1243 -0.3184
 9431W        W26278  17.977  12.205  14.018  0.2698  0.0455  0.3076
 9432W        W26279   7.708  17.086   0.730 -0.2121 -0.1633  0.0305
 9433W        W26280   8.194  17.579   4.945 -0.1518 -0.2467  0.0209
 9434W        W26281   1.121   4.658   3.899 -0.0550  0.0077 -0.1728
 9435W        W26282   1.185   5.191   4.985  0.0070 -0.0928  0.1261
 9436W        W26283   0.534   7.864  15.528 -0.0979  0.0654 -0.0536
 9437W        W26284   1.483   6.028  10.612 -0.1521 -0.1539 -0.2696
 9438W        W26285   2.709  10.871   4.907 -0.0920 -0.1465  0.1453
 9439W        W26286  12.411   5.994   2.895  0.0752  0.1750 -0.3172
 9440W        W26287  14.507   1.363  11.567  0.0465  0.0516 -0.0577
 9441W        W26288  14.840   5.933   4.010 -0.2219 -0.2140  0.1954
 9442W        W26289  16.614   1.609   3.664  0.2911  0.0834  0.0814
 9443W        W26290   9.018  15.813  14.422 -0.0709  0.0005  0.0604
 9444W        W26291  17.845   9.016   1.909 -0.2484  0.0728 -0.0921
 9445W        W26292   5.779   8.001   5.379  0.2706 -0.2356 -0.2754
 9446W        W26293  16.915   6.410   2.219 -0.0328  0.0346  0.1009
 9447W        W26294  14.694   4.771   4.535  0.0453 -0.1099  0.1103
 9448W        W26295   6.412   5.965   3.857 -0.0892 -0.1221 -0.1584
 9449W        W26296  14.319   7.326  14.943  0.1042 -0.2498 -0.1241
 9450W        W26297  17.225  17.107   1.363  0.1476  0.1248 -0.3725
 9451W        W26298   4.958   7.826  13.339  0.0289 -0.0033 -0.2147
 9452W        W26299  11.031  15.244  11.946  0.0434 -0.1176 -0.1747
 9453W        W26300   2.495  11.499   1.984 -0.1555  0.1412  0.0001
 9454W        W26301  15.116   4.196   0.362 -0.3762 -0.3561 -0.0747
 9455W        W26302  17.417   4.828  12.735 -0.0934 -0.0464 -0.0466
 9456W        W26303  13.258  14.903  14.615  0.0205  0.0026  0.3499
 9457W        W26304   9.518   9.001  12.597 -0.3831 -0.3695  0.2244
 9458W        W26305  16.444   1.045   4.329 -0.3217 -0.0684 -0.1029
 9459W        W26306  14.353   6.789  13.252 -0.1640 -0.1685 -0.1026
 9460W        W26307   5.864  12.880  11.965  0.3076 -0.0194  0.0660
 9461W        W26308  13.535  10.777   3.143 -0.3082 -0.0447  0.0845
 9462W        W26309   5.573   9.080  15.859 -0.1152 -0.1309 -0.1283
 9463W        W26310  17.933   2.786  15.875 -0.0628  0.1191  0.1077
 9464W        W26311   3.803  17.780   4.234 -0.2054  0.3747  0.1161
 9465W        W26312   8.561   3.585   2.840 -0.1270 -0.1544 -0.0991
 9466W        W26313   5.909   7.694  15.277  0.1594 -0.1447 -0.1253
 9467W        W26314   6.746  16.367  14.898 -0.0805 -0.0505  0.2524
 9468W        W26315   6.375  17.718  16.062 -0.3195 -0.2695  0.1948
 9469W        W26316  18.236   2.466  13.215 -0.1563  0.0944 -0.1441
 9470W        W26317   2.768   6.063   5.911  0.0744 -0.1938 -0.2730
 9471W        W26318   4.346   5.349  12.906 -0.2838  0.1008  0.2564
 9472W        W26319  13.126   0.562   3.795 -0.2567 -0.0343 -0.0849
 9473W        W26320   5.455  13.802   5.072  0.0117  0.2266  0.0895
 9474W        W26321   3.302   9.065  12.719  0.1777  0.0802  0.4535
 9475W        W26322   2.634  15.266  14.659 -0.1442  0.2003  0.1549
 9476W        W26323  13.092  17.773   4.998  0.1547 -0.1148 -0.1381
 9477W        W26324  10.144  10.807   0.880 -0.1286  0.0902  0.5009
 9478W        W26325  10.520   7.821  13.323  0.0461  0.0309  0.1078
 9479W        W26326   2.283   0.442   5.372 -0.1794 -0.0385  0.0827
 9480W        W26327  17.957   0.294  13.382 -0.1118  0.1858 -0.1054
 9481W        W26328   1.149  12.351  15.235 -0.0231 -0.2407  0.0670
 9482W        W26329  17.095  18.012   0.768 -0.0142 -0.1651 -0.1855
 9483W        W26330  12.741   5.185  13.485  0.1414 -0.0593 -0.0333
 9484W        W26331   2.694  14.221  14.620 -0.3809 -0.1394  0.1635
 9485W        W26332   1.688   9.835   4.164 -0.4616 -0.2523 -0.0864
 9486W        W26333  17.146   0.705   3.113 -0.0072 -0.3716  0.0943
 9487W        W26334  10.022  15.914  12.470 -0.0519 -0.3667 -0.6254
 9488W        W26335   1.936   8.716  12.885  0.1907 -0.0911  0.1418
 9489W        W26336   7.256   7.506  15.133  0.0430  0.0096  0.1151
 9490W        W26337  13.483  13.815   2.354  0.3212  0.0788  0.0748
 9491W        W26338   2.698  10.707  12.677  0.1253  0.1315  0.0619
 9492W        W26339   1.635  10.950   3.687  0.4223 -0.1314 -0.1487
 9493W        W26340  12.533  16.002   5.993 -0.0247 -0.1464 -0.0823
 9494W        W26341  15.476   9.030  16.042 -0.3030 -0.1255 -0.0370
 9495W        W26342   8.527  13.088  14.263 -0.0539  0.4276  0.0735
 9496W        W26343   6.547   9.326   0.944  0.3352 -0.2237 -0.5285
 9497W        W26344  11.092  14.093   5.878 -0.0020  0.0228  0.4749
 9498W        W26345  12.630   5.976   2.437  0.0658 -0.1179  0.0215
 9499W        W26346   3.566  16.246  16.159  0.0161 -0.1530 -0.0218
 9500W        W26347   5.148   0.173   0.916 -0.0540 -0.0122 -0.3073
 9501W        W26348   5.311  14.279   3.725 -0.3689 -0.0260 -0.0191
 9502W        W26349   1.399  12.722   4.895  0.0766  0.0997  0.0982
 9503W        W26350   5.157  18.100   1.964 -0.0478  0.0944  0.1416
 9504W        W26351  14.548  11.550  12.503 -0.1513 -0.0529  0.1411
 9505W        W26352   1.919  11.871   0.844 -0.0269 -0.0838  0.1675
 9506W        W26353   4.924   3.981   5.870 -0.0156 -0.1852  0.3943
 9507W        W26354   7.676   7.365   3.202  0.1575 -0.2074  0.2091
 9508W        W26355   8.925  16.441   4.799  0.0865 -0.1766 -0.2828
 9509W        W26356   5.446   6.374   1.665 -0.1243 -0.1010 -0.4071
 9510W        W26357  15.534  11.512   5.422 -0.0089 -0.1550 -0.1211
 9511W        W26358  10.229  18.245   3.081 -0.0462 -0.1347  0.0361
 9512W        W26359  14.347  17.738   0.431  0.4551 -0.0295 -0.2763
 9513W        W26360   9.123  17.808  14.189  0.0675  0.3022  0.3686
 9514W        W26361   1.256  17.589   0.809 -0.4720  0.0079 -0.0896
 9515W        W26362  14.398   7.085   5.630 -0.1543 -0.0702 -0.0387
 9516W        W26363   8.130  14.569  12.073 -0.0101 -0.3621 -0.2602
 9517W        W26364   7.066   8.441   6.115 -0.2989 -0.3447 -0.0365
 9518W        W26365   7.784   0.393   1.566  0.0257 -0.2077  0.0881
 9519W        W26366  13.330  14.330   4.092  0.3464  0.3670 -0.0722
 9520W        W26367   9.339  16.802   5.823 -0.4951  0.1722  0.0972
 9521W        W26368   9.579  14.189   3.255 -0.2801 -0.2826 -0.0881
 9522W        W26369   0.701   3.288   0.777 -0.0444 -0.2820  0.1659
 9523W        W26370  13.999  11.982   3.723  0.0693  0.0977  0.1187
 9524W        W26371   5.309   4.242  15.860 -0.1618  0.4413 -0.3114
 9525W        W26372   7.894   0.356   3.013 -0.1191 -0.3201 -0.0194
 9526W        W26373   3.636  13.259   5.238 -0.1493  0.1406  0.2446
 9527W        W26374   6.919   7.411   1.398 -0.2205  0.3383 -0.1222
 9528W        W26375  16.472  14.657  11.914  0.2432  0.0481  0.1665
 9529W        W26376  14.766   9.196  11.872 -0.2419  0.0766 -0.0918
 9530W        W26377   6.507  15.034  12.584 -0.1051  0.1671  0.0635
 9531W        W26378   9.957  14.467   3.483  0.0773  0.1639  0.1555
 9532W        W26379  16.346   3.342   2.497 -0.3566  0.4460 -0.2618
 9533W        W26380   4.321  14.867  11.286  0.2979 -0.0267  0.0118
 9534W        W26381  14.931  10.645   2.707 -0.1917 -0.0673  0.4521
 9535W        W26382  12.170   2.985   1.437 -0.2765 -0.1141  0.0599
 9536W        W26383  12.735   6.458  14.995  0.0221 -0.4176 -0.0994
 9537W        W26384   5.799   5.371  12.787  0.2203 -0.2545  0.1298
 9538W        W26385  11.067   6.189   0.077 -0.0718  0.0224 -0.1410
 9539W        W26386  17.630   3.942  12.647 -0.1151  0.1279  0.0877
 9540W        W26387  13.571  12.762   5.631 -0.0359  0.0583  0.0809
 9541W        W26388   4.822  15.056  11.970  0.0421  0.1127  0.1774
 9542W        W26389   9.841   5.176  15.461 -0.1881  0.2054 -0.4389
 9543W        W26390  13.870  13.172   0.157  0.1011  0.1653 -0.0786
 9544W        W26391  16.178   7.659  11.648  0.2555  0.1335  0.4807
 9545W        W26392   6.111  16.008  15.551 -0.1056  0.0786  0.0372
 9546W        W26393  10.151   6.954  14.738  0.0942  0.1334 -0.0105
 9547W        W26394  11.305  13.203   4.908 -0.0652  0.1983 -0.0259
 9548W        W26395  10.417   3.492   0.635  0.2026  0.1080  0.0920
 9549W        W26396   4.726   5.738   3.855  0.2144 -0.1034  0.0835
 9550W        W26397  13.618  14.721   4.155 -0.0838  0.1320 -0.1224
 9551W        W26398   4.304   5.321  13.685 -0.0438  0.1376  0.2457
 9552W        W26399  17.630  17.481   1.334  0.2537 -0.2327  0.0641
 9553W        W26400   2.632   2.536   0.236 -0.0454 -0.0811 -0.3612
 9554W        W26401   7.321  16.647  13.298 -0.0463 -0.3683  0.0791
 9555W        W26402  17.588   2.514   5.896  0.5736  0.1134 -0.1972
 9556W        W26403   8.231  17.236   1.909  0.1900 -0.0672 -0.1424
 9557W        W26404  11.541   0.930   2.088 -0.1272  0.2869  0.0197
 9558W        W26405   2.522   8.760  15.894  0.1396  0.0602  0.0541
 9559W        W26406  12.525   2.432  15.477  0.0546 -0.0784 -0.0462
 9560W        W26407  13.088  13.570  14.933 -0.3637  0.0566 -0.3275
 9561W        W26408   2.445  15.781   3.002 -0.1259 -0.1322  0.1453
 9562W        W26409  11.045  11.517   1.075  0.0624 -0.0496  0.0339
 9563W        W26410   7.069  12.624   1.545  0.2229 -0.1131 -0.4079
 9564W        W26411  16.621   9.737   2.707  0.0300  0.3061 -0.0222
 9565W        W26412   0.292   0.786  14.745 -0.0437  0.0111 -0.1452
 9566W        W26413  10.239  13.784  13.111 -0.1311  0.0977 -0.0220
 9567W        W26414  12.867   1.271   4.545  0.0571  0.0487 -0.1934
 9568W        W26415   6.514  13.420  11.926  0.0905  0.0681  0.1046
 9569W        W26416  15.073  15.689  14.628  0.2153 -0.3873 -0.2405
 9570W        W26417   2.775  10.319  13.997 -0.2315 -0.0535  0.2349
 9571W        W26418  13.165  13.801  15.398 -0.2112 -0.0427 -0.0944
 9572W        W26419  15.985   3.080   1.185 -0.0485 -0.1394  0.0569
 9573W        W26420   2.311   6.307  15.309 -0.2369  0.2738 -0.0976
 9574W        W26421   1.050   1.051   2.792  0.0584  0.0071 -0.1616
 9575W        W26422  11.074   2.940   4.942 -0.1114 -0.3112  0.0750
 9576W        W26423  13.594   4.858   0.732  0.1223  0.2108  0.0433
 9577W        W26424   1.659   2.235  15.091  0.0057 -0.0552  0.0448
 9578W        W26425   2.519  15.886   0.635  0.1518  0.1800  0.0339
 9579W        W26426   3.414  13.115   2.164 -0.1394  0.0709  0.0178
 9580W        W26427   1.133   9.809  15.969 -0.1395  0.3062  0.2857
 9581W        W26428   4.719   6.960  13.411 -0.0552  0.0489  0.0345
 9582W        W26429   0.948   9.224   3.667  0.3558 -0.1140 -0.1044
 9583W        W26430   8.659  12.663   4.760 -0.0175  0.1554 -0.0109
 9584W        W26431   3.578  12.054  14.562  0.0889  0.2189  0.1599
 9585W        W26432  13.034   8.096  12.484  0.0223 -0.0879 -0.1842
 9586W        W26433   4.248  17.972   4.458  0.0790  0.1875  0.0149
 9587W        W26434  15.384   8.009  14.137  0.1779  0.1208 -0.1419
 9588W        W26435   0.940   2.042  15.791 -0.0473  0.2870  0.1654
 9589W        W26436   9.867  15.321  11.478  0.1667  0.1215  0.0835
 9590W        W26437  13.277   2.109  14.123 -0.1036 -0.1668 -0.1638
 9591W        W26438  15.425  11.199  11.500  0.1929  0.3465 -0.1536
 9592W        W26439  10.421  13.333   2.076 -0.3105 -0.1366 -0.1527
 9593W        W26440   4.361   1.789  14.225 -0.1695 -0.0383  0.0049
 9594W        W26441   8.611  14.954   0.692 -0.0970 -0.0665  0.2313
 9595W        W26442  12.197   4.693   1.171 -0.0011  0.2934 -0.3546
 9596W        W26443   9.732  14.192   0.050  0.1071 -0.2564 -0.0354
 9597W        W26444   3.866  12.154   2.906 -0.1208 -0.2868 -0.1552
 9598W        W26445   6.484  16.241   1.157 -0.1466 -0.0599  0.0071
 9599W        W26446  15.502   5.039   4.813  0.3250  0.1006 -0.0354
 9600W        W26447   6.081   4.538  12.533 -0.2711  0.3037 -0.0942
 9601W        W26448   5.913  12.579  14.396  0.0827 -0.0530  0.3627
 9602W        W26449   3.607  12.467   5.594  0.1860  0.1051  0.2389
 9603W        W26450  17.080   4.459   0.832  0.1903 -0.1220  0.1891
 9604W        W26451   8.296  14.811  13.578  0.0373 -0.0587  0.0953
 9605W        W26452   1.767  12.790   1.940  0.1346 -0.0113 -0.0505
 9606W        W26453   6.002   4.967  15.079 -0.4043  0.0976 -0.0115
 9607W        W26454  17.037  14.948   4.641 -0.0919  0.0547  0.0533
 9608W        W26455   7.427   7.398   1.374 -0.0859  0.0076  0.0620
 9609W        W26456   9.232  10.143   1.517 -0.1124 -0.1415 -0.0125
 9610W        W26457   4.937   0.292   0.489  0.0949  0.0484  0.1151
 9611W        W26458   1.780   0.953   5.942  0.1217  0.0794  0.0714
 9612W        W26459   4.814   0.072  13.400 -0.0957 -0.0650 -0.1850
 9613W        W26460  11.425  16.164   4.514 -0.0107 -0.1317  0.0439
 9614W        W26461   2.447  16.582   2.492  0.1017 -0.1722 -0.0028
 9615W        W26462   7.658   7.665   2.644 -0.0319  0.1074 -0.0009
 9616W        W26463   1.611   9.751   1.380  0.2194 -0.0428 -0.0447
 9617W        W26464   2.109   2.442  15.414 -0.3342  0.1148  0.0301
 9618W        W26465  10.806   3.990  13.013 -0.2866 -0.0268  0.1275
 9619W        W26466  17.558  16.480   0.951  0.0931 -0.1516  0.1904
 9620W        W26467   8.350   8.949  14.479 -0.3670  0.0868 -0.1567
 9621W        W26468  15.029   3.272   4.329 -0.0045  0.1517  0.1293
 9622W        W26469   4.874  12.911  11.875 -0.2202  0.2318  0.1263
 9623W        W26470   8.774   7.108   2.319 -0.1227  0.0328 -0.0983
 9624W        W26471  11.529   7.336   0.212 -0.2096 -0.4035 -0.0616
 9625W        W26472  12.657   6.805  10.752  0.2100  0.3150  0.0398
 9626W        W26473   8.266   6.854  14.840  0.2276 -0.1661  0.0901
 9627W        W26474  12.191   2.291   4.578  0.1106  0.0828 -0.1353
 9628W        W26475   3.415   0.589   3.161 -0.1423 -0.0281  0.0593
 9629W        W26476   3.319   6.913   1.324  0.0094 -0.0151  0.2149
 9630W        W26477   9.008   2.892   3.508  0.2222  0.1298 -0.2483
 9631W        W26478  13.718   2.305  11.110 -0.0053  0.0031 -0.3338
 9632W        W26479   8.092   6.710  13.137  0.2122  0.0825 -0.1767
 9633W        W26480  13.590   8.384  13.185  0.0328  0.0201  0.1855
 9634W        W26481  15.064   7.591  10.781 -0.1408  0.0655 -0.1428
 9635W        W26482   8.714   1.631   2.558  0.1452 -0.2397 -0.0040
 9636W        W26483   0.269   2.581  13.740 -0.1757 -0.1882 -0.1940
 9637W        W26484   7.053  16.223  11.556 -0.0419 -0.1997 -0.2039
 9638W        W26485   7.907  15.809  12.756 -0.1428 -0.1705  0.2287
 9639W        W26486  16.317   5.150   3.186  0.1627  0.0463 -0.2861
 9640W        W26487   0.860   7.572   2.895  0.1417  0.2801 -0.2480
 9641W        W26488   7.427   6.476  15.213 -0.0879 -0.1109 -0.1406
 9642W        W26489  17.722  10.629  15.279  0.0265  0.0333 -0.3275
 9643W        W26490   3.855  18.233  16.055  0.2104  0.0245  0.1588
 9644W        W26491  12.086  14.847   3.262 -0.1627  0.0869  0.1669
 9645W        W26492   8.462   1.483  14.971  0.0244  0.0549 -0.4340
 9646W        W26493   9.389   7.729  12.147 -0.0306  0.0177  0.1643
 9647W        W26494   4.374   9.114   4.598  0.1353 -0.0493 -0.1132
 9648W        W26495  17.337  16.783   3.838  0.0384  0.3425 -0.0168
 9649W        W26496   8.889   7.559  12.340  0.0998  0.0412  0.2181
 9650W        W26497   9.011  15.542  13.737 -0.1776  0.0606 -0.3139
 9651W        W26498   1.121  13.414  14.859  0.1820  0.2200  0.2621
 9652W        W26499   9.248  13.335   2.289 -0.0336 -0.1384 -0.2775
 9653W        W26500   5.294  15.225  12.296  0.0114 -0.2252 -0.0066
 9654W        W26501   7.937   4.316  14.572  0.1272  0.1097 -0.0898
 9655W        W26502  13.070  11.861  14.134  0.0399  0.0296  0.1702
 9656W        W26503  10.828  14.075  13.909 -0.2707 -0.1964  0.2023
 9657W        W26504   3.283  11.868   3.944 -0.1884  0.0485 -0.0798
 9658W        W26505  11.097  11.361  13.714  0.1803 -0.1708 -0.1972
 9659W        W26506   3.431   8.188   4.048  0.0057 -0.1344  0.0283
 9660W        W26507   2.469   5.248   2.651  0.0141 -0.1361  0.3117
 9661W        W26508   8.799   3.138   4.458  0.0130 -0.1508  0.0839
 9662W        W26509  12.429  16.506  14.417  0.0112 -0.1644  0.0870
 9663W        W26510   3.072   7.950  13.430 -0.1516 -0.1125  0.1430
 9664W        W26511   8.273   0.357  13.420 -0.0619  0.1762  0.1678
 9665W        W26512   8.528   3.535   5.679  0.2230  0.0618 -0.1082
 9666W        W26513   6.894  16.484   0.935  0.1221 -0.2677 -0.0048
 9667W        W26514   0.347   6.204   0.774 -0.0989 -0.0885  0.0787
 9668W        W26515   9.244   0.888  12.627  0.0599 -0.2484 -0.0369
 9669W        W26516   8.677  11.795   4.339  0.0200  0.2244  0.0753
 9670W        W26517  13.241  17.365   4.662  0.1551 -0.2321 -0.4025
 9671W        W26518  14.921   3.654  14.263  0.0805 -0.1329 -0.2889
 9672W        W26519   0.604   9.222  13.921 -0.0872  0.2306  0.0622
 9673W        W26520   8.726  14.344   3.649  0.1189 -0.1130 -0.0991
 9674W        W26521  11.397  13.301   4.349  0.0081  0.1853  0.1645
 9675W        W26522   1.430  10.982   2.051  0.2153 -0.0280 -0.0906
 9676W        W26523  11.529  14.883   3.385  0.1320 -0.1429  0.0506
 9677W        W26524   7.225   3.723  14.928 -0.1720 -0.2313 -0.2291
 9678W        W26525   4.116  15.577  14.242  0.0353  0.0379 -0.1328
 9679W        W26526   9.809  10.846   4.163  0.1138  0.0197 -0.2720
 9680W        W26527   5.228   6.907  13.643 -0.1589 -0.0794  0.0611
 9681W        W26528   3.538   5.822   4.687  0.0323 -0.0800 -0.1841
 9682W        W26529   1.907  14.709  14.897  0.2595  0.2721 -0.0530
 9683W        W26530  13.783   4.976  13.401  0.0102 -0.0837  0.2658
 9684W        W26531   6.296   5.366  15.894  0.1452 -0.0096  0.2546
 9685W        W26532   3.809  15.357   2.374  0.0553  0.0871 -0.1837
 9686W        W26533   4.676  17.347   1.784 -0.0086  0.2834  0.1850
 9687W        W26534   5.498   1.672  12.509  0.1225 -0.0476  0.1354
 9688W        W26535   8.317  17.178   4.505 -0.0496 -0.2056 -0.1151
 9689W        W26536  12.902   8.837   5.213  0.0930  0.1317  0.0062
 9690W        W26537  11.438   0.030  11.975  0.1414  0.0851  0.1504
 9691W        W26538  17.411  12.853  14.521 -0.1742  0.0120  0.1418
 9692W        W26539  17.338   6.464   2.457 -0.0422  0.2565 -0.1400
 9693W        W26540   4.607   8.632  14.958  0.0577  0.1440 -0.3535
 9694W        W26541  16.602  14.611  14.267  0.0256  0.1483  0.1075
 9695W        W26542   8.782   0.732   3.142  0.0693  0.1654 -0.0639
 9696W        W26543  18.315  18.068  11.833  0.1334 -0.3141  0.0784
 9697W        W26544  14.475  12.941  16.120  0.0680  0.0786 -0.0742
 9698W        W26545  16.870   4.961  13.182 -0.3452  0.1062  0.0288
 9699W        W26546  13.022  11.186  16.142  0.3206  0.1416 -0.0610
 9700W        W26547  15.146  14.768  14.287  0.0135  0.2537 -0.0424
 9701W        W26548   1.008  10.031   5.795  0.2074 -0.0024 -0.0406
 9702W        W26549  17.596   3.018   9.605  0.0308 -0.3505  0.4742
 9703W        W26550  16.472   5.992  11.285  0.0539  0.0614 -0.2448
 9704W        W26551  14.103  15.168  16.135  0.3791  0.0216 -0.1472
 9705W        W26552   5.952  12.154  14.791  0.0308  0.0911 -0.0780
 9706W        W26553   0.444  16.437  14.331 -0.3293  0.0283 -0.1597
 9707W        W26554  12.146  12.431   0.785  0.4206  0.1569  0.0828
 9708W        W26555  12.721   7.493   5.372  0.1844 -0.0583  0.0420
 9709W        W26556   1.250  11.281   4.885 -0.0719  0.1150  0.2189
 9710W        W26557   9.839   2.795   0.448  0.0352 -0.0392  0.0793
 9711W        W26558  11.712   8.200   1.490 -0.1691  0.0604 -0.2170
 9712W        W26559   1.229  18.233  13.164  0.1237  0.0346 -0.0039
 9713W        W26560  16.886   3.585  12.378  0.0866 -0.1856  0.1267
 9714W        W26561   1.292   4.927   3.506  0.2791 -0.0671  0.0075
 9715W        W26562  13.642   3.915   3.968 -0.0231 -0.2316  0.0819
 9716W        W26563  11.902   7.457   2.053  0.1676  0.1932 -0.1100
 9717W        W26564  15.686   7.793  11.697 -0.2178 -0.0609  0.0263
 9718W        W26565  11.610   6.567   3.931 -0.1573  0.0287 -0.0247
 9719W        W26566   9.115   7.891   1.707  0.0035  0.1292 -0.2109
 9720W        W26567  16.493   6.099   2.943  0.0116 -0.1583  0.1568
 9721W        W26568  17.732   4.309  15.954  0.0310 -0.0263  0.0711
 9722W        W26569   0.669   0.004   4.891  0.2480 -0.0286  0.2313
 9723W        W26570  18.219   4.645  15.111  0.0654  0.2782 -0.0728
 9724W        W26571   4.154   1.243   0.076 -0.0097 -0.0246  0.0918
 9725W        W26572  15.740  10.646  13.203  0.0420  0.0310  0.3555
 9726W        W26573   6.185  12.934  12.457 -0.1130 -0.4116 -0.0924
 9727W        W26574   3.872   2.821   3.467 -0.0183  0.0481 -0.1650
 9728W        W26575   4.958   3.533  15.548 -0.1348  0.2745 -0.1375
 9729W        W26576   4.007   8.387   2.832 -0.1402  0.3726 -0.0512
 9730W        W26577  16.449   9.660   0.217 -0.4546  0.0097 -0.2419
 9731W        W26578   0.377   9.884  11.370  0.1490 -0.1067 -0.0096
 9732W        W26579   6.281   2.062   4.385 -0.1346 -0.2838 -0.0812
 9733W        W26580   9.871  16.141  13.088 -0.1430 -0.1377  0.0413
 9734W        W26581  13.564  13.235   1.552 -0.0839  0.0254  0.4890
 9735W        W26582  10.378   0.154   0.490 -0.1889 -0.1440 -0.0148
 9736W        W26583  16.455   0.714  11.478 -0.3926 -0.2020 -0.1488
 9737W        W26584   1.758  13.017   1.417  0.3249 -0.1254 -0.0708
 9738W        W26585   9.132   7.187   0.273 -0.1747  0.1015  0.1780
 9739W        W26586  14.826   7.513  14.768 -0.0584 -0.1897 -0.0031
 9740W        W26587   4.673   8.094  11.607  0.1451  0.0315 -0.0733
 9741W        W26588   1.753   4.718  10.604  0.1875  0.0062 -0.0566
 9742W        W26589   9.105   7.166  12.594 -0.0696 -0.4097  0.1969
 9743W        W26590  10.970  17.914  12.778 -0.1578  0.0109 -0.0294
 9744W        W26591   0.968  14.568   0.922 -0.0026 -0.0349 -0.0721
 9745W        W26592  11.136   9.038   1.458  0.0572  0.5641 -0.1078
 9746W        W26593   0.121  15.657  14.524 -0.4319 -0.0414  0.2833
 9747W        W26594   1.703   3.348   4.889  0.1910 -0.0203 -0.0121
 9748W        W26595   8.773   9.418  13.764  0.0036 -0.2086  0.2755
 9749W        W26596  13.888   1.510   0.893 -0.1963  0.0652  0.0965
 9750W        W26597   1.626  15.906   0.154  0.1310  0.4072  0.0859
 9751W        W26598  15.059  17.745  15.341  0.2368  0.0224  0.0602
 9752W        W26599  11.946   0.899   1.850  0.0041  0.1463 -0.1414
 9753W        W26600   6.735   0.968  10.730 -0.1097  0.1709  0.0721
 9754W        W26601  12.602   3.775  12.571 -0.3248 -0.0926 -0.2165
 9755W        W26602   3.099   7.785  12.481 -0.1337  0.3563 -0.0255
 9756W        W26603  11.193   9.733  14.501 -0.0239  0.1065  0.2367
 9757W        W26604  17.845  15.230  13.729 -0.1620  0.0367 -0.0593
 9758W        W26605   1.999  13.846   1.143  0.0206  0.1095 -0.0615
 9759W        W26606   5.351  11.987   4.302 -0.1616 -0.1459 -0.1709
 9760W        W26607  11.973  17.748   0.199 -0.1173  0.0035  0.0563
 9761W        W26608  12.277   4.027   4.450  0.2082 -0.2300  0.0549
 9762W        W26609   4.535   1.428   1.834 -0.1719  0.1332  0.1276
 9763W        W26610  15.309  16.523  11.431 -0.1786 -0.1980 -0.0283
 9764W        W26611  15.599   9.365   3.507 -0.3277 -0.0737 -0.4045
 9765W        W26612   0.618  14.850   2.130 -0.0424  0.2622 -0.0064
 9766W        W26613   4.752  17.084  15.177 -0.0795  0.3749  0.0687
 9767W        W26614   2.810   2.829  15.898  0.2569 -0.1832 -0.1969
 9768W        W26615   4.231  15.613  12.773 -0.1577 -0.1819 -0.0084
 9769W        W26616  10.372  12.012   0.629 -0.1173  0.0989 -0.0089
 9770W        W26617   1.426  14.611  15.852 -0.1109  0.1875 -0.0051
 9771W        W26618  11.315  15.663  12.104  0.1526  0.2242  0.0939
 9772W        W26619  14.478  12.937   2.848  0.2744  0.0704  0.2124
 9773W        W26620  18.074  11.123  11.769  0.2698  0.0567 -0.3209
 9774W        W26621  14.054   7.761  13.579 -0.0148 -0.1926  0.2688
 9775W        W26622   3.772   6.933   2.686  0.1119 -0.1554  0.0191
 9776W        W26623   5.246  13.928   0.998  0.0605 -0.0539  0.1575
 9777W        W26624   9.700  17.534  15.387 -0.2127  0.3571  0.1795
 9778W        W26625  15.558   3.920  16.151 -0.3501  0.2172  0.0545
 9779W        W26626  12.435  10.134  12.700  0.0410 -0.1453  0.0013
 9780W        W26627  16.281   9.825   0.855 -0.1102  0.1549  0.2180
 9781W        W26628  12.210   1.579  12.657  0.0951  0.0410  0.4003
 9782W        W26629   6.471  18.160  14.232 -0.1665  0.4651  0.1400
 9783W        W26630  13.118   0.253  14.812 -0.3399  0.1680 -0.0971
 9784W        W26631  12.548  15.107   3.324  0.2969  0.2661  0.1004
 9785W        W26632   6.392  12.137   4.217 -0.1950  0.0925  0.5501
 9786W        W26633   9.898  13.191   2.776  0.1001  0.0307  0.1057
 9787W        W26634  11.720   3.162   4.001 -0.2543 -0.1050  0.2068
 9788W        W26635   0.878  12.039  11.109  0.3086 -0.0082  0.0344
 9789W        W26636  17.163   4.925  14.770  0.0207 -0.1020 -0.1165
 9790W        W26637  13.101   2.749   4.087 -0.3625 -0.3743  0.0633
 9791W        W26638   1.235   4.928   1.576  0.1472 -0.1543 -0.4966
 9792W        W26639   6.718  17.171   1.565  0.1028 -0.0457  0.0390
 9793W        W26640   7.123  12.093  12.777 -0.2258  0.1488  0.1684
 9794W        W26641   8.565  14.629   1.676 -0.2904 -0.1842  0.2525
 9795W        W26642   5.788  14.569   4.598  0.1802  0.0579 -0.0415
 9796W        W26643   1.976  11.718   2.625 -0.2342 -0.0467  0.1125
 9797W        W26644  17.283   3.488  15.162  0.3341 -0.0417  0.0148
 9798W        W26645   9.102   7.500   1.131  0.2232 -0.0668 -0.0642
 9799W        W26646  15.906  11.452  10.766 -0.1776 -0.1706  0.0971
 9800W        W26647  13.597  12.703   0.241  0.3273 -0.3467  0.0208
 9801W        W26648   2.762   3.229  15.607 -0.1445  0.0140  0.1091
 9802W        W26649  18.051  18.305  14.228 -0.2257 -0.3111 -0.0659
 9803W        W26650   2.680   0.902   0.932  0.0636  0.0606  0.0816
 9804W        W26651  17.193  16.411  13.280 -0.1637  0.0650  0.1415
 9805W        W26652   5.580  15.966  12.845 -0.2219  0.0496  0.1418
 9806W        W26653   3.366   8.627  16.021  0.2327 -0.2009 -0.0071
 9807W        W26654   5.380   3.018  13.331  0.0704 -0.0171 -0.0938
 9808W        W26655   1.200  16.258   6.005  0.0641  0.3279 -0.2935
 9809W        W26656  10.666  16.640  13.981 -0.0254  0.0873 -0.0902
 9810W        W26657  10.535   2.776   1.206  0.2269  0.0879  0.1055
 9811W        W26658  16.781   3.473   4.177 -0.0961 -0.1227  0.1321
 9812W        W26659  11.254  15.392   3.825 -0.4025  0.1967  0.2685
 9813W        W26660   6.159  17.439   0.994 -0.4315  0.3224 -0.0639
 9814W        W26661  11.083   6.061  13.507 -0.1490 -0.1373 -0.0345
 9815W        W26662   3.810   4.593  14.631  0.1837 -0.0760 -0.1003
 9816W        W26663  17.408  15.692  15.787 -0.0386  0.0985  0.1087
 9817W        W26664  14.851   4.818  10.874 -0.0300 -0.0092  0.1232
 9818W        W26665  15.268  12.391  12.946 -0.3943  0.3280 -0.0470
 9819W        W26666  12.786   9.202  14.116 -0.0511  0.0230 -0.0033
 9820W        W26667   6.790   2.862   0.893 -0.1832  0.3350 -0.1155
 9821W        W26668   2.981   4.721   4.057  0.1033 -0.0161  0.1572
 9822W        W26669   1.799  16.905  15.371 -0.1262  0.0756 -0.2032
 9823W        W26670  12.800  15.149  11.686 -0.0857  0.0408 -0.0596
 9824W        W26671  16.653  15.391   4.803  0.1198 -0.1918 -0.2805
 9825W        W26672  14.611  12.841  15.117  0.0415 -0.1721 -0.0557
 9826W        W26673   7.998   7.802   5.207  0.0961  0.0275 -0.0574
 9827W        W26674  13.283  12.383  12.609  0.2472 -0.0893  0.0333
 9828W        W26675   7.573   2.009   1.785  0.2321  0.1893  0.0114
 9829W        W26676   4.984  14.846  15.539  0.0390  0.2510 -0.0678
 9830W        W26677   4.055  13.378   3.940  0.1249  0.3258 -0.1763
 9831W        W26678   6.727  12.188   6.691 -0.2512 -0.1320 -0.1333
 9832W        W26679   1.447   4.071  15.451 -0.0370  0.1775 -0.1176
 9833W        W26680  14.602   4.049  16.045 -0.0064 -0.1881 -0.1430
 9834W        W26681   1.914  15.012   3.532 -0.1025  0.1208  0.2549
 9835W        W26682   1.013   4.722   4.830 -0.1960 -0.2464  0.2789
 9836W        W26683  13.130   2.887   0.435  0.1715  0.0235  0.0945
 9837W        W26684  18.131   7.336  13.202 -0.1375  0.0101  0.0298
 9838W        W26685   6.229  18.083  14.971 -0.0783  0.1098 -0.1673
 9839W        W26686   3.419   4.481   3.505 -0.0074 -0.0094  0.0341
 9840W        W26687   8.234   3.463   2.476  0.1826  0.1240  0.0959
 9841W        W26688   6.120   9.085   5.820  0.1180 -0.2168 -0.2111
 9842W        W26689   4.485   1.623   4.016 -0.0028  0.0202 -0.0294
 9843W        W26690   8.358   7.396  12.547  0.4566  0.4545  0.4988
 9844W        W26691  12.278   1.284   3.309  0.3524 -0.0467  0.2040
 9845W        W26692  10.012   2.078  13.550  0.3040  0.0394  0.2105
 9846W        W26693  14.269  10.466  13.769 -0.0370  0.2039  0.1009
 9847W        W26694   9.733  12.702   0.479 -0.1442 -0.1439 -0.0209
 9848W        W26695   0.935  16.414  11.638 -0.2298  0.1232 -0.1857
 9849W        W26696   3.934   2.054  14.387  0.3654  0.2990  0.0704
 9850W        W26697   1.171   0.553  15.727  0.0300  0.0152 -0.0307
 9851W        W26698   5.786  17.415   1.872  0.2785 -0.0523  0.1245
 9852W        W26699   0.042  15.343   1.799  0.0444  0.1573 -0.1605
 9853W        W26700   7.649   9.018   2.383 -0.2122 -0.0290 -0.0667
 9854W        W26701  17.660  10.630   5.545 -0.0381 -0.0222 -0.0509
 9855W        W26702  15.879   4.042  12.538  0.1602 -0.0129  0.1807
 9856W        W26703  17.421  17.202   0.945  0.0332 -0.0218 -0.0095
 9857W        W26704   4.861   3.419   0.687  0.1817  0.2296  0.2053
 9858W        W26705  18.047   8.693  11.069  0.1745 -0.1554 -0.0079
 9859W        W26706   5.561  13.834  14.165  0.1716 -0.3837  0.2353
 9860W        W26707  11.818  18.146  12.249 -0.1302 -0.3960  0.3283
 9861W        W26708   2.854  11.662   4.190  0.0292  0.2218 -0.0970
 9862W        W26709  16.962  12.548   0.575 -0.2560 -0.3469 -0.0234
 9863W        W26710  17.121   9.887   4.652 -0.0518  0.0256 -0.1627
 9864W        W26711   1.528  10.846  14.462  0.1906 -0.2217  0.3742
 9865W        W26712   5.350  11.575   0.709  0.1897 -0.0044 -0.0666
 9866W        W26713  11.519  13.929  14.474 -0.2158  0.1713  0.4716
 9867W        W26714   9.397   8.887  11.335 -0.2398  0.1776  0.2177
 9868W        W26715   1.924   0.518  11.760  0.0052 -0.2972  0.1932
 9869W        W26716   1.328  14.479  11.149 -0.0387  0.0044 -0.0956
 9870W        W26717   8.542  17.947   2.717  0.1701 -0.3022 -0.2892
 9871W        W26718  16.044  13.519  15.750 -0.0837 -0.1527  0.3853
 9872W        W26719   2.499  15.821  14.672  0.2810 -0.1027 -0.0390
 9873W        W26720   5.328  17.290   4.914 -0.2585 -0.0194 -0.2399
 9874W        W26721  14.330  16.959   2.560 -0.3134  0.2612 -0.0361
 9875W        W26722   6.543  10.175   4.334 -0.1918  0.0195  0.0212
 9876W        W26723  15.908   8.238   2.933 -0.1333  0.2919 -0.1936
 9877W        W26724  17.468  10.629   1.988  0.1403 -0.0934 -0.0698
 9878W        W26725   0.566  13.951   4.943 -0.2920  0.1302  0.0486
 9879W        W26726   8.633  12.248   2.568 -0.2457 -0.2177  0.1070
 9880W        W26727  13.165  11.632   0.859 -0.0450  0.1901 -0.0827
 9881W        W26728   4.482   9.887  15.772 -0.0648  0.0286 -0.1470
 9882W        W26729  10.121  13.645   5.604 -0.0775 -0.0698 -0.1647
 9883W        W26730   4.111   7.397   4.340 -0.1350  0.0440  0.0546
 9884W        W26731   5.414   7.717   0.644  0.1221 -0.1899 -0.3257
 9885W        W26732   9.593  17.793  12.711 -0.1862  0.0318  0.1350
 9886W        W26733   6.875   4.429  14.167 -0.0955 -0.4324  0.1601
 9887W        W26734  14.380  15.867   1.838 -0.4534 -0.1674  0.1675
 9888W        W26735  10.085   8.158  15.044 -0.1341 -0.2029  0.1422
 9889W        W26736   6.110  11.929  11.830  0.1076 -0.0011  0.2721
 9890W        W26737   8.174   8.913  12.088  0.0429 -0.2200 -0.0049
 9891W        W26738  17.563  11.105   2.719 -0.0111 -0.0321 -0.2420
 9892W        W26739  10.189  16.207   0.449  0.4752  0.0487 -0.0085
 9893W        W26740  12.207  11.833   1.838  0.1123 -0.2240 -0.2054
 9894W        W26741   6.361   6.434  13.432 -0.0093  0.0432  0.0460
 9895W        W26742   5.804  11.432   3.224 -0.1976  0.1707 -0.0732
 9896W        W26743   2.223   8.994   2.483 -0.0918  0.1070  0.1243
 9897W        W26744  17.346   1.822   4.752  0.1719  0.1250  0.0699
 9898W        W26745   4.306   0.065   1.820  0.1989 -0.0529 -0.0226
 9899W        W26746  10.648   7.099   0.011  0.0952  0.0410 -0.0499
 9900W        W26747  14.805  16.867  13.764  0.0427  0.0573 -0.3069
 9901W        W26748   4.811  13.296  10.977 -0.1943  0.1654  0.1833
 9902W        W26749  12.814   9.585   5.046 -0.2049  0.1049  0.0664
 9903W        W26750  11.586   9.872  11.301  0.1410 -0.2939  0.0375
 9904W        W26751  16.894  11.568   3.286  0.0537  0.0183  0.2973
 9905W        W26752  13.686   7.480   3.916 -0.0196  0.2371 -0.0274
 9906W        W26753  12.349  12.503  12.165 -0.0041 -0.0287 -0.2495
 9907W        W26754   9.988  13.445  12.874  0.2686 -0.0311  0.0643
 9908W        W26755   0.816  17.545   4.807  0.3411 -0.1115  0.2139
 9909W        W26756   5.180   8.036   1.663  0.3391 -0.2390 -0.1895
 9910W        W26757   2.249   9.001   5.029 -0.3136  0.0621 -0.1113
 9911W        W26758   9.334   8.376  11.501  0.1037 -0.3087 -0.0074
 9912W        W26759  12.036   2.089   2.502 -0.0192 -0.0906 -0.1437
 9913W        W26760   0.214  13.524   4.853 -0.1290 -0.1760  0.1895
 9914W        W26761   7.376  15.349  11.442  0.0184  0.0058  0.1491
 9915W        W26762  16.228  15.437   0.521  0.1464 -0.1372  0.2858
 9916W        W26763  17.870   8.657  13.529 -0.0403 -0.0109 -0.1118
 9917W        W26764  14.054   1.181  12.637  0.1151  0.1862  0.4205
 9918W        W26765   8.743   7.221   5.362  0.2999  0.0006 -0.5561
 9919W        W26766  11.729  11.140   5.152  0.0395 -0.2064  0.4198
 9920W        W26767   4.577  11.517  13.875  0.1324  0.0561 -0.4480
 9921W        W26768   3.878  18.243  10.365  0.1886 -0.0617  0.0799
 9922W        W26769  11.092   2.999  11.870 -0.3158  0.1057  0.2256
 9923W        W26770   6.726   7.107   3.215  0.0377  0.0162  0.0897
 9924W        W26771   8.971  13.376   2.685  0.0164 -0.0289 -0.0067
 9925W        W26772  17.643   1.320  13.852  0.1613 -0.0265 -0.0128
 9926W        W26773   7.098   6.000   1.200 -0.2321  0.2096 -0.0321
 9927W        W26774   0.347   7.198  13.508 -0.0999  0.1330 -0.4129
 9928W        W26775   0.757   0.132  11.461 -0.0616 -0.1119  0.1486
 9929W        W26776   3.695   7.452   0.441 -0.5308 -0.0851  0.1633
 9930W        W26777   0.235  11.130  15.614 -0.2352 -0.1091 -0.1013
 9931W        W26778   9.395  10.556  13.456 -0.1425 -0.1324  0.3241
 9932W        W26779   6.581  11.043   1.271  0.1660 -0.0625  0.0250
 9933W        W26780   0.266   4.194  14.977 -0.0759 -0.2609 -0.2563
 9934W        W26781   2.075   7.169  11.993 -0.0656  0.0090 -0.0085
 9935W        W26782  15.110   3.778  13.256  0.1882 -0.1247 -0.1065
 9936W        W26783  13.729   9.712   5.818  0.1674 -0.1839  0.1159
 9937W        W26784  11.301  14.055   4.992 -0.0067  0.1030 -0.2764
 9938W        W26785   4.045   3.188  14.822  0.1704  0.0570 -0.0630
 9939W        W26786   9.564   7.036   4.294  0.1494  0.2749 -0.0083
 9940W        W26787  12.986   5.630  13.787 -0.0511  0.0816  0.4262
 9941W        W26788  13.852   1.524   5.149  0.0772 -0.0815  0.0291
 9942W        W26789   8.398   3.497   0.082 -0.0859 -0.2247  0.1864
 9943W        W26790   7.649   5.487   2.678  0.2575 -0.1677 -0.3566
 9944W        W26791   8.462   4.609   3.586  0.1104  0.2297  0.0445
 9945W        W26792   6.236   6.131   2.938 -0.0048  0.0732 -0.2590
 9946W        W26793   5.649   1.766  12.976 -0.1317  0.1256  0.0187
 9947W        W26794   8.527   8.903   0.255 -0.3856  0.0911 -0.0965
 9948W        W26795  17.156  14.925   1.498 -0.0713  0.0199 -0.1319
 9949W        W26796   9.760  11.630  11.027  0.2200 -0.0002 -0.0416
 9950W        W26797   6.896   6.710  15.892 -0.0058 -0.0036  0.1275
 9951W        W26798  14.237  14.219  12.178 -0.0941 -0.1924  0.1099
 9952W        W26799  11.432   0.556  15.805  0.2124 -0.0406  0.1697
 9953W        W26800   1.003  15.147   1.711  0.0979 -0.3582  0.0784
 9954W        W26801  10.781   6.866   2.091 -0.2855  0.0568 -0.0185
 9955W        W26802   0.182   8.057  13.558  0.3073  0.1588  0.3233
 9956W        W26803   6.154  14.058   1.560 -0.2097  0.0279 -0.0245
 9957W        W26804   8.180   8.587  15.630  0.1704 -0.0973 -0.1203
 9958W        W26805  13.157  16.064   4.796 -0.2362 -0.2019 -0.2035
 9959W        W26806   1.094   3.657   1.425  0.1542 -0.1607  0.1558
 9960W        W26807  10.688   8.898   1.718  0.0391  0.1006  0.1451
 9961W        W26808   3.098  10.569   4.238 -0.2682  0.3009 -0.0338
 9962W        W26809   9.438  17.577  11.232 -0.2014 -0.2683 -0.2585
 9963W        W26810  11.477  17.718   0.512 -0.1260  0.1705 -0.0753
 9964W        W26811  15.345   0.625  12.338  0.1965  0.1141 -0.2376
 9965W        W26812   8.103   8.804   2.288  0.1716 -0.0221  0.0000
 9966W        W26813   7.799   4.023  12.290  0.1175 -0.2785 -0.0346
 9967W        W26814   9.631   4.110  15.551 -0.2145  0.0756  0.1969
 9968W        W26815   7.060  16.672   5.696 -0.2238 -0.0155 -0.0473
 9969W        W26816  15.354   1.118  15.126 -0.2256 -0.1388 -0.2565
 9970W        W26817   1.023  10.602  15.156 -0.0914  0.0639  0.1810
 9971W        W26818   3.933   0.683   1.440 -0.2026  0.0565 -0.1096
 9972W        W26819   4.719   0.059  11.873  0.0542 -0.1240  0.1350
 9973W        W26820   3.656   1.288  12.674 -0.0237  0.0010 -0.0734
 9974W        W26821  18.106   4.283   3.132  0.2081  0.0926  0.1155
 9975W        W26822  17.567  14.666  14.829 -0.0898  0.1313 -0.1481
 9976W        W26823   8.154   7.115   0.216 -0.2275  0.0732 -0.2599
 9977W        W26824  16.724  13.488  12.403  0.0001 -0.0904  0.0329
 9978W        W26825   1.051  16.916  11.457 -0.0683  0.1257 -0.1987
 9979W        W26826  16.785   3.297   2.201  0.1300  0.1709  0.1469
 9980W        W26827   4.748  14.891   3.756 -0.0359 -0.0028 -0.1519
 9981W        W26828   7.877   5.779   0.142  0.1576  0.5111 -0.1023
 9982W        W26829   5.059   3.453   4.649 -0.1583  0.2859  0.0773
 9983W        W26830   3.304  10.131   5.809  0.5155 -0.1483  0.1398
 9984W        W26831   4.876   5.507   2.192 -0.0868  0.0788 -0.2835
 9985W        W26832   4.699  11.097   2.751  0.0181  0.1642  0.0004
 9986W        W26833  12.307  12.774   1.467  0.2679  0.0046  0.0362
 9987W        W26834   9.299   7.529  15.641  0.1717  0.0442  0.0628
 9988W        W26835  10.241   0.303  12.678 -0.2742  0.1105  0.0849
 9989W        W26836   1.827   1.430   4.566  0.3248  0.0593 -0.3812
 9990W        W26837   5.960  17.310  15.548 -0.3281 -0.0864  0.1722
 9991W        W26838  15.885  18.003  15.562 -0.2034 -0.3088  0.1887
 9992W        W26839  13.316  12.068   5.107 -0.0401  0.2474 -0.1128
 9993W        W26840   0.551  13.672   0.898  0.1447 -0.1590  0.0837
 9994W        W26841   0.826  18.145   4.000  0.2961  0.2147  0.0106
 9995W        W26842  13.499  17.497   5.174  0.1773 -0.1048 -0.0393
 9996W        W26843   9.839  14.798  13.217 -0.0467  0.3926  0.3023
 9997W        W26844  14.910  13.452   0.157  0.0520 -0.0645  0.2138
 9998W        W26845   8.699  16.825  13.489 -0.0539  0.0260 -0.3151
 9999W        W26846   4.917   9.539   3.174 -0.4298  0.0210 -0.0029
10000W        W26847   8.737   2.104   2.256 -0.0560 -0.0210 -0.1306
10001W        W26848  15.773  10.227   4.958 -0.2032 -0.1598  0.0661
10002W        W26849   2.039   7.791  11.423  0.2507  0.3469  0.0906
10003W        W26850  13.199  16.418  15.836  0.1340  0.2933 -0.1211
10004W        W26851   6.070   5.548  13.191  0.2817  0.1916  0.3508
10005W        W26852  11.379  14.895   0.217  0.0850 -0.1051  0.2671
10006W        W26853  16.890   2.636  13.389 -0.1264 -0.1400 -0.2313
10007W        W26854   5.159   7.742   2.718  0.1884 -0.1895  0.1863
10008W        W26855   9.011   2.819  15.827  0.2933 -0.3064  0.1077
10009W        W26856  15.335   3.025   0.007 -0.1041  0.0292  0.0472
10010W        W26857   6.271  16.175  16.048  0.1143  0.0345  0.5113
10011W        W26858  11.616  16.578   1.394 -0.0201 -0.4237 -0.1061
10012W        W26859   4.234  11.485  12.611 -0.4403 -0.1281  0.1260
10013W        W26860  12.664   4.605  16.162  0.0932 -0.2680  0.0456
10014W        W26861   2.483   6.934   3.090  0.1827  0.0683  0.2361
10015W        W26862   6.889  15.949   4.083  0.1426 -0.0926  0.1528
10016W        W26863  15.009   0.207  11.684  0.0868 -0.0289  0.1555
10017W        W26864  17.859  10.849   2.410 -0.1265 -0.0736  0.2077
10018W        W26865  10.067   1.282   5.096 -0.0138 -0.0004 -0.0665
10019W        W26866   4.148   3.287   0.091  0.0354 -0.1571  0.0326
10020W        W26867   5.242   3.398  14.650  0.0544 -0.0812 -0.1686
10021W        W26868   6.200  11.745   5.402  0.1070  0.1237  0.2765
10022W        W26869   4.352  10.366  16.046  0.1331 -0.0293 -0.0297
10023W        W26870   5.614  16.041   0.992 -0.2277 -0.2717 -0.3299
10024W        W26871   1.443   5.029  15.990 -0.2594 -0.1329 -0.0107
10025W        W26872   2.587   2.973   1.233  0.1697 -0.1039 -0.1967
10026W        W26873   9.287  10.295   4.319 -0.0594  0.2093 -0.0831
10027W        W26874  17.100  17.776   4.860 -0.1088  0.0443 -0.0620
10028W        W26875   1.346   9.042   1.581  0.0132  0.0471 -0.2790
10029W        W26876   8.639  13.472  14.769 -0.2888 -0.2514  0.1020
10030W        W26877  14.660  10.683  12.668 -0.0669 -0.1084  0.0248
10031W        W26878  16.576  18.170  13.414  0.2530 -0.1416 -0.0467
10032W        W26879   4.887  17.159  13.732  0.0520 -0.0223 -0.1224
10033W        W26880   4.541  16.400   2.975 -0.2294 -0.0496 -0.1082
10034W        W26881   0.395  17.528  16.032 -0.0409  0.3566  0.1648
10035W        W26882  10.583  16.632  12.104  0.0772 -0.1222 -0.0644
10036W        W26883  13.086   3.251   2.258  0.0342 -0.1536 -0.1067
10037W        W26884   3.156   4.946   4.466 -0.1027 -0.1113 -0.0003
10038W        W26885   3.755  18.196   2.448 -0.4818  0.2384 -0.2490
10039W        W26886   3.706   5.775   2.719 -0.0023  0.0590  0.0644
10040W        W26887  17.562  14.237   1.798  0.0184  0.0407 -0.0613
10041W        W26888   6.385  13.556   3.279  0.1301  0.0767 -0.1841
10042W        W26889  10.694   2.546   3.449  0.1588  0.3385 -0.1245
10043W        W26890  16.718   4.153   2.533 -0.1730  0.0891  0.0637
10044W        W26891   1.858  13.860   1.981 -0.0774 -0.0244 -0.1331
10045W        W26892   3.207   1.104  12.448 -0.0447 -0.1213  0.3304
10046W        W26893  12.869  15.098  15.886 -0.1487  0.2255 -0.2543
10047W        W26894   3.134  12.757  12.073 -0.0125 -0.0237  0.1721
10048W        W26895   1.951   5.001  16.112 -0.0177  0.0786 -0.3608
10049W        W26896   0.072   2.584   5.300  0.1507 -0.1720 -0.2209
10050W        W26897  17.660   7.034   1.277 -0.0510  0.0036  0.5111
10051W        W26898  11.344  12.461  14.746 -0.0820 -0.0992 -0.0731
10052W        W26899  10.616   9.481   3.688 -0.0579 -0.0325 -0.2039
10053W        W26900  18.064   8.735  10.232 -0.2593 -0.0812  0.1848
10054W        W26901  15.571  14.789  15.822 -0.0021  0.0329 -0.0030
10055W        W26902  15.756  14.008  14.292  0.1094  0.1498 -0.0576
10056W        W26903  14.682   5.752  14.306  0.2861  0.0572  0.1936
10057W        W26904  13.674   8.453   1.166  0.1581 -0.0855  0.1485
10058W        W26905  15.777   3.282   0.731 -0.0906  0.0566 -0.1380
10059W        W26906  16.869  17.091   1.034 -0.1551  0.0893 -0.0658
10060W        W26907  10.676   3.777   4.770  0.0462  0.4783 -0.0355
10061W        W26908  15.707  12.641   4.000  0.0211  0.0280  0.0291
10062W        W26909  13.646  10.704  10.277  0.2485 -0.0113 -0.0146
10063W        W26910   9.680   9.497  14.509  0.0072 -0.0047  0.0488
10064W        W26911   5.621  15.136  14.264 -0.0126  0.1317 -0.0729
10065W        W26912  10.166  11.656   4.256 -0.2759 -0.0032  0.1386
10066W        W26913   5.947  10.168   5.159 -0.0596  0.1041 -0.0202
10067W        W26914  16.764  10.979  12.637 -0.1190  0.1665  0.2049
10068W        W26915   9.698  15.703  12.893 -0.1754 -0.3074  0.3671
10069W        W26916  10.253   8.344  14.149  0.5972  0.1622 -0.0653
10070W        W26917   6.153   1.967  11.806  0.0874 -0.2758  0.1090
10071W        W26918   7.913  18.323  13.343 -0.0168  0.0664 -0.1930
10072W        W26919   0.288   4.755  13.265  0.1221 -0.0398  0.2566
10073W        W26920   6.754  12.777  15.030  0.0471 -0.1247 -0.1743
10074W        W26921   2.438  17.227   1.253 -0.0002 -0.1147  0.0902
10075W        W26922  12.460  15.379   1.445  0.3268  0.1227 -0.2756
10076W        W26923  13.024   1.886  14.663 -0.0179  0.3816  0.1487
10077W        W26924   0.549  11.515   5.064  0.1617  0.0344  0.1056
10078W        W26925   4.902  16.349  14.918  0.1431 -0.1781  0.1153
10079W        W26926  14.737  17.276   0.453 -0.0073  0.0498  0.0210
10080W        W26927  15.439   5.984  14.967  0.0009  0.1371  0.3101
10081W        W26928   1.093   1.946   4.981  0.2259  0.0360 -0.0191
10082W        W26929   3.759   6.301  15.844  0.1040 -0.2018 -0.2786
10083W        W26930   8.345  15.200   0.397 -0.3257 -0.1238 -0.1111
10084W        W26931  14.081   3.954  11.879  0.0006 -0.3974  0.2999
10085W        W26932  12.049  10.141   1.072  0.3650  0.2106  0.0928
10086W        W26933   0.625   1.550  14.296 -0.1516  0.0351  0.0734
10087W        W26934   9.264  10.940   1.812 -0.0411  0.0064 -0.2206
10088W        W26935   9.996   3.022  12.663 -0.1753 -0.0043 -0.0520
10089W        W26936   5.602  15.640  12.371  0.1507  0.0488 -0.0287
10090W        W26937   0.769   0.326   2.546 -0.0980 -0.3535  0.3107
10091W        W26938   0.319  10.734  11.547  0.0822  0.0646 -0.2736
10092W        W26939  10.018  12.559   3.838  0.0635 -0.1158  0.1032
10093W        W26940   6.725   5.915   5.695  0.0005 -0.0400 -0.0576
10094W        W26941  11.807   3.731   2.737 -0.1988  0.0636  0.1884
10095W        W26942   9.217   1.472   4.982 -0.1857  0.0197 -0.0359
10096W        W26943  10.887   5.500   4.422 -0.4855  0.0955 -0.0602
10097W        W26944   7.125   2.632   1.368 -0.0089  0.0915 -0.0448
10098W        W26945   0.356   9.750  14.827  0.0689 -0.1284  0.2366
10099W        W26946  11.254   1.399   2.218 -0.0259 -0.2265  0.3106
10100W        W26947  13.325   3.201  14.440 -0.0637  0.1042 -0.3372
10101W        W26948   2.646   0.161   4.365  0.0100  0.1436  0.2179
10102W        W26949  11.094   3.513   3.544 -0.0963 -0.0561  0.3013
10103W        W26950   6.338   9.969   0.272  0.0887  0.2483  0.0946
10104W        W26951   4.394   2.703   2.136  0.1657 -0.0076 -0.1558
10105W        W26952   8.640  15.895  11.089  0.0203  0.1419  0.0075
10106W        W26953   5.846  14.397   3.672  0.0140  0.0996  0.0994
10107W        W26954  16.826   8.785   5.616  0.2066 -0.2107 -0.0668
10108W        W26955   8.011   0.443  14.315  0.2759 -0.0777 -0.0113
10109W        W26956  13.940   0.741  15.874  0.1664  0.2288  0.0529
10110W        W26957   2.293   1.416   3.841 -0.1149  0.0348 -0.0570
10111W        W26958   8.016   3.613  12.005 -0.1893  0.1364 -0.1126
10112W        W26959  16.141   8.300   3.740  0.0601  0.2481 -0.2879
10113W        W26960   3.950  14.052   0.932 -0.0593  0.0221  0.0621
10114W        W26961  16.250  17.903  14.189  0.0825 -0.0369 -0.2876
10115W        W26962  17.155  12.010  12.453  0.1013  0.5410 -0.0808
10116W        W26963   3.720   1.855   1.875  0.2446 -0.2404  0.3075
10117W        W26964  16.037   4.662  11.605 -0.0830  0.0701 -0.0455
10118W        W26965   2.868  11.650   1.217  0.0402 -0.0216 -0.0116
10119W        W26966  14.406  10.181   3.432 -0.0636 -0.1551 -0.4050
10120W        W26967   3.332  11.411   4.498  0.0537 -0.1583  0.1714
10121W        W26968   9.960  18.202  12.684 -0.0253 -0.0694 -0.0927
10122W        W26969   6.952   9.972  14.055  0.0469  0.0087  0.1355
10123W        W26970   3.860   3.619  15.107  0.1545  0.1092 -0.3244
10124W        W26971  15.355   8.818  12.780  0.0989 -0.1730 -0.1973
10125W        W26972   5.587   4.210  14.824  0.0915  0.1512  0.2069
10126W        W26973   2.180  10.639   4.233 -0.0673 -0.1814 -0.0753
10127W        W26974   3.191  13.439  12.533  0.0130  0.2363 -0.0258
10128W        W26975   7.497   3.936   3.635  0.0311  0.1532  0.0344
10129W        W26976   8.693  17.135   2.791 -0.0741 -0.2766  0.0858
10130W        W26977   0.509   9.072   5.856  0.0330  0.0184  0.2934
10131W        W26978   3.942  10.970   2.338  0.0827 -0.0879 -0.1412
10132W        W26979   7.594  10.259  12.914 -0.1909 -0.2260 -0.0494
10133W        W26980  13.520   5.516  14.846  0.0227  0.0933 -0.1468
10134W        W26981  14.152  13.491   1.622  0.2091 -0.1358  0.2532
10135W        W26982   5.987   1.072  10.816  0.0562 -0.2148  0.6563
10136W        W26983   7.632  17.075   4.119  0.1543 -0.2048 -0.0850
10137W        W26984  15.674   1.258   4.364  0.2318 -0.0152 -0.0570
10138W        W26985   5.323  14.770  13.469 -0.0523  0.0191 -0.3278
10139W        W26986   5.421  10.084  12.174 -0.1238 -0.1208 -0.0622
10140W        W26987   1.357   0.171   2.540  0.1605  0.0488  0.0354
10141W        W26988   2.540  12.835  14.759  0.3844 -0.0864 -0.1492
10142W        W26989  13.271   1.524   3.208  0.0772 -0.0016 -0.2352
10143W        W26990  13.711   2.663  12.722 -0.1299  0.1881  0.1226
10144W        W26991   8.124   6.035  11.786 -0.1873  0.6253 -0.2977
10145W        W26992  14.896  13.770   3.400  0.1888  0.0269  0.0803
10146W        W26993   6.164  16.503  11.393 -0.1089  0.2385  0.1578
10147W        W26994   6.392   4.310  11.405 -0.0289  0.1221 -0.0862
10148W        W26995  11.504   3.945   4.404  0.4357 -0.2403  0.0589
10149W        W26996  15.457  14.033   3.834  0.1915  0.1136 -0.0837
10150W        W26997  12.619   8.321   4.497  0.0096  0.2329  0.0968
10151W        W26998   1.070   1.285  12.129  0.1026  0.1247 -0.1799
10152W        W26999   5.127  13.865  15.840 -0.2184 -0.0894  0.0770
10153W        W27000  18.031  18.231   3.211 -0.0501  0.0723 -0.1347
10154W        W27001   8.407   0.259  16.151 -0.1103  0.3173 -0.0934
10155W        W27002  16.212  14.548  14.972 -0.0333 -0.0071 -0.1081
10156W        W27003  15.947   9.437  10.613  0.1092  0.0065  0.0921
10157W        W27004   1.186  14.845   5.412 -0.0238  0.1475 -0.2828
10158W        W27005   3.707  14.762  12.164  0.1837  0.1822  0.1551
10159W        W27006  17.952  10.760  14.449  0.0415 -0.0891  0.0208
10160W        W27007  12.056   8.062  13.526  0.3522 -0.1343 -0.0341
10161W        W27008  15.494  11.981  13.125  0.2532  0.0566  0.0527
10162W        W27009   8.071   1.834  12.127 -0.3189 -0.1674 -0.1414
10163W        W27010   7.122   7.158   4.632 -0.0021  0.1403  0.1107
10164W        W27011   1.703  18.042  11.158  0.2018 -0.2536 -0.2555
10165W        W27012   0.371  13.691   2.787  0.0783  0.4794 -0.0514
10166W        W27013  12.897  14.859   2.167  0.1020 -0.2915  0.2080
10167W        W27014  15.456  17.598  11.346  0.1656  0.1856 -0.1068
10168W        W27015  10.068  11.947  15.076  0.0521  0.2297 -0.0849
10169W        W27016  12.120   5.961  13.128  0.0252  0.0873  0.2570
10170W        W27017  16.941  15.534   5.398  0.1239 -0.0615  0.0648
10171W        W27018   1.753   8.372   1.123  0.0348  0.2081 -0.1786
10172W        W27019  15.386   7.543   5.582  0.1661  0.1733 -0.0902
10173W        W27020   4.633  12.205  15.414 -0.0026  0.1105  0.1015
10174W        W27021   3.496  17.156  15.179 -0.4295 -0.1971  0.0560
10175W        W27022  13.708  16.273  15.751 -0.1488  0.0518  0.1584
10176W        W27023   4.195   7.400   0.439 -0.1580  0.1039  0.1552
10177W        W27024   9.887   7.221  12.669  0.0218 -0.0503 -0.2089
10178W        W27025  18.078  11.841   0.560 -0.2002 -0.0392  0.1313
10179W        W27026   1.175   6.955  11.468 -0.0453  0.0429  0.2873
10180W        W27027  16.288  11.392  13.462 -0.1563 -0.1874  0.2851
10181W        W27028  13.591  16.938  14.232  0.2191 -0.0621  0.0713
10182W        W27029   4.587   1.707  12.719  0.1222  0.0443  0.0437
10183W        W27030   4.521  17.611   3.544  0.1313  0.0321  0.1111
10184W        W27031  17.656   2.339   3.159 -0.0677 -0.0306 -0.0571
10185W        W27032   2.853   3.477   1.240 -0.0424 -0.0785 -0.0979
10186W        W27033   7.092   6.770  15.433 -0.2367 -0.2062  0.0395
10187W        W27034  14.366   7.175  10.958  0.0340 -0.2176 -0.2562
10188W        W27035   8.606  13.884   3.792 -0.1296  0.1362 -0.1577
10189W        W27036   0.486  16.631  11.454 -0.2648 -0.4242  0.1273
10190W        W27037   0.989   4.553   3.217 -0.0825  0.1473 -0.1912
10191W        W27038   1.588   6.479   2.877 -0.1499  0.0959  0.0560
10192W        W27039   2.999  13.659  13.239 -0.3277 -0.1999  0.1197
10193W        W27040  12.160  10.544  13.178 -0.4055  0.1637  0.0915
10194W        W27041  12.159  17.772  15.436  0.1207 -0.0908  0.1126
10195W        W27042  13.105   8.199   2.322  0.1373 -0.0424  0.0368
10196W        W27043  12.954  15.541  13.451  0.1929 -0.1379  0.1755
10197W        W27044   8.936   6.208  12.935 -0.0385 -0.0666 -0.0366
10198W        W27045  13.818   6.194  14.230 -0.0611 -0.0890  0.0836
10199W        W27046  10.782  13.349   2.406  0.0172  0.0290 -0.0079
10200W        W27047   1.520   5.798  12.715  0.0716  0.1319  0.1035
10201W        W27048   3.430  10.073  15.018 -0.2657 -0.0260 -0.0752
10202W        W27049  15.848  12.456   3.522 -0.1354  0.4700 -0.0092
10203W        W27050  12.781  14.863   5.480  0.3225  0.0890  0.1686
10204W        W27051   0.585  13.465   3.267  0.0554 -0.5546 -0.2523
10205W        W27052   9.933   8.791  15.668  0.2508 -0.0087 -0.1126
10206W        W27053   9.460   3.760   3.025 -0.0916  0.1462 -0.1252
10207W        W27054  11.061  13.662   3.262  0.2035 -0.0804  0.1060
10208W        W27055  15.426   2.407  12.180  0.0348 -0.2914 -0.0005
10209W        W27056   0.136   2.684   4.206  0.1150  0.2218 -0.0453
10210W        W27057  16.344  17.154   0.708  0.0467 -0.1593  0.1650
10211W        W27058  18.039   5.274   5.513 -0.1387 -0.0805  0.1853
10212W        W27059   2.230  13.514   3.478 -0.0990 -0.1435  0.2722
10213W        W27060   9.652   8.992   3.488  0.1045 -0.0894  0.2949
10214W        W27061   4.530   9.410  11.549 -0.2669  0.3943  0.1351
10215W        W27062  14.859   9.776   1.903  0.0803  0.0900 -0.0576
10216W        W27063  14.802   5.237  14.144 -0.1986  0.0076  0.0218
10217W        W27064   5.685   9.678  13.239  0.0709 -0.0299 -0.1733
10218W        W27065  14.236   1.687  14.923  0.0739 -0.0737 -0.0954
10219W        W27066  18.221   1.648  11.443  0.1217 -0.0509 -0.1394
10220W        W27067  13.772   1.774  13.866  0.2729  0.2399 -0.2076
10221W        W27068  10.000   9.344  11.581 -0.1054  0.2366 -0.0040
10222W        W27069   1.792   8.327   1.985 -0.1002 -0.1984 -0.2051
10223W        W27070   5.348  14.425  16.062 -0.0755  0.0714  0.1170
10224W        W27071   7.565  13.510  14.111 -0.2480 -0.2012  0.2327
10225W        W27072   1.027  15.642   3.161 -0.0860  0.1240 -0.0965
10226W        W27073   2.252   1.837   3.580 -0.0029  0.0344  0.2223
10227W        W27074   0.022  13.503  12.096  0.1811  0.3621 -0.1033
10228W        W27075  14.522   6.274   0.098  0.2099  0.2298  0.0651
10229W        W27076  10.029  14.878   4.538 -0.2500 -0.2347 -0.0679
10230W        W27077  11.828  11.709   4.611 -0.1878  0.0226  0.3201
10231W        W27078  16.286   6.398  13.483 -0.0658 -0.0041 -0.0563
10232W        W27079   4.674  17.630   0.878  0.1678  0.1273 -0.0681
10233W        W27080   1.406  16.931  12.309 -0.0952  0.0051 -0.3110
10234W        W27081   4.291  17.930  12.862 -0.1858  0.0058 -0.1092
10235W        W27082  13.168  10.534  12.953 -0.2979 -0.1715 -0.0820
10236W        W27083  13.035  13.562   4.191  0.0106  0.1370  0.3294
10237W        W27084  13.871  12.491   4.843 -0.2963  0.1640  0.2140
10238W        W27085  16.987   7.869  11.735 -0.1461  0.1696  0.0740
10239W        W27086   6.018  17.563   6.042  0.3099  0.0078 -0.0778
10240W        W27087   3.345   5.532  11.863  0.0727 -0.0215 -0.0328
10241W        W27088   2.249   6.376   2.177  0.2144  0.1293  0.0635
10242W        W27089  13.560  11.640   0.469 -0.2097  0.0510  0.0720
10243W        W27090   2.901   9.958   2.193 -0.1203 -0.2115 -0.2882
10244W        W27091  11.664   3.536  15.587 -0.0636  0.0245 -0.0470
10245W        W27092   4.551  17.663   1.434 -0.3187  0.0619 -0.1184
10246W        W27093  14.714   9.970  12.135  0.0447 -0.2180  0.0160
10247W        W27094   4.755  13.633   1.102  0.2861  0.2086 -0.0768
10248W        W27095  13.655   6.405   3.277  0.0383  0.0241  0.0993
10249W        W27096   9.398  14.550  15.030  0.1036 -0.1523  0.2625
10250W        W27097  15.786   5.306   0.676 -0.3179  0.2047 -0.1808
10251W        W27098  18.015  10.476   0.078  0.0299  0.0542  0.1014
10252W        W27099   9.803  14.988   6.037 -0.2086 -0.2564 -0.1644
10253W        W27100   9.892  17.878   5.996  0.1739  0.3725 -0.1569
10254W        W27101   4.618  14.939   3.064 -0.1069  0.1151  0.1929
10255W        W27102  16.272  14.361  11.487  0.0299 -0.0828  0.0901
10256W        W27103  17.503  10.354   6.092 -0.0051 -0.2125  0.0190
10257W        W27104   8.932   5.507  11.469  0.2335  0.0284 -0.1922
10258W        W27105   7.342   5.951  15.279  0.1001 -0.2245 -0.2194
10259W        W27106  18.041  15.438  13.311  0.1000  0.1536 -0.0794
10260W        W27107   8.027   7.272  15.077 -0.4241  0.0466  0.2742
10261W        W27108   5.225  15.613  11.982 -0.3793 -0.0442 -0.2225
10262W        W27109  16.752   5.559   0.588 -0.2068 -0.2571 -0.0521
10263W        W27110   9.758   6.687  14.761 -0.2498  0.1787  0.0380
10264W        W27111  13.521  16.788   5.654 -0.2385 -0.1083 -0.0394
10265W        W27112   3.432   6.707   0.015  0.2058  0.0815  0.0162
10266W        W27113   8.706  12.624   3.652  0.3378  0.2248  0.0031
10267W        W27114  12.571   5.389   1.608  0.1497  0.0463  0.1965
10268W        W27115  13.244   2.949   1.629 -0.0471  0.4541  0.0067
10269W        W27116   3.441  16.533  12.222 -0.1309 -0.1712  0.2205
10270W        W27117  14.750   4.763  15.606 -0.0475 -0.1183 -0.1963
10271W        W27118  17.212  14.522  15.317  0.0140 -0.0324 -0.1969
10272W        W27119   7.300  13.958  14.174  0.1404  0.0910  0.0259
10273W        W27120  14.395   0.188   2.792  0.2737  0.1473 -0.0415
10274W        W27121   2.674  17.045  11.570  0.1454  0.1237 -0.1087
10275W        W27122  12.936   3.216  10.947  0.0262  0.1529 -0.0034
10276W        W27123   3.622  16.223   0.508 -0.0647  0.1391  0.0544
10277W        W27124   6.925  12.115   6.128  0.2328  0.2485 -0.1267
10278W        W27125   8.117  15.272  14.874  0.0932  0.1034  0.2639
10279W        W27126   8.986  14.286   5.663  0.1977  0.0034 -0.1265
10280W        W27127   5.820  10.494  12.680 -0.1350 -0.1853 -0.0452
10281W        W27128  16.534   2.539  16.038  0.1144  0.2227  0.0645
10282W        W27129   1.464   0.388   3.377  0.0847 -0.1587 -0.1030
10283W        W27130  17.857   5.496   1.708  0.0054 -0.0557 -0.1473
10284W        W27131  13.844  10.923   2.475 -0.1551  0.0585  0.1006
10285W        W27132   4.774   9.535   4.359 -0.2524 -0.0549 -0.2037
10286W        W27133   9.682   0.787   0.969 -0.0271 -0.0464  0.0606
10287W        W27134  16.753   2.082   2.500 -0.2130 -0.0760 -0.0643
10288W        W27135   7.000  17.669   3.377  0.0477  0.0226 -0.2338
10289W        W27136  10.665   9.976   1.160 -0.2164 -0.0045 -0.1282
10290W        W27137   1.691  12.137   2.758 -0.1571  0.1662  0.0834
10291W        W27138   4.762  15.355   3.853 -0.0914  0.0643  0.2450
10292W        W27139   0.424  14.989   2.981  0.0536  0.1352 -0.1012
10293W        W27140  18.005  14.621   3.489  0.0349 -0.1340  0.0429
10294W        W27141   5.789   7.207   5.381  0.4837 -0.0289  0.2678
10295W        W27142   7.572  13.425   4.448 -0.2702 -0.0154  0.0678
10296W        W27143   6.618  12.124   1.655  0.4497 -0.1716  0.0658
10297W        W27144   1.881  17.130   2.947 -0.0356 -0.1933 -0.2233
10298W        W27145   6.313  12.982   3.120 -0.1597  0.3347 -0.3030
10299W        W27146   9.977   5.328   3.240  0.0090 -0.1024 -0.0177
10300W        W27147  15.249  12.012   2.333  0.0430  0.1930 -0.3857
10301W        W27148  17.501   1.734  13.291 -0.0049 -0.1439  0.0897
10302W        W27149  16.546  10.893   3.219  0.0982  0.0182 -0.0860
10303W        W27150  12.639   5.010  14.807 -0.0645 -0.0013  0.1028
10304W        W27151  11.940   2.634   1.728 -0.1605  0.2315  0.1319
10305W        W27152   9.904  18.306   2.120  0.0855  0.3664  0.0129
10306W        W27153  11.820   4.136  13.325  0.0712  0.1508 -0.0345
10307W        W27154   9.291  10.306  11.624  0.0119 -0.0547 -0.0319
10308W        W27155   6.674   5.657  11.992  0.2106  0.0716  0.2396
10309W        W27156   0.991   1.627  15.102 -0.3235 -0.0954  0.2107
10310W        W27157   2.201  13.573  13.659 -0.1481  0.1645 -0.1321
10311W        W27158  14.986  11.799  13.278 -0.0146 -0.1773 -0.0038
10312W        W27159   0.480  17.499  13.896 -0.1228  0.1149  0.3197
10313W        W27160   3.654  10.643   3.251 -0.1663 -0.0544 -0.3944
10314W        W27161  15.656  14.532   4.707  0.1343 -0.0855 -0.3048
10315W        W27162   7.498   6.562  16.053 -0.2304  0.2953 -0.0510
10316W        W27163   5.049   4.884   3.168 -0.0865 -0.2618 -0.5332
10317W        W27164  11.673  17.560   5.950 -0.0115  0.2233  0.1003
10318W        W27165  12.645   9.784   0.972  0.0492  0.0301 -0.0335
10319W        W27166   6.617  15.776  12.473 -0.1059  0.0980  0.1327
10320W        W27167   3.489   8.796   2.548 -0.3076  0.2633  0.2764
10321W        W27168   4.268  17.007   2.602 -0.1112 -0.1697 -0.0139
10322W        W27169  16.713   6.544  10.979  0.2238 -0.2431 -0.0526
10323W        W27170  10.041   9.412  10.731  0.3337 -0.1400 -0.2923
10324W        W27171  12.388   2.420   9.743 -0.0232  0.1533 -0.0942
10325W        W27172  13.950  14.605   4.554  0.0293 -0.2101 -0.2277
10326W        W27173  14.005  17.021   0.094  0.4654  0.0517 -0.2766
10327W        W27174   6.794  15.323  15.404  0.0079  0.2055  0.0303
10328W        W27175  17.167  10.263   2.153  0.0340 -0.0057 -0.0853
10329W        W27176   3.117  17.408   2.782  0.0504 -0.0902  0.1914
10330W        W27177  17.679  12.103   1.181 -0.0955  0.1002  0.0098
10331W        W27178   3.692   7.551  16.136 -0.0491  0.2609 -0.0699
10332W        W27179  13.569  11.418  11.168 -0.0857  0.1335 -0.2315
10333W        W27180  14.776  12.565   2.965 -0.1380  0.1156 -0.0421
10334W        W27181  17.720  13.451  11.360 -0.0585  0.1283  0.1275
10335W        W27182  15.749   6.824  11.778  0.3489 -0.1026  0.1769
10336W        W27183   4.207   4.456   2.694 -0.0366  0.1907 -0.0180
10337W        W27184   2.878  16.276   3.507 -0.3003  0.1313  0.3926
10338W        W27185   2.043  12.452  11.867 -0.0973  0.0706 -0.0875
10339W        W27186   2.338  10.077   0.269  0.1198 -0.0884 -0.1185
10340W        W27187  14.753   7.441  11.344  0.1591 -0.1784  0.0406
10341W        W27188   0.885  15.775  13.618  0.0801 -0.0300  0.1903
10342W        W27189  17.801   2.174   1.646  0.1090  0.1801  0.2723
10343W        W27190   6.844  11.972   2.189 -0.1546  0.1734  0.1119
10344W        W27191  17.990   1.582  11.878  0.0559  0.0316 -0.0495
10345W        W27192  13.565  18.272   1.076 -0.0531  0.0377 -0.0191
10346W        W27193   3.536  10.553  14.625 -0.0199  0.4387 -0.0952
10347W        W27194   9.001   6.429   1.772  0.0266 -0.0322  0.0239
10348W        W27195   5.694   9.527  16.087  0.4119  0.0397 -0.0330
10349W        W27196  16.142  12.459   4.897 -0.0385 -0.0476 -0.0203
10350W        W27197   8.529   4.523   4.463 -0.1864  0.0396 -0.0822
10351W        W27198   1.287  11.438   1.554 -0.0625 -0.1914  0.0408
10352W        W27199   8.067  11.476  11.176  0.1847 -0.0534 -0.1109
10353W        W27200   8.432   5.702  11.631  0.3179 -0.0055 -0.1826
10354W        W27201   8.828  12.224  11.849  0.3062 -0.1093 -0.4810
10355W        W27202   8.294   5.085  13.346 -0.1272  0.0349  0.0412
10356W        W27203   2.364  10.363  12.749  0.1228  0.0971  0.2157
10357W        W27204  11.595   2.838  15.365  0.2045  0.0620 -0.1131
10358W        W27205  12.387   5.311   3.833 -0.1718 -0.0366 -0.3673
10359W        W27206  15.918   5.864  12.024  0.1733 -0.2680 -0.1676
10360W        W27207   5.123   0.048  14.331  0.0687 -0.2156 -0.1132
10361W        W27208   1.959   5.880   0.793  0.0378  0.0266  0.3552
10362W        W27209   0.033  14.472  13.655 -0.4306 -0.0306 -0.0059
10363W        W27210   7.283   2.038   5.912  0.2725  0.1177  0.1358
10364W        W27211  12.786  10.117  11.548 -0.1544  0.2540 -0.3326
10365W        W27212   0.687   2.898  13.555  0.0147  0.1739  0.2224
10366W        W27213   6.602  13.028   0.881  0.0992  0.0233 -0.0283
10367W        W27214   2.871   7.963   0.514 -0.4006 -0.0536  0.1539
10368W        W27215  16.415   6.044  14.481 -0.0306  0.2856  0.1939
10369W        W27216   8.453  16.474  12.753 -0.0441  0.3072 -0.0909
10370W        W27217   6.653   5.669  11.151 -0.0707 -0.0579  0.0575
10371W        W27218  14.744   6.226   1.388  0.1308 -0.1590 -0.0410
10372W        W27219   9.312  10.787   3.801 -0.1986  0.0265  0.1268
10373W        W27220  17.269  11.627  12.106  0.0257  0.2058 -0.1934
10374W        W27221   5.905  15.320   3.478 -0.1395 -0.0020  0.1316
10375W        W27222  13.038   3.051   5.201  0.4377 -0.1298 -0.0407
10376W        W27223  10.767   2.087  11.582  0.0284 -0.2131 -0.2505
10377W        W27224  10.156   9.868   3.997  0.0322 -0.0980 -0.0538
10378W        W27225   0.703  15.865  13.097  0.0514 -0.0857  0.0024
10379W        W27226   6.245  14.796   2.783  0.0926  0.0481 -0.2150
10380W        W27227  14.131  17.237   4.084  0.0478  0.0152  0.0393
10381W        W27228   7.351   7.187  12.890 -0.2873 -0.3105 -0.2552
10382W        W27229   5.126   8.365  11.690 -0.2424 -0.1118  0.2386
10383W        W27230  16.809   9.863  10.162 -0.2861  0.0697  0.0713
10384W        W27231  12.694   0.074  13.385 -0.2522 -0.0235  0.1616
10385W        W27232   2.244  12.218  15.369  0.1357  0.5660 -0.1480
10386W        W27233   0.758   8.095   2.764  0.2185  0.1425 -0.1903
10387W        W27234  17.906  13.470   1.592 -0.0985  0.2309  0.3079
10388W        W27235  16.906  12.342  15.460  0.1475 -0.0541  0.0051
10389W        W27236   5.952  10.701   5.296  0.1499  0.2911 -0.0665
10390W        W27237   6.125  13.310  12.165  0.0845 -0.0514  0.4242
10391W        W27238  16.591  12.999   1.401 -0.1561 -0.1726 -0.1290
10392W        W27239   9.240  10.303  16.079  0.2609 -0.0085 -0.2487
10393W        W27240   0.256  17.317   1.191  0.1419  0.0205 -0.1564
10394W        W27241  13.358   4.154   0.387  0.1516 -0.0580 -0.0887
10395W        W27242  12.505   7.222  11.697  0.2425 -0.0772  0.3041
10396W        W27243   6.874   6.735   3.516 -0.1951  0.0655  0.0895
10397W        W27244   3.108  15.985   3.982  0.0231 -0.0220 -0.0338
10398W        W27245   9.769  14.929  15.056  0.0504 -0.0872  0.0476
10399W        W27246  10.733   4.190   2.319 -0.4057 -0.1720  0.1128
10400W        W27247   6.602   2.184  11.172  0.0983 -0.1415  0.1000
10401W        W27248   1.959   3.400  16.147  0.2047 -0.0557  0.2798
10402W        W27249  13.759   5.002   4.879 -0.2311 -0.0815 -0.2434
10403W        W27250   3.628   7.702  15.467  0.0436 -0.0355  0.0469
10404W        W27251   2.091  12.085  14.515 -0.1379 -0.2850 -0.1802
10405W        W27252  11.476  18.071  13.845 -0.1001 -0.1668  0.2540
10406W        W27253  16.394  11.396  11.555  0.1203  0.0286  0.2004
10407W        W27254   9.880   7.793   3.258  0.0775 -0.0355 -0.2189
10408W        W27255   6.826   6.014   2.259  0.0026 -0.0459 -0.0816
10409W        W27256  12.030  12.144  15.145 -0.1603 -0.1953  0.1804
10410W        W27257   3.616   5.011   1.178 -0.0163 -0.2394 -0.0927
10411W        W27258   6.307   7.810  12.736  0.1594  0.3276 -0.2007
10412W        W27259  16.845   2.247  15.140 -0.4929 -0.0833 -0.0519
10413W        W27260   8.736   1.605   3.673  0.3534 -0.1392 -0.2636
10414W        W27261   6.835   5.066   1.196  0.2780 -0.0511  0.3267
10415W        W27262  16.023   0.083  12.632 -0.3330 -0.1076 -0.2113
10416W        W27263  15.060  16.276   2.907  0.1298  0.0176 -0.1324
10417W        W27264  16.272  15.038  15.211  0.1912 -0.0066  0.0227
10418W        W27265  14.648  18.111   3.664  0.1360  0.1230  0.2142
10419W        W27266   5.267  11.133   2.609 -0.1932  0.0292 -0.1471
10420W        W27267  13.443   7.657  15.041 -0.2983  0.0325  0.1978
10421W        W27268  12.715  13.308  16.050 -0.0525 -0.2632  0.1469
10422W        W27269   4.310   2.561  15.171 -0.1740 -0.1299 -0.0453
10423W        W27270   8.050   9.861  15.690 -0.1687  0.4452  0.0838
10424W        W27271   2.142   9.932   1.221 -0.0367 -0.0556 -0.1137
10425W        W27272  13.610  13.561  16.122 -0.0676 -0.2296  0.2000
10426W        W27273   6.556   7.394  12.842 -0.1342  0.0120 -0.2347
10427W        W27274   6.578   9.713   1.875 -0.1697 -0.0641 -0.2395
10428W        W27275   8.654   4.775  12.002 -0.1984 -0.1846  0.1032
10429W        W27276  10.686   9.355  15.578 -0.0330  0.1804 -0.2326
10430W        W27277   6.534   3.563  14.231  0.2455 -0.0373  0.2061
10431W        W27278  15.224   6.877   5.406  0.3257 -0.1854 -0.2583
10432W        W27279  12.514  16.758   5.729 -0.0842 -0.1789 -0.2519
10433W        W27280  16.741  15.345   0.928  0.0376 -0.2996  0.4356
10434W        W27281   4.085  12.602  11.955  0.0400 -0.2926 -0.1466
10435W        W27282  12.556  18.209   3.676  0.0693 -0.0214  0.2406
10436W        W27283   0.534  17.003  12.261  0.2692  0.2736 -0.0545
10437W        W27284  15.000  13.211  15.896 -0.0003  0.1570 -0.0956
10438W        W27285   0.477  14.776   3.513  0.1225  0.0734 -0.3723
10439W        W27286  15.330   5.227  11.979  0.0709  0.1793 -0.0132
10440W        W27287   8.953   4.414  13.060  0.0958 -0.0531  0.0372
10441W        W27288   4.093  16.503   2.705  0.0481  0.1041  0.3888
10442W        W27289  15.297  14.828  14.796  0.1431 -0.2180  0.0435
10443W        W27290   8.044   3.152   3.601  0.0324  0.0543  0.2539
10444W        W27291  12.247   1.563  14.853  0.0050 -0.1847 -0.1426
10445W        W27292   4.097  11.751   3.030 -0.2847 -0.0327  0.1619
10446W        W27293   5.476  12.484   4.937 -0.1656  0.3474 -0.4903
10447W        W27294   6.335   7.327  15.352  0.0446 -0.0013  0.2096
10448W        W27295  13.486  14.007   2.878  0.1843  0.3704  0.0589
10449W        W27296   8.689  13.787  12.402 -0.0893  0.0120 -0.0166
10450W        W27297   5.654   1.059   0.369 -0.0176  0.1204 -0.1482
10451W        W27298   2.702  11.639  13.783 -0.0725  0.1149 -0.1479
10452W        W27299   8.046   7.765   3.193 -0.2462 -0.2588  0.2623
10453W        W27300  14.614  14.044   0.552 -0.0882 -0.1862  0.0810
10454W        W27301   5.162  16.502  10.449  0.1731 -0.0424  0.4080
10455W        W27302   5.536   0.433   1.345 -0.1844 -0.4507  0.1674
10456W        W27303  13.390   3.289  15.818 -0.1765  0.0043 -0.1395
10457W        W27304   4.647   7.794   3.793 -0.0497 -0.1783  0.0396
10458W        W27305   6.736  17.329   6.491  0.2018 -0.2287  0.3782
10459W        W27306  16.864   1.395  16.181 -0.1552  0.0649 -0.0658
10460W        W27307  16.400  11.158  15.823  0.2024  0.0628  0.1132
10461W        W27308   6.235   4.168  15.404 -0.1898  0.2265  0.0841
10462W        W27309   6.784   0.229   1.470  0.2786  0.1776  0.0363
10463W        W27310   5.380  12.594   0.395 -0.2477  0.0583 -0.1173
10464W        W27311   8.455  15.028  13.141 -0.1476 -0.2598  0.1619
10465W        W27312   7.623  12.664  14.469  0.0274  0.0136 -0.1987
10466W        W27313   9.016   1.336   2.238  0.1377  0.1703  0.2506
10467W        W27314   3.403   9.050   4.701  0.3994 -0.0161  0.0305
10468W        W27315   4.083   0.963   3.303  0.3739 -0.1752 -0.0042
10469W        W27316   0.734  17.170   1.451  0.1417 -0.0273  0.0697
10470W        W27317  17.230   2.083   2.313  0.1716  0.0060  0.0016
10471W        W27318   6.395  14.394   3.507  0.2717  0.1518  0.2120
10472W        W27319   4.335  10.343  13.055 -0.0342 -0.1171 -0.1009
10473W        W27320   4.879   8.779  14.446 -0.3937 -0.1724  0.0906
10474W        W27321   0.874   8.681   0.809 -0.0401  0.3339  0.0364
10475W        W27322  16.566  15.160   5.577  0.1256  0.2182 -0.1305
10476W        W27323   9.002  12.349   5.938 -0.0249 -0.0194 -0.1642
10477W        W27324  14.968   3.808   0.088 -0.3255  0.0024 -0.2347
10478W        W27325  17.869   7.968  15.563  0.0518 -0.0174 -0.2378
10479W        W27326   3.799  11.713  11.965  0.0212  0.1181  0.1307
10480W        W27327  10.492  13.770  14.536  0.1463 -0.4386  0.1039
10481W        W27328   7.221  16.151  15.162  0.0040 -0.0694  0.2415
10482W        W27329  12.202   4.210   2.113  0.0068  0.1456  0.1353
10483W        W27330   1.767  16.431  15.577  0.0257  0.3086 -0.0909
10484W        W27331   5.925   1.408   5.603  0.2131 -0.1352 -0.4317
10485W        W27332   8.109  16.731  16.023  0.1312  0.2707 -0.3017
10486W        W27333   9.081  14.991  13.747  0.3365 -0.2552  0.0610
10487W        W27334   9.972   2.073  16.008 -0.0036  0.1050 -0.0336
10488W        W27335   1.964   1.693   3.140 -0.0862 -0.2700 -0.2744
10489W        W27336   5.906   9.453  15.058  0.1539  0.2353 -0.1197
10490W        W27337   4.983   5.748   4.326  0.0250  0.0826 -0.1987
10491W        W27338  12.990  15.606   4.735  0.0114 -0.0068  0.2965
10492W        W27339  14.279   1.542   3.186  0.1521  0.2181  0.2055
10493W        W27340  10.304   6.700   0.760  0.0211 -0.0695 -0.2351
10494W        W27341  12.319  17.037   0.878  0.0834 -0.1070  0.0081
10495W        W27342   2.846  15.332  10.180 -0.0036  0.1666 -0.3038
10496W        W27343   7.092   0.843  14.657 -0.1165  0.1323 -0.0465
10497W        W27344   2.510  16.990   4.780 -0.1150 -0.1691 -0.1007
10498W        W27345   3.706  13.620   0.116 -0.1191  0.0641  0.1187
10499W        W27346   4.806  17.506   4.798  0.0158 -0.1382  0.1883
10500W        W27347  15.039   5.161   4.404  0.2896 -0.1485 -0.1357
10501W        W27348   9.430   9.877   3.694 -0.0067 -0.1935 -0.1853
10502W        W27349  13.314   9.529   4.756  0.2026 -0.3861  0.0125
10503W        W27350  12.442  16.380  12.608  0.0012 -0.3025  0.0224
10504W        W27351  11.917  13.218  14.282 -0.1482 -0.0093 -0.0203
10505W        W27352  13.540   1.010  13.243 -0.0845  0.1701 -0.2237
10506W        W27353   9.515  10.230  14.782  0.1809  0.1001 -0.0002
10507W        W27354  16.977  13.772  11.752  0.1044 -0.2935  0.0201
10508W        W27355  13.634   7.109   4.862 -0.0977 -0.1650  0.1592
10509W        W27356  17.817  13.600   1.116 -0.3586 -0.0753 -0.1679
10510W        W27357   0.738   3.955  12.800  0.0930  0.1906  0.0685
10511W        W27358   9.568   6.719   5.335 -0.0041 -0.2429  0.0014
10512W        W27359   9.410   6.477  13.127  0.0418 -0.2734 -0.2462
10513W        W27360  16.397  18.318  13.871  0.1435  0.0951 -0.1743
10514W        W27361   2.873   7.632  15.530  0.1446 -0.0207  0.0508
10515W        W27362  14.642  15.949  15.817 -0.2018  0.2671 -0.2410
10516W        W27363  18.144   8.739  15.525 -0.3579 -0.2262 -0.1919
10517W        W27364  18.180   2.059   2.797  0.1015 -0.0370  0.0197
10518W        W27365  10.488  13.434  12.804  0.1037 -0.0718 -0.2339
10519W        W27366   3.702   3.579  13.223 -0.2441 -0.1266 -0.0810
10520W        W27367   3.787  15.878  12.612  0.2753  0.3683 -0.0146
10521W        W27368  13.590  13.331  12.162 -0.0034 -0.0882  0.0821
10522W        W27369  12.651   0.832  12.751  0.0271 -0.2036  0.0449
10523W        W27370  10.492  16.992   3.988  0.2808  0.0173 -0.2112
10524W        W27371  15.903  13.361   0.789  0.2451 -0.0474 -0.0537
10525W        W27372   5.801   2.737   5.990  0.0191  0.0267  0.0197
10526W        W27373  17.461   6.185  14.511  0.2536 -0.0228 -0.0730
10527W        W27374  10.786  15.918  11.522  0.0227  0.0473  0.0608
10528W        W27375   0.073   2.516   2.836  0.0478  0.0116  0.1352
10529W        W27376  12.480   0.916   3.641  0.0772  0.0643  0.2245
10530W        W27377   3.335   7.642  12.918 -0.3196  0.0706  0.0688
10531W        W27378  15.256  16.826   4.849  0.0327  0.0655 -0.1113
10532W        W27379   4.150   9.107  11.780 -0.0937  0.0137  0.2397
10533W        W27380   6.199   8.416   3.772 -0.1604 -0.1438  0.5422
10534W        W27381  18.152   7.836  13.143 -0.2499  0.1403  0.0379
10535W        W27382   9.122  13.656  14.673 -0.0787  0.1039  0.0684
10536W        W27383  15.867   5.858   4.966  0.0030 -0.1780 -0.1096
10537W        W27384   7.885  15.877  14.249  0.0746 -0.4161 -0.1648
10538W        W27385   9.500  11.906   2.741  0.0929 -0.2299 -0.1518
10539W        W27386  13.033   4.067  15.899  0.2553  0.1822  0.0877
10540W        W27387   2.318   3.542  11.881  0.3504  0.0530 -0.0054
10541W        W27388   8.988   9.885   5.311  0.1622 -0.0157  0.0703
10542W        W27389  10.333  14.766  11.941  0.0167  0.1073 -0.4136
10543W        W27390   2.696   2.887   1.774 -0.2072 -0.0780  0.0711
10544W        W27391  12.896   3.922   1.705 -0.0705 -0.3552  0.4769
10545W        W27392  16.438   8.944  11.306  0.1434  0.2262 -0.0684
10546W        W27393  11.315  17.187  12.955  0.1326 -0.1649  0.1555
10547W        W27394  10.282  11.747  13.598 -0.0900 -0.0281 -0.0897
10548W        W27395  17.746   4.976   0.525  0.2185  0.0676  0.0061
10549W        W27396   1.441   4.630   1.179 -0.3037  0.1003  0.1675
10550W        W27397   9.683   2.219  12.799 -0.2331  0.3802 -0.2364
10551W        W27398   8.310  13.239   0.761  0.2286 -0.0331 -0.1911
10552W        W27399  15.200   8.310  15.152 -0.1207 -0.1324  0.1691
10553W        W27400  10.864   2.546   0.011  0.1646 -0.0393  0.1203
10554W        W27401  13.001   8.947   1.418 -0.0747 -0.0779 -0.0804
10555W        W27402  16.776  16.048   5.504 -0.1145 -0.1495 -0.0588
10556W        W27403  18.210  13.553   5.663 -0.2119 -0.0299  0.0539
10557W        W27404  18.276  11.413   2.024 -0.0185  0.1856  0.3828
10558W        W27405   5.800  14.375   0.360 -0.1359 -0.1610 -0.1380
10559W        W27406  15.882   0.062   3.304  0.0568  0.0073 -0.3776
10560W        W27407   1.507   3.398   3.129  0.1907  0.2328  0.1367
10561W        W27408   9.960  17.585  11.892 -0.0645  0.0473  0.0760
10562W        W27409   7.625   1.847  11.874  0.0554 -0.2042  0.0324
10563W        W27410  13.707  14.362  15.623  0.1260  0.1437  0.1559
10564W        W27411  10.827   2.427  14.660  0.0721  0.2132  0.2697
10565W        W27412  15.368   4.102   4.639  0.0793  0.0728  0.0959
10566W        W27413   8.215   8.244  15.237  0.0016  0.0089  0.1207
10567W        W27414   2.364   0.478  11.392  0.0879 -0.0047  0.0335
10568W        W27415  15.525   6.208  13.954  0.5586  0.2234 -0.0893
10569W        W27416   3.232  13.997   1.535 -0.0357  0.1543  0.1724
10570W        W27417  15.637   2.621   4.419  0.1091 -0.0978  0.3006
10571W        W27418   3.359   3.711  14.936 -0.2751 -0.2127  0.2160
10572W        W27419  17.321   6.508  13.601 -0.2149  0.1624 -0.0914
10573W        W27420  13.594   6.468  12.116 -0.0516 -0.1569 -0.1336
10574W        W27421  12.966  14.706   4.225  0.0442 -0.2133 -0.3725
10575W        W27422   3.538  18.132   4.001 -0.0697  0.0454 -0.0299
10576W        W27423   7.371  13.039   5.496  0.0930  0.1629 -0.1107
10577W        W27424  11.820   0.340  12.590 -0.1084  0.3305 -0.1853
10578W        W27425   9.012  17.001  14.909  0.1603 -0.2476  0.0025
10579W        W27426   4.991  16.220   2.775  0.1200  0.0528 -0.2845
10580W        W27427   3.154   6.891   0.812 -0.1625 -0.0118 -0.0806
10581W        W27428  12.140   4.561  15.970  0.1165 -0.1329 -0.0498
10582W        W27429  15.595  14.630  13.183 -0.3770 -0.1329  0.2128
10583W        W27430   7.212  10.059  11.851  0.1366  0.0589  0.0746
10584W        W27431   6.505   5.211  12.899 -0.2888  0.0143 -0.0359
10585W        W27432  10.291  16.835   2.746  0.0851  0.0878 -0.2424
10586W        W27433  12.058   6.835  13.166 -0.1342  0.1452  0.1664
10587W        W27434  14.029   3.225   2.759 -0.2832 -0.2219 -0.0177
10588W        W27435   8.674   7.035   0.107  0.1871  0.3921 -0.1747
10589W        W27436   3.746  11.830   0.191  0.3576  0.1963 -0.0546
10590W        W27437  12.192  15.360   4.220 -0.2272  0.1620 -0.0041
10591W        W27438   5.480   1.959  11.047  0.0696  0.2770  0.0081
10592W        W27439  15.580  12.351   0.591 -0.5023 -0.0049  0.0027
10593W        W27440   4.279  16.224  11.158 -0.1838 -0.1570 -0.0847
10594W        W27441   8.873   0.332  14.470  0.0188 -0.0373  0.3346
10595W        W27442   4.703  10.834   4.742  0.1771  0.2486 -0.3199
10596W        W27443   1.874   0.676   1.687  0.1658 -0.2212  0.1254
10597W        W27444   9.580  13.489   0.635 -0.0709 -0.1554  0.2276
10598W        W27445  10.673   8.252   5.093 -0.0443  0.1965 -0.0404
10599W        W27446   0.931   3.892   3.643  0.4594  0.1028  0.1226
10600W        W27447   8.126   6.259   6.186  0.1667 -0.0932 -0.0370
10601W        W27448  13.495   0.155  13.793  0.0433  0.0975 -0.4243
10602W        W27449  12.172   2.482   1.281  0.1700  0.1114 -0.1132
10603W        W27450   4.283   9.039   1.706 -0.0294  0.0889  0.0902
10604W        W27451  17.605  15.192   2.976  0.2021  0.0278 -0.0320
10605W        W27452  14.529  15.810  13.689  0.2480  0.1609  0.0135
10606W        W27453   7.394  13.440  11.908 -0.1059 -0.1195 -0.0789
10607W        W27454   2.366  12.152   3.558 -0.0765 -0.4704 -0.1907
10608W        W27455  14.936   3.788   0.619  0.0621 -0.1833  0.5404
10609W        W27456   9.879   6.822  13.816 -0.1688  0.1611  0.0289
10610W        W27457  13.211   4.851  10.828 -0.1227 -0.2930 -0.0286
10611W        W27458  11.590  10.440   5.156 -0.0890  0.2179  0.1069
10612W        W27459   4.405  15.444   0.260 -0.0038  0.1027  0.0799
10613W        W27460   3.458   2.450  14.371  0.2686 -0.2118  0.0914
10614W        W27461  15.626  16.656  12.373 -0.0323  0.0588 -0.3018
10615W        W27462   8.417  16.663   1.237 -0.1600  0.2626 -0.1109
10616W        W27463   7.417  10.240  12.254 -0.0816  0.0416  0.2213
10617W        W27464  13.734   3.594  12.416  0.0184  0.0639  0.1668
10618W        W27465   6.789  11.615   2.578  0.0219  0.1992 -0.1338
10619W        W27466  16.748  12.280  12.072  0.1277 -0.0324  0.0119
10620W        W27467  12.588  13.825   4.900  0.0203  0.0081  0.0100
10621W        W27468   7.079   0.490   4.130  0.1761  0.1252 -0.0242
10622W        W27469   5.572   6.074  15.158  0.3137 -0.0041  0.1364
10623W        W27470  15.522  13.337  11.895 -0.0679 -0.0240  0.1544
10624W        W27471  10.005   1.830   4.636 -0.1454 -0.2467  0.0913
10625W        W27472   6.128   2.349  14.846  0.1143 -0.2506 -0.2349
10626W        W27473  16.061  17.514  14.443 -0.1297  0.0166 -0.0211
10627W        W27474   4.511  13.531   3.900 -0.3158 -0.0366 -0.0099
10628W        W27475  11.840  10.538   3.844  0.0378 -0.0587  0.1095
10629W        W27476   0.150  11.330  11.488 -0.0770  0.1105 -0.1114
10630W        W27477   2.912   8.331   4.951 -0.3398 -0.0531 -0.3003
10631W        W27478  17.803  11.269   3.778 -0.1804 -0.0123 -0.2467
10632W        W27479   5.392  13.204   2.906 -0.1863 -0.1102 -0.1512
10633W        W27480   6.516  14.893  13.050 -0.1876  0.1006 -0.0840
10634W        W27481   7.263   5.137  14.498  0.1366  0.0459  0.0416
10635W        W27482   5.917  12.523  12.286  0.2096  0.2373 -0.2550
10636W        W27483  17.368   3.163  13.329  0.1280 -0.0530  0.2280
10637W        W27484  10.749   3.888  10.463 -0.2259  0.1202  0.1926
10638W        W27485   8.193  10.233  11.632  0.0507 -0.0713 -0.2286
10639W        W27486   2.284   8.322   4.236  0.2350 -0.1524  0.1816
10640W        W27487   7.737  15.248  15.657  0.2581  0.1136 -0.2578
10641W        W27488  10.292  12.155  14.622  0.2569  0.0916  0.1946
10642W        W27489  14.921  15.971   4.634 -0.2081 -0.4087 -0.0006
10643W        W27490   3.850   4.520   4.045  0.1508  0.0815 -0.1197
10644W        W27491   4.823   2.072   2.496 -0.1123 -0.2837 -0.2856
10645W        W27492   3.245   4.453  15.798  0.1325 -0.4715 -0.2313
10646W        W27493   7.783  16.376   0.010  0.0426  0.0252  0.1785
10647W        W27494   4.888   5.333   1.727  0.1842 -0.0933 -0.0266
10648W        W27495  13.163  13.447   5.024  0.1995  0.0416  0.1032
10649W        W27496   9.602  16.967  12.314  0.1019  0.0331  0.2166
10650W        W27497  11.759  15.831   4.944  0.2045 -0.2932 -0.0386
10651W        W27498  14.463   2.760   2.850  0.0326  0.1135  0.2087
10652W        W27499   6.988  17.369   4.271  0.0265  0.0181 -0.1642
10653W        W27500   3.389   3.415   1.653 -0.1735  0.0948 -0.0337
10654W        W27501  17.344  17.799   4.450 -0.1971  0.0078  0.1206
10655W        W27502   0.437  11.948  11.579  0.1361  0.1513 -0.2608
10656W        W27503   5.348   8.703  13.544  0.0755  0.0802 -0.0390
10657W        W27504   5.971   3.631   3.976 -0.1737 -0.0560  0.1481
10658W        W27505  14.501   3.284   2.997  0.1151 -0.0811 -0.1250
10659W        W27506  14.454  18.109  12.823  0.1225 -0.0895  0.1582
10660W        W27507   0.214  14.445   4.016  0.1737 -0.0880 -0.0273
10661W        W27508  13.770  17.524   1.826  0.0590 -0.1467 -0.2882
10662W        W27509   0.906  17.459  14.568 -0.1096 -0.0696  0.2295
10663W        W27510  14.386  11.617  14.529 -0.2524 -0.0479  0.1085
10664W        W27511  15.510   8.524  15.912  0.3091 -0.1425  0.0272
10665W        W27512   8.327   7.037   1.637  0.1544 -0.0847  0.2616
10666W        W27513   3.435   1.326   1.078 -0.2681 -0.0120  0.2183
10667W        W27514  14.617  17.933  15.850 -0.0617  0.0969  0.2181
10668W        W27515   7.557  14.523  15.027 -0.0956  0.0897  0.0366
10669W        W27516   6.211  12.958  14.441 -0.2720 -0.2007 -0.1115
10670W        W27517  12.147   1.700   1.968  0.1129  0.1124 -0.1718
10671W        W27518  13.252  14.228   5.055 -0.0090 -0.0793  0.0422
10672W        W27519  17.496  12.111  12.045 -0.1728  0.0991 -0.1031
10673W        W27520   6.299  15.374   1.591  0.2707  0.0072  0.4299
10674W        W27521  14.995   4.376   4.288 -0.1614 -0.3009 -0.0224
10675W        W27522   0.799  12.040   3.872 -0.4863 -0.3004  0.0504
10676W        W27523  14.690   3.507  12.741 -0.3257  0.1650  0.2168
10677W        W27524  10.987  12.773  13.303 -0.0268  0.1159  0.0633
10678W        W27525  10.391   3.502  11.201  0.0878 -0.0230 -0.1097
10679W        W27526   0.071  11.660  14.602  0.3526  0.3958 -0.0097
10680W        W27527   2.744  11.445  14.656 -0.0740 -0.0626 -0.0582
10681W        W27528   1.734   6.216   1.927 -0.0823 -0.0679  0.0067
10682W        W27529  15.081  11.225  14.734 -0.0825 -0.0198 -0.2565
10683W        W27530   4.530  10.991   4.256 -0.1579  0.1824  0.2400
10684W        W27531   0.059   5.665   3.845 -0.3127 -0.2485  0.0322
10685W        W27532   2.403  10.990   2.873  0.1395  0.1921 -0.2148
10686W        W27533  12.740  17.834   0.968 -0.2628  0.1565 -0.0782
10687W        W27534  10.332   7.334   4.565 -0.0702  0.1823  0.0157
10688W        W27535  11.335  12.354   1.473  0.2013  0.1021  0.1826
10689W        W27536  12.108   8.136   0.713 -0.1781 -0.1204 -0.1032
10690W        W27537   0.523  12.158  14.053  0.2243 -0.2245  0.0847
10691W        W27538  12.814   4.767   3.331 -0.1461  0.0207  0.3656
10692W        W27539  11.214  14.565   4.714  0.2358  0.1761 -0.0564
10693W        W27540   0.823   3.757  13.809  0.0809  0.0733  0.1853
10694W        W27541   0.756  13.217  11.521 -0.0137 -0.1184 -0.2384
10695W        W27542   3.354   9.619  14.429 -0.0145  0.2024  0.3327
10696W        W27543  18.121   5.650   4.795 -0.0111 -0.3273  0.0799
10697W        W27544   9.862   6.037   2.044  0.2035  0.0227  0.2104
10698W        W27545   8.820  11.326  13.403  0.1861  0.0006 -0.0189
10699W        W27546   8.290  14.005   5.053  0.0279 -0.2585  0.3302
10700W        W27547  15.825   3.901   2.887 -0.0581  0.0929  0.2379
10701W        W27548   7.875   7.377  15.537 -0.1054  0.2464 -0.1023
10702W        W27549   1.841  15.476   0.414 -0.1234  0.1804  0.1797
10703W        W27550   5.156   2.424   3.670 -0.0122 -0.2207  0.0199
10704W        W27551  15.137   4.356   2.401 -0.0012  0.3081  0.0783
10705W        W27552   1.451  17.599   2.165  0.1661 -0.0586  0.1658
10706W        W27553   9.664   5.334  12.281 -0.0214 -0.3259 -0.0396
10707W        W27554  16.296   4.618   3.024  0.0519 -0.1121  0.0103
10708W        W27555  10.780  15.175  16.010  0.1836  0.0637 -0.1458
10709W        W27556   1.559   5.996   2.705  0.2602 -0.0101 -0.2878
10710W        W27557   2.721   4.638  15.899 -0.4539 -0.1463  0.1266
10711W        W27558  12.537  14.404   4.065 -0.0380  0.0043 -0.4589
10712W        W27559  11.054   4.577  15.956 -0.2033  0.0131  0.0661
10713W        W27560  18.175  14.899  13.974 -0.1150  0.2582 -0.1832
10714W        W27561   6.224  17.240  11.688 -0.1162 -0.0005  0.0061
10715W        W27562   5.126   3.325   1.087 -0.2421 -0.0364 -0.0622
10716W        W27563   9.010   7.067  15.335  0.1880  0.1685 -0.0164
10717W        W27564   7.561  12.053  13.709  0.1437  0.2096 -0.3573
10718W        W27565   0.322   8.915  13.635  0.3751 -0.2403  0.1920
10719W        W27566  17.263  17.766   1.572  0.3101  0.0333  0.1464
10720W        W27567   9.136   6.706  13.568  0.0769 -0.0604 -0.0905
10721W        W27568   5.334   0.087  13.373  0.2181  0.1590  0.2554
10722W        W27569   4.461  12.692  13.341 -0.2423  0.0154  0.1934
10723W        W27570   6.950  18.226   0.265 -0.1900  0.3571  0.1278
10724W        W27571  16.889  16.190  15.461  0.2361  0.0905  0.0738
10725W        W27572  13.572  13.293  13.702  0.0675  0.1928  0.1947
10726W        W27573   5.885   7.614   5.692 -0.1768 -0.1324  0.1313
10727W        W27574  17.687   3.868   4.409  0.3766  0.3123  0.0445
10728W        W27575  10.110   9.879  15.868 -0.3732  0.4265  0.1691
10729W        W27576   7.292   5.842   1.959 -0.1122  0.0980  0.1193
10730W        W27577  16.567  12.811   0.452  0.0516  0.1187  0.0132
10731W        W27578   2.950  16.080   0.877 -0.0370 -0.0207 -0.0335
10732W        W27579   8.143  10.672   2.827 -0.2179 -0.0259  0.1404
10733W        W27580  14.245   7.834  14.073 -0.0405  0.0136 -0.2263
10734W        W27581   2.829  17.535  11.361 -0.2117  0.1325  0.2588
10735W        W27582  16.771  15.829  11.442  0.0722  0.0766  0.1946
10736W        W27583  10.513  17.349  15.801  0.3020 -0.0335  0.1989
10737W        W27584   7.179   4.806   3.579 -0.0669 -0.2496 -0.2182
10738W        W27585  18.215  10.656   5.585  0.1955  0.2136 -0.2642
10739W        W27586   0.315   1.874  10.734 -0.1056  0.0390 -0.0163
10740W        W27587   5.867  14.751  11.970  0.2319 -0.0907  0.2279
10741W        W27588   1.617  16.302  11.617  0.0205  0.1953  0.1841
10742W        W27589   8.305  14.292   3.444 -0.0406 -0.0230 -0.0140
10743W        W27590   3.329   6.723  11.292  0.0459 -0.1128 -0.0807
10744W        W27591   8.658   5.871  14.987  0.0016 -0.1285 -0.0535
10745W        W27592   4.279   8.501  11.879 -0.1767  0.0093  0.1292
10746W        W27593   3.513  14.900   1.523  0.0556  0.2380 -0.1786
10747W        W27594   0.846   0.913   4.787 -0.1731  0.0089 -0.0574
10748W        W27595   1.435  14.244  14.284 -0.0458 -0.1884  0.0643
10749W        W27596   4.503  13.953  15.194 -0.0541 -0.0242 -0.1013
10750W        W27597   0.242   7.441  15.849 -0.0297 -0.0181  0.1958
10751W        W27598  10.683   9.097   5.362  0.2287 -0.0910 -0.1206
10752W        W27599   7.386   8.363   2.952 -0.2409 -0.0927  0.1127
10753W        W27600  15.419   4.611   2.789  0.1980  0.0693  0.3249
10754W        W27601  10.840   4.783  14.300  0.3322 -0.0901 -0.4160
10755W        W27602  15.657  11.848   1.452  0.0946 -0.0272 -0.2094
10756W        W27603  18.112   6.208   0.979 -0.0937  0.1965 -0.1740
10757W        W27604   4.913   9.486  14.502  0.0743 -0.0245  0.0801
10758W        W27605   8.959   6.537   0.870  0.1191  0.0330 -0.0982
10759W        W27606   3.338   2.735  11.461  0.0572 -0.0601  0.0507
10760W        W27607  12.699   9.645  15.466 -0.1650  0.1565  0.0316
10761W        W27608   1.668  17.281  14.486 -0.0491  0.1278  0.1149
10762W        W27609  12.882   5.757  13.329  0.0394  0.2570  0.0610
10763W        W27610   1.309   8.111   5.599 -0.2320  0.0137 -0.0124
10764W        W27611  11.340  18.211   5.126  0.0751 -0.1085 -0.0757
10765W        W27612  12.336   6.220  15.259  0.2226 -0.2191  0.2363
10766W        W27613  11.116   9.633  16.114 -0.1485 -0.0076 -0.0815
10767W        W27614   8.095  10.945   3.371  0.1024  0.4549  0.0959
10768W        W27615  12.376  12.446  12.680 -0.2056 -0.3750  0.0858
10769W        W27616   9.785  17.259  14.711  0.2288  0.1227  0.1422
10770W        W27617  14.099  14.222  12.708  0.2317 -0.4800  0.0033
10771W        W27618  16.059   5.421  13.226  0.1417  0.0690  0.0947
10772W        W27619   5.933  16.032  10.510  0.1028 -0.1221  0.0081
10773W        W27620   5.050   2.844  12.243 -0.0475 -0.2517 -0.1201
10774W        W27621   5.168   6.805   2.791  0.3663  0.0142  0.0466
10775W        W27622  17.371  13.334  14.375  0.2170 -0.0765 -0.2349
10776W        W27623  17.457   2.290  11.187  0.0853 -0.0262 -0.2819
10777W        W27624  11.399  11.085   2.617  0.3111  0.0430  0.0780
10778W        W27625  12.402   6.734  15.219  0.1427  0.0915  0.0434
10779W        W27626   2.148   5.117  13.975 -0.1748  0.2739  0.1237
10780W        W27627   0.069  14.937  11.001  0.0134  0.2315 -0.0820
10781W        W27628  18.082  17.346  15.423  0.0530  0.4109 -0.0548
10782W        W27629  13.701   3.389  10.474  0.1847  0.0213  0.2172
10783W        W27630  15.031  14.555   2.236 -0.0431  0.3001 -0.1497
10784W        W27631  13.088   7.046  13.518  0.0382  0.3799 -0.1174
10785W        W27632   7.033   9.849  14.956 -0.1974  0.0835 -0.0519
10786W        W27633   7.082   5.350  12.489  0.1549  0.1206 -0.2525
10787W        W27634   9.568  16.513   1.095 -0.3378 -0.0260 -0.1354
10788W        W27635  10.642  15.050   1.822  0.2331  0.2895  0.0603
10789W        W27636   2.385  15.753   5.539 -0.3652 -0.0132  0.0676
10790W        W27637   0.964  16.564  14.784  0.2963  0.1738  0.0523
10791W        W27638  16.940   1.827  14.901  0.2484  0.1469  0.0771
10792W        W27639  14.282  17.632  12.548  0.0655  0.2799  0.0019
10793W        W27640  12.387   9.912   1.431  0.1433 -0.2320  0.3438
10794W        W27641   4.269  10.805   1.112  0.0054 -0.1396 -0.1319
10795W        W27642   2.974   0.730   2.976  0.0194  0.1711 -0.7746
10796W        W27643   3.511   1.811   0.883  0.0744  0.4119 -0.1844
10797W        W27644  14.502   3.888  12.380 -0.1246  0.1260  0.1486
10798W        W27645   1.975   6.844   6.018  0.3056 -0.3312  0.2738
10799W        W27646  16.194   9.704   6.102 -0.1640 -0.1104  0.1875
10800W        W27647  18.211   2.865   3.215 -0.0091  0.1254 -0.0734
10801W        W27648   9.503  13.583   0.013 -0.0329  0.2200  0.0167
10802W        W27649   4.760   0.562   4.646 -0.0239  0.0285  0.0551
10803W        W27650   4.630  15.598  13.850  0.0466  0.1533  0.0023
10804W        W27651  18.226  15.971   0.085 -0.0037 -0.0516  0.0108
10805W        W27652   5.550   6.467  15.970  0.1414  0.2839 -0.1525
10806W        W27653   4.797  16.691   3.331 -0.0247 -0.1463  0.1389
10807W        W27654  13.388   1.595   0.008 -0.4477 -0.4655 -0.1739
10808W        W27655   2.492  14.226   2.590 -0.1971  0.0759  0.1394
10809W        W27656   1.302  14.272   3.480 -0.2034 -0.0419  0.1701
10810W        W27657  15.308  14.515   3.875 -0.1813 -0.0862  0.0692
10811W        W27658  10.591   1.718  11.890  0.0725 -0.1991  0.0868
10812W        W27659   2.830   1.574   0.376  0.1511  0.3054  0.1280
10813W        W27660   1.396   8.718  12.015  0.1391  0.3325  0.0654
10814W        W27661   8.223   8.978   3.612  0.3465 -0.0028 -0.2441
10815W        W27662   7.216   1.325  13.115  0.0324 -0.0659  0.0195
10816W        W27663  13.229   8.264  11.534  0.4479  0.0154  0.1336
10817W        W27664   6.758  15.451   2.370 -0.0730 -0.2211 -0.4759
10818W        W27665   7.859  11.439   0.109  0.4528  0.1126  0.2263
10819W        W27666   5.162  13.307   4.991  0.0909  0.3241 -0.1312
10820W        W27667  14.998  15.456  12.195  0.0137  0.0286  0.0920
10821W        W27668  15.596   5.346  13.696 -0.0188  0.0193  0.0068
10822W        W27669   0.148  16.395   0.879  0.1401  0.2164 -0.0891
10823W        W27670  17.764  12.615   3.007 -0.1206  0.3063  0.0632
10824W        W27671  14.475  14.035   3.410  0.1828 -0.0269  0.0231
10825W        W27672  15.596   9.411  15.725  0.2574 -0.0969 -0.0532
10826W        W27673  11.002   6.426   2.417 -0.1712 -0.0159  0.0364
10827W        W27674  16.104   9.723   2.746  0.2060  0.2115  0.2728
10828W        W27675   8.245   9.176   2.660  0.2344 -0.2462 -0.0359
10829W        W27676   5.323  12.676  16.077 -0.1612 -0.1220  0.2305
10830W        W27677   3.509   1.469  13.210 -0.1914 -0.0293 -0.0741
10831W        W27678  16.349   8.377   3.171 -0.1067  0.1599 -0.0538
10832W        W27679   5.961  11.450  11.763  0.4233  0.0154 -0.3028
10833W        W27680   1.139  10.545  14.630 -0.1253  0.2800  0.0534
10834W        W27681   6.355  14.765  12.105  0.0109 -0.0693  0.1565
10835W        W27682  13.501  12.059  14.381 -0.0925  0.2400 -0.1399
10836W        W27683   9.757   5.876  14.213 -0.1205 -0.2183 -0.0248
10837W        W27684   8.484  15.051  15.062 -0.1767 -0.0779  0.1277
10838W        W27685  11.289   8.499   1.314  0.1867 -0.0781  0.0452
10839W        W27686   1.546  14.736  12.879  0.0535 -0.1445  0.0010
10840W        W27687   8.350  11.673   1.941 -0.0491 -0.2203 -0.2393
10841W        W27688   6.838   1.770   2.103  0.1348 -0.3228  0.0868
10842W        W27689   0.970  12.915   1.932  0.0932  0.3814  0.2168
10843W        W27690   5.961  13.468  14.028 -0.4239 -0.0861 -0.1946
10844W        W27691   6.391   2.774   2.237  0.0269  0.0306  0.1731
10845W        W27692   8.971   9.710   1.760 -0.0886 -0.2214  0.0298
10846W        W27693   7.395  10.200   5.180  0.2504 -0.0657 -0.1117
10847W        W27694  16.780  17.593  15.467  0.0011 -0.1249  0.0075
10848W        W27695  13.294  17.533  12.256 -0.1723 -0.2277  0.0977
10849W        W27696  13.827   0.704  13.537 -0.1782 -0.1155 -0.1057
10850W        W27697   9.436   2.308  16.023 -0.2396 -0.1567  0.2661
10851W        W27698  10.344   5.829  12.861  0.0730 -0.1041  0.2660
10852W        W27699  12.367   7.272  14.454 -0.0515  0.3598  0.2923
10853W        W27700  17.459   5.523  12.698 -0.1978 -0.0580  0.6738
10854W        W27701  11.413   0.950  13.870  0.3076  0.0320  0.0389
10855W        W27702  18.169   8.952  13.001  0.1987  0.2058  0.1179
10856W        W27703  11.380  12.650   4.207 -0.1472  0.2530 -0.2599
10857W        W27704   7.360   3.900   4.554  0.0714  0.0169  0.2072
10858W        W27705   1.413   2.486  14.210  0.0646  0.4201 -0.1383
10859W        W27706   7.423   7.761   0.497  0.1428  0.0371  0.0280
10860W        W27707   6.588   9.696   4.005 -0.3732 -0.1506  0.0837
10861W        W27708   6.388  16.378  14.511  0.0725  0.0286 -0.1704
10862W        W27709   3.633  16.635   5.201  0.0975 -0.0803 -0.0092
10863W        W27710  15.753  12.941   3.596 -0.2799 -0.0828  0.1144
10864W        W27711  11.945  11.650   3.217 -0.1633 -0.2130  0.0738
10865W        W27712   6.647   0.328  14.179  0.3408  0.1086  0.0156
10866W        W27713   3.598   2.117  12.575  0.1945  0.0621  0.1060
10867W        W27714  10.890   9.490   1.083 -0.1251  0.0852 -0.2017
10868W        W27715   2.615  13.205  13.060  0.3138  0.2189 -0.0905
10869W        W27716   7.177  15.548   0.941 -0.1328 -0.0186 -0.1310
10870W        W27717  14.043   6.067  10.708  0.0439 -0.0059 -0.2182
10871W        W27718   3.012   6.828   3.016  0.2344 -0.0256 -0.0409
10872W        W27719  13.643  13.212  14.189 -0.2724  0.1727 -0.1326
10873W        W27720   4.789   7.166  13.894 -0.1955 -0.0131 -0.1636
10874W        W27721   5.393   3.099   1.555 -0.2905  0.1780  0.1222
10875W        W27722   6.269  16.387   5.001  0.1508  0.1253 -0.1337
10876W        W27723   3.222   0.378  15.429  0.0442 -0.2814  0.2784
10877W        W27724  10.141  11.860  11.974 -0.1432 -0.1893  0.2198
10878W        W27725   5.583   9.061   3.166  0.1788 -0.0263 -0.1126
10879W        W27726   8.157   5.792   3.579  0.2266 -0.1844  0.1640
10880W        W27727   0.809  17.308  12.636 -0.3397  0.0621 -0.0318
10881W        W27728   0.292   3.156   3.416  0.0259  0.1190 -0.3034
10882W        W27729  16.199  16.134  13.783 -0.0119  0.0949  0.2077
10883W        W27730   7.201  14.580  15.516 -0.1585 -0.2494  0.1187
10884W        W27731   1.209   1.062  11.684  0.1854 -0.3186 -0.1489
10885W        W27732   5.763  11.210   4.120  0.1232 -0.0584  0.3068
10886W        W27733   7.207  17.159   2.321  0.0166 -0.0568  0.0694
10887W        W27734  13.607  13.611  15.579 -0.0967  0.1695  0.1188
10888W        W27735  17.707  17.346   0.550  0.1108  0.2095 -0.0471
10889W        W27736   0.589  11.546  11.323  0.2209  0.0751 -0.1748
10890W        W27737   7.440   0.444  12.641  0.2269 -0.3310  0.1035
10891W        W27738   1.161   7.251   4.819  0.4897  0.0120  0.3175
10892W        W27739   9.561   4.310   1.262  0.1272  0.2935  0.1411
10893W        W27740  17.289  13.759   1.063 -0.1254  0.0185  0.1958
10894W        W27741   5.538  13.037  15.748  0.1706  0.0116 -0.0365
10895W        W27742  13.862   6.405   2.723  0.2795 -0.0089 -0.1040
10896W        W27743   0.938   7.427   0.261 -0.0030  0.0666 -0.0546
10897W        W27744  16.431  16.171   4.643 -0.1840 -0.3438 -0.0807
10898W        W27745  12.670   0.573  14.154 -0.0270 -0.1056  0.2207
10899W        W27746   7.154  10.144  12.680  0.2383  0.1769 -0.1215
10900W        W27747   7.963   2.443  15.793  0.0530 -0.2044  0.1610
10901W        W27748  12.775  10.296  11.048  0.0016 -0.0937  0.0707
10902W        W27749   4.277  14.691   2.175  0.1140  0.0678  0.2237
10903W        W27750   4.438  14.214   1.035 -0.0033 -0.3494  0.0990
10904W        W27751  10.496  10.378  15.019 -0.1278 -0.1245 -0.0312
10905W        W27752   8.355   1.035  15.370 -0.0239 -0.1152  0.0429
10906W        W27753   3.779   3.505   1.039  0.2857  0.0679 -0.1378
10907W        W27754   8.520   1.747  11.871 -0.0730  0.0354  0.0438
10908W        W27755  10.990   6.256  11.417  0.2491  0.1076  0.0956
10909W        W27756  14.411   4.428   1.162 -0.1982  0.0414  0.2129
10910W        W27757  16.492  13.819   5.161  0.1800  0.3408  0.0229
10911W        W27758  13.842  17.953  12.824  0.0705 -0.1898 -0.1055
10912W        W27759  12.971   6.245  11.434 -0.1415  0.2291 -0.0177
10913W        W27760  10.420   5.882   1.088  0.0143  0.1432 -0.0549
10914W        W27761   2.218   3.953   4.232 -0.1001  0.0002  0.0118
10915W        W27762  13.780   2.470   4.709  0.2265 -0.0883 -0.3049
10916W        W27763  10.588  14.505  16.146 -0.0133  0.0866  0.2823
10917W        W27764   9.226   3.207  15.506 -0.2168 -0.1629 -0.1530
10918W        W27765   3.504   4.926  14.858  0.1604  0.1675 -0.2455
10919W        W27766   1.222  15.676  15.948  0.1131 -0.0069 -0.0370
10920W        W27767   7.325   0.669  13.642  0.1093  0.3015 -0.1776
10921W        W27768  12.740  10.399   0.266  0.1627  0.0823 -0.1106
10922W        W27769  11.176  17.254   0.380  0.0368  0.1172 -0.0978
10923W        W27770   1.727   3.765  14.160  0.1966  0.0998  0.1417
10924W        W27771   3.577  17.671   3.040  0.2254 -0.0815 -0.4361
10925W        W27772  17.914   0.387   3.718 -0.1683 -0.0164 -0.0225
10926W        W27773  11.373  10.208  13.066 -0.3223  0.0239  0.0621
10927W        W27774   4.156   9.007   0.796  0.1565 -0.0483  0.1751
10928W        W27775   2.115   8.667  11.708  0.0931  0.2459 -0.3206
10929W        W27776   6.288   7.018   0.410 -0.1060 -0.1411  0.4029
10930W        W27777   2.523  10.586   0.515  0.0152 -0.0858 -0.2474
10931W        W27778  17.439  16.870   2.430 -0.0758 -0.1663 -0.2282
10932W        W27779  11.854   0.483   1.603  0.1453  0.2134  0.0259
10933W        W27780  18.315   5.885  15.611  0.1573 -0.0728 -0.0260
10934W        W27781  15.499   5.882  14.404 -0.1686 -0.1029  0.1366
10935W        W27782  14.495  12.990  12.129  0.0219 -0.0554 -0.0774
10936W        W27783   2.977   3.779   0.068 -0.1711 -0.1146  0.2249
10937W        W27784  13.513  14.139   5.467  0.0607 -0.1519  0.0400
10938W        W27785  12.206   6.378   4.710  0.1843 -0.3128  0.3485
10939W        W27786  11.345   6.106   1.561 -0.4498  0.1356 -0.0613
10940W        W27787   4.678   3.850   0.381 -0.0356 -0.0696  0.1944
10941W        W27788  13.384   1.990   2.959  0.1852  0.3392 -0.2538
10942W        W27789   9.710  17.859  15.774  0.0713  0.3458  0.0617
10943W        W27790  17.878  15.534  11.455  0.0125  0.2260 -0.3505
10944W        W27791  15.228   7.633   3.855 -0.3330 -0.0914 -0.2529
10945W        W27792   7.428   2.324   3.662 -0.2341 -0.0163  0.2742
10946W        W27793  13.083   6.859   3.775 -0.0697  0.0062 -0.1591
10947W        W27794   8.872   1.023  13.833 -0.1480 -0.0027 -0.0340
10948W        W27795  16.658  17.647   0.752 -0.1911 -0.2693  0.0782
10949W        W27796   2.820   1.437  13.711 -0.0766 -0.2703  0.1891
10950W        W27797   9.161   7.989   4.166 -0.1430  0.0999  0.0631
10951W        W27798  16.167   8.999  12.265  0.4922  0.4434  0.3295
10952W        W27799  12.241  15.086  14.337  0.0291  0.2173  0.0700
10953W        W27800  17.761   0.295   3.232  0.1652  0.0604 -0.1779
10954W        W27801   8.456  12.025   3.021  0.1175  0.0909  0.1572
10955W        W27802   7.498  10.733  13.043  0.0709  0.0932  0.2036
10956W        W27803   4.913  11.062  13.098 -0.1835 -0.1209 -0.1005
10957W        W27804  15.800   9.358  14.593 -0.0618  0.0478  0.2621
10958W        W27805   4.975  16.377   0.066  0.0413 -0.1525 -0.0557
10959W        W27806  17.103   3.509   3.809  0.2244  0.0000 -0.1114
10960W        W27807   9.746   9.500   2.815  0.0566 -0.2323  0.0058
10961W        W27808   7.562   3.653   4.111  0.2180 -0.2758 -0.1053
10962W        W27809   5.676   6.549   0.865 -0.1682  0.0118  0.0613
10963W        W27810  17.593  17.231  11.922 -0.1916  0.0468 -0.0707
10964W        W27811   4.498  16.023  13.265 -0.2735 -0.1667  0.0233
10965W        W27812   1.239  15.419   4.250 -0.1053  0.1246  0.1093
10966W        W27813   5.833  12.153   1.122 -0.0724 -0.0465  0.2566
10967W        W27814  11.093  13.221   3.492  0.0743  0.0797  0.1014
10968W        W27815   0.445   2.816  12.058  0.1896 -0.1782  0.1677
10969W        W27816  17.270   3.985  14.813 -0.3994  0.3881  0.1316
10970W        W27817   7.549  15.876  15.435  0.1189 -0.1383  0.0396
10971W        W27818   5.949  17.453  16.120 -0.0561 -0.1697  0.0044
10972W        W27819  11.813  16.025   0.097 -0.1160  0.0976 -0.1035
10973W        W27820  10.829  18.039  12.323 -0.0611 -0.2790 -0.1191
10974W        W27821   3.504   2.374  14.917 -0.3855 -0.0590 -0.0997
10975W        W27822   7.649   3.802   3.095  0.0510  0.0798  0.1564
10976W        W27823   6.036  15.066  12.816 -0.1014 -0.3479 -0.0557
10977W        W27824  18.144  16.591   3.335  0.1031 -0.1392  0.0118
10978W        W27825  11.050   8.367  11.902  0.1313 -0.0649  0.1223
10979W        W27826  10.126   6.157  11.313 -0.2578  0.1278  0.0259
10980W        W27827  14.219   1.176   4.007 -0.0798 -0.0812 -0.0314
10981W        W27828  12.961  17.551   2.806  0.0703 -0.2089  0.1023
10982W        W27829  16.040   7.078   2.223  0.0507  0.4093  0.0658
10983W        W27830   1.313   4.257   3.395  0.1489 -0.1332 -0.1108
10984W        W27831   8.286   8.459   3.506 -0.0250  0.1319 -0.0504
10985W        W27832  12.525  14.266   2.681  0.2025 -0.1269 -0.2450
10986W        W27833   4.139  11.907  16.059 -0.0911  0.0707 -0.1249
10987W        W27834  16.147  17.390  13.506  0.0048 -0.1626 -0.0765
10988W        W27835  12.167   6.154  16.124  0.3427  0.1069  0.1169
10989W        W27836   7.795   1.682   3.843 -0.1630 -0.0097  0.0392
10990W        W27837  14.182  12.016  10.976  0.1114 -0.1878 -0.1797
10991W        W27838  16.817  11.394  15.960  0.0663 -0.1700 -0.0835
10992W        W27839   4.030  14.019   4.616 -0.0710  0.1205 -0.1682
10993W        W27840   4.944   9.643   1.090 -0.0313  0.0121  0.1165
10994W        W27841  11.737  16.762   3.100  0.1160  0.1591 -0.0570
10995W        W27842  14.483   7.146   2.759 -0.0808 -0.1085  0.0714
10996W        W27843   3.319  17.344  13.067  0.0455  0.2472  0.0012
10997W        W27844  12.508   3.995   0.852  0.1873  0.0173  0.1691
10998W        W27845   5.893   9.204  11.961  0.0439  0.0079  0.2076
10999W        W27846  17.612   7.359  16.016 -0.1280  0.0456 -0.1257
11000W        W27847   4.403  10.948   0.648  0.2325  0.1978 -0.0461
11001W        W27848  13.038   2.212  15.741 -0.0245  0.3097  0.1667
11002W        W27849  10.488   6.557   2.320 -0.2601 -0.0504 -0.0336
11003W        W27850  18.289  16.723  13.475 -0.0009  0.2829  0.0956
11004W        W27851  10.247  12.658  12.275 -0.0267  0.0747  0.2896
11005W        W27852  13.587   7.318  13.630  0.2624 -0.2714 -0.0836
11006W        W27853  16.261   7.766  11.089  0.2477  0.0457  0.1037
11007W        W27854   6.306   9.460   3.178 -0.2886  0.2562  0.0100
11008W        W27855   4.612   6.820  11.632 -0.0720  0.1359  0.3194
11009W        W27856  14.070  15.080  14.371  0.1123 -0.0712 -0.1515
11010W        W27857   4.135  18.030   1.556 -0.1327  0.0846  0.1977
11011W        W27858   3.547   1.617  15.768  0.0584 -0.2306  0.2225
11012W        W27859   3.685   1.973   2.684  0.0878  0.0579  0.1401
11013W        W27860   6.069   7.609   5.139 -0.1455 -0.0609 -0.0525
11014W        W27861  12.324   9.791   2.793  0.2884  0.0442 -0.3894
11015W        W27862   3.293   7.210  15.554 -0.2182  0.2142 -0.2972
11016W        W27863   0.292   8.545   0.824  0.2368 -0.0844 -0.2781
11017W        W27864  18.237   6.517  11.511 -0.1587 -0.0984  0.1898
11018W        W27865  11.627   4.409  15.892  0.1188  0.0397 -0.1449
11019W        W27866   9.658   6.317   3.449  0.0837  0.0236  0.2137
11020W        W27867   2.629   6.343  14.519 -0.1096  0.1280 -0.1680
11021W        W27868   9.414   6.624   2.106  0.2975 -0.1124 -0.1095
11022W        W27869  13.531  13.715  12.527  0.2687  0.0214  0.2247
11023W        W27870   8.824   8.067   3.268  0.0711 -0.0165  0.2684
11024W        W27871  11.423   7.470  14.610 -0.1673  0.0311  0.1123
11025W        W27872  14.911  11.106  11.343 -0.3539  0.0084 -0.1720
11026W        W27873  16.527  16.330  14.116  0.0144  0.1595 -0.2232
11027W        W27874  15.997  16.266  15.933  0.1502  0.1198  0.0464
11028W        W27875   1.876   3.246   4.311  0.1496 -0.0170 -0.0689
11029W        W27876   9.548   1.352  12.232  0.0081  0.1739 -0.0860
11030W        W27877   0.899  11.127   1.388 -0.3187  0.4506  0.3324
11031W        W27878  16.502  15.675  13.376  0.0059 -0.1916 -0.0373
11032W        W27879   9.341   5.179  15.526 -0.1606 -0.0524 -0.0688
11033W        W27880   0.146   2.828  14.609  0.0851 -0.0096  0.1160
11034W        W27881   2.293   5.922  12.484  0.0869 -0.1629  0.0236
11035W        W27882  10.157   5.476   2.394 -0.2261 -0.1749  0.2706
11036W        W27883   7.838   0.741  12.892 -0.0883  0.1073 -0.1385
11037W        W27884  13.264   0.096  11.154 -0.0428 -0.0461 -0.1806
11038W        W27885   8.939   6.596   2.250 -0.3214  0.0465 -0.2336
11039W        W27886   9.521   9.143   1.611  0.0648 -0.1871 -0.2320
11040W        W27887   2.187  18.227   0.324  0.1700  0.2463  0.1273
11041W        W27888  18.287  16.440   4.912  0.0951  0.0374  0.2554
11042W        W27889  15.078   4.410  11.804  0.2228 -0.0541  0.0954
11043W        W27890   4.578  16.948   0.069 -0.3228  0.2216 -0.0597
11044W        W27891  15.040  15.959  12.891 -0.0624 -0.0959  0.1289
11045W        W27892  17.872   3.666  11.707 -0.1832  0.1990  0.4130
11046W        W27893  15.796  15.063   3.301 -0.0728 -0.0482  0.1397
11047W        W27894   4.178   0.547  13.793  0.0064  0.3545  0.1999
11048W        W27895  17.144   7.602   2.114  0.1681  0.2418  0.1295
11049W        W27896   0.035  12.918   0.480  0.1627  0.0705  0.2259
11050W        W27897   1.475  13.900  11.748  0.0278 -0.0588 -0.3274
11051W        W27898  14.646   6.224  11.906  0.1096  0.0511  0.0395
11052W        W27899   3.705  13.809  15.867 -0.2618 -0.1152  0.3492
11053W        W27900   9.239  12.332   1.245  0.4066  0.1491  0.1902
11054W        W27901  15.882  11.483  11.340 -0.3851 -0.0227  0.3115
11055W        W27902   2.658   4.402   0.381  0.2426 -0.1138  0.2772
11056W        W27903   2.673  18.112   1.177  0.0760 -0.1551  0.0475
11057W        W27904   7.879  14.410   2.842 -0.1081  0.1229  0.0426
11058W        W27905  15.510   1.207   3.559  0.1709 -0.0887 -0.1799
11059W        W27906  11.760   0.172   3.258  0.0259  0.2567  0.1866
11060W        W27907  10.764   2.158   9.553 -0.2306  0.0861  0.4242
11061W        W27908  14.966   5.691  11.140  0.0914 -0.0339 -0.1781
11062W        W27909  14.440  17.540   1.865 -0.1033  0.0514 -0.3855
11063W        W27910   6.136   3.275   4.876  0.1454  0.1740  0.0303
11064W        W27911   3.868   4.718   4.777  0.1825  0.1102 -0.0041
11065W        W27912  14.169  10.810   4.949 -0.1756 -0.2110  0.1037
11066W        W27913  14.415   9.444  13.636  0.0147  0.4476  0.2070
11067W        W27914   6.838  15.638  15.035  0.0661 -0.1661 -0.0535
11068W        W27915  17.775   3.937   3.040  0.3749 -0.0479  0.0578
11069W        W27916   0.398  13.327  14.243  0.0573 -0.5198 -0.1251
11070W        W27917  13.076   6.821   1.413 -0.3256  0.1204  0.1372
11071W        W27918   5.069  11.037   3.533  0.1727 -0.1099 -0.0663
11072W        W27919   8.723  14.216  15.680 -0.1765  0.0794 -0.0882
11073W        W27920  12.464   3.044  14.189 -0.0581 -0.3262  0.0485
11074W        W27921   8.292   1.857   3.857 -0.0052  0.2402  0.0809
11075W        W27922   5.515  15.835  14.618  0.3419 -0.0937  0.1944
11076W        W27923  13.932   8.935   3.037  0.0135 -0.2863  0.1746
11077W        W27924   6.065   1.841  14.832 -0.2197  0.1126  0.3617
11078W        W27925   2.560  16.065   4.153 -0.1259 -0.1878 -0.1439
11079W        W27926   1.225   8.708  11.430 -0.2675  0.2651  0.0977
11080W        W27927   8.457  17.163   3.316 -0.0417  0.2910 -0.3795
11081W        W27928   3.837  18.105   1.160 -0.0616  0.1649  0.1473
11082W        W27929  15.062  10.335  12.569  0.0874 -0.0517  0.0479
11083W        W27930   9.774   1.155  14.594 -0.0267 -0.0798 -0.1896
11084W        W27931  16.424  17.290   4.318 -0.2563  0.1954 -0.1959
11085W        W27932   3.001  17.425   2.113  0.1404 -0.0302  0.0176
11086W        W27933  12.717  16.859   1.216  0.0925  0.0493 -0.0454
11087W        W27934   5.525   2.717   0.899 -0.2509  0.2304  0.3611
11088W        W27935   2.570   4.870  14.066  0.1719 -0.2805 -0.3560
11089W        W27936  10.590  11.190  10.771  0.0161 -0.1332  0.0024
11090W        W27937   8.721  16.855  16.112  0.1011  0.0453  0.0472
11091W        W27938  11.446  10.870   1.311  0.0875 -0.1384 -0.1812
11092W        W27939   9.551   5.006  11.563 -0.1908  0.0396  0.1146
11093W        W27940   6.427   5.842   4.851  0.3071 -0.1606 -0.0451
11094W        W27941  12.772   6.374  10.485  0.1014  0.1785  0.0496
11095W        W27942   4.029  16.158   0.794 -0.1660  0.1315  0.0985
11096W        W27943   4.539   4.539   5.333  0.0792  0.1746 -0.2117
11097W        W27944  14.202  12.999   1.757  0.0283 -0.3462  0.0737
11098W        W27945   5.340  13.227   5.707  0.1431 -0.0592 -0.2373
11099W        W27946  17.300  16.074   1.265 -0.1786 -0.2768  0.0294
11100W        W27947   4.576  14.260   4.483  0.1715 -0.0359  0.1923
11101W        W27948  14.353  15.406  14.105  0.1418  0.2065  0.1812
11102W        W27949  11.742   9.103   2.684  0.1385  0.0510 -0.1046
11103W        W27950   5.881   8.713  12.284 -0.1234 -0.0756 -0.2240
11104W        W27951  12.578   2.419  13.965  0.0636 -0.2962  0.0498
11105W        W27952  11.818   0.938  12.515  0.0831 -0.1316  0.0130
11106W        W27953  12.863   9.941   2.577  0.1565  0.1914 -0.1876
11107W        W27954   5.478  11.546  11.731 -0.0775 -0.1892  0.2104
11108W        W27955   9.463   8.125   5.597 -0.2726 -0.0943  0.0469
11109W        W27956   7.584  12.553   1.748  0.2155  0.2793 -0.2363
11110W        W27957  16.485   9.404  13.321  0.0974  0.0180  0.0468
11111W        W27958   3.842   7.602  14.388  0.0428 -0.3310  0.0519
11112W        W27959   3.700   2.321   3.707 -0.0554 -0.0694  0.2747
11113W        W27960   1.599   7.238  14.854 -0.1438  0.3096  0.1802
11114W        W27961  10.911  15.475   1.070  0.0714 -0.0843  0.2039
11115W        W27962   3.360   9.451   3.733 -0.3044  0.1017 -0.0537
11116W        W27963   8.064   4.943  15.794 -0.1281 -0.0554 -0.0022
11117W        W27964   7.788  10.860   2.007  0.0662  0.0447  0.2393
11118W        W27965  15.399  16.114  13.325 -0.2170 -0.1790 -0.0612
11119W        W27966   7.283   0.397   1.573 -0.4480 -0.2713 -0.1182
11120W        W27967  11.353  17.191  15.345  0.2366 -0.2576  0.0706
11121W        W27968   1.344   5.005  14.136 -0.1167 -0.2594  0.0329
11122W        W27969  17.146   5.754   1.521 -0.1312 -0.0842 -0.4275
11123W        W27970   6.761  14.365  14.587 -0.0403 -0.1169 -0.3901
11124W        W27971  10.660   0.404  14.657  0.1628  0.0901 -0.0582
11125W        W27972  15.676  17.500   5.483  0.1775  0.1262 -0.1305
11126W        W27973   9.037  16.904   3.951  0.0604 -0.0542  0.0242
11127W        W27974  14.560   6.257  10.677 -0.0514 -0.2334 -0.3424
11128W        W27975  10.688   9.554  14.302 -0.1763  0.1825 -0.2383
11129W        W27976  17.595   3.830  15.841 -0.1468  0.0470 -0.0737
11130W        W27977  12.296   7.185   2.915 -0.1936 -0.0629 -0.5068
11131W        W27978  11.898  16.411  15.526 -0.1347 -0.0796 -0.0239
11132W        W27979   4.151  10.797  11.819  0.0355 -0.1107  0.0499
11133W        W27980   6.278   5.316   3.515 -0.0082 -0.0232 -0.0002
11134W        W27981   1.943   5.709   2.972 -0.1354 -0.1692 -0.5024
11135W        W27982  13.488   9.801  14.511  0.0901  0.2366  0.0561
11136W        W27983   3.424  12.009  15.056 -0.1502 -0.0882 -0.3000
11137W        W27984   4.159   8.144  11.494 -0.0326 -0.1036  0.5140
11138W        W27985   4.813   9.476  12.907 -0.0309  0.0262 -0.0644
11139W        W27986   4.464   1.504   6.019 -0.2024  0.2464 -0.1612
11140W        W27987   4.947   7.075   0.308 -0.2322 -0.1767 -0.1986
11141W        W27988   5.693  15.747  15.461 -0.2966 -0.1457  0.1775
11142W        W27989  10.744  13.994   3.047 -0.0552  0.1955 -0.0338
11143W        W27990   0.719  17.343   1.952  0.0376  0.2359 -0.0136
11144W        W27991  13.318  17.892  14.414  0.1545 -0.1773  0.1285
11145W        W27992   6.455  16.363   2.516 -0.0811 -0.2981  0.0731
11146W        W27993   8.996   1.705  14.985  0.4123 -0.1915 -0.3403
11147W        W27994  17.859  16.003  12.709 -0.1648 -0.2473  0.0993
11148W        W27995  16.919  17.080  12.029  0.3333  0.2801 -0.1723
11149W        W27996  11.986  13.486  12.762 -0.0346  0.1399 -0.0594
11150W        W27997   6.234   8.686  14.033  0.0948  0.1304 -0.0022
11151W        W27998   4.559   0.363   6.072  0.1297  0.1977  0.1386
11152W        W27999   5.594   8.094   3.587  0.1568  0.4072  0.0671
11153W        W28000  18.096   7.168  15.087  0.1168 -0.0248  0.1073
11154W        W28001   3.772  15.821   0.243 -0.4751 -0.0346  0.0256
11155W        W28002   0.829  12.847   2.393 -0.2178  0.0132 -0.0194
11156W        W28003   8.385  13.315   1.844  0.0361 -0.1896 -0.0156
11157W        W28004   2.593  11.565  15.198  0.4193 -0.0154  0.1948
11158W        W28005   3.082  18.327   4.713  0.3170 -0.1763 -0.3585
11159W        W28006   5.582  14.445  13.795 -0.0314 -0.0115  0.3266
11160W        W28007  14.599   4.835  12.382  0.2534  0.1644 -0.2028
11161W        W28008   0.046  16.841   4.607  0.4572  0.2451  0.1591
11162W        W28009   6.407   0.223  15.240  0.0866  0.2588 -0.1862
11163W        W28010   2.555  14.546  13.203  0.0525 -0.0166 -0.0762
11164W        W28011  17.214  11.514  14.954  0.2727  0.1309  0.0813
11165W        W28012   1.325   1.978   0.445  0.1289  0.1302 -0.0777
11166W        W28013  11.124   8.455   2.258 -0.0681 -0.1746  0.0981
11167W        W28014   4.763   1.387   4.332  0.1763 -0.2944  0.0224
11168W        W28015   9.601   8.127  12.580  0.1008  0.1774 -0.1991
11169W        W28016  17.595  14.469   2.298 -0.0494  0.0438  0.0014
11170W        W28017  14.224   7.968  15.574 -0.1140  0.0395 -0.0198
11171W        W28018   1.698   9.061   0.665 -0.1245 -0.0469 -0.1148
11172W        W28019   8.337  12.588  13.490 -0.0596  0.1067  0.0133
11173W        W28020  17.576  16.978   5.014 -0.6124  0.1027 -0.0075
11174W        W28021  11.182   0.403  14.967  0.0264 -0.0365 -0.1263
11175W        W28022  10.108   0.649   0.173 -0.1209 -0.2166 -0.5287
11176W        W28023  10.495  14.755   1.393 -0.2003 -0.3080 -0.1370
11177W        W28024   8.544   3.899   1.471  0.0233  0.1095 -0.4138
11178W        W28025  18.106  12.587  13.217 -0.0932  0.3029  0.0084
11179W        W28026   7.197  15.695  12.300 -0.0811 -0.1085  0.2362
11180W        W28027   0.563   9.603   4.993 -0.1043 -0.1898 -0.3466
11181W        W28028  15.397   3.564   4.137  0.2732  0.0821  0.1869
11182W        W28029  10.642  12.388  13.670  0.2541  0.0963 -0.0673
11183W        W28030   1.582  16.745   1.101 -0.1661  0.1055  0.1887
11184W        W28031   7.101   9.609   2.060 -0.0580  0.2475  0.1606
11185W        W28032  13.192   5.078  14.791 -0.0320 -0.1985  0.0205
11186W        W28033   4.794   3.265  15.949 -0.0728  0.0732 -0.1301
11187W        W28034  13.360   4.165  14.900 -0.1354 -0.2276  0.2041
11188W        W28035  10.142   0.467   1.463 -0.0772  0.0494 -0.3032
11189W        W28036   8.415  14.841  14.487  0.1485  0.2309  0.2591
11190W        W28037  11.890  16.006  13.000 -0.2249 -0.2491 -0.0507
11191W        W28038  13.591  12.006   3.468  0.4076  0.1133 -0.0669
11192W        W28039   1.328   8.097   2.003  0.1222 -0.2994  0.1693
11193W        W28040   5.363   8.541  12.955 -0.0454 -0.2669  0.0539
11194W        W28041  17.641   6.087  13.391 -0.0887 -0.1639  0.0422
11195W        W28042   1.934  13.704  12.050  0.1741 -0.1993  0.0108
11196W        W28043   6.465  11.376  13.194 -0.1302  0.1533  0.5194
11197W        W28044   6.489  14.322   4.762 -0.1045  0.1655  0.2050
11198W        W28045  14.012   4.741  11.153 -0.1405  0.0768  0.0633
11199W        W28046  14.852   5.019   0.742 -0.5554 -0.2877 -0.1419
11200W        W28047  15.753   8.118   1.981 -0.1562 -0.3023  0.0653
11201W        W28048  11.553  14.859   5.479  0.0034 -0.1057  0.0878
11202W        W28049   2.929   5.449   3.576  0.0343  0.2907 -0.1747
11203W        W28050   1.461  14.984  12.446 -0.0158  0.1451  0.0596
11204W        W28051  14.002   0.037  14.686  0.3798  0.0344 -0.0114
11205W        W28052  17.899  13.029   1.254 -0.1640  0.1126 -0.2591
11206W        W28053  12.555   2.199   2.475 -0.0013  0.2285 -0.0611
11207W        W28054  12.052  17.553  14.448 -0.0482 -0.0591  0.0726
11208W        W28055   6.386  13.383   1.337 -0.1652 -0.2092  0.3431
11209W        W28056   6.852  13.217   2.270  0.0888 -0.0160  0.0076
11210W        W28057   7.195   4.292   0.165 -0.2193 -0.0806 -0.2240
11211W        W28058   4.895   7.770   0.850  0.0336  0.2620 -0.3256
11212W        W28059   0.113   7.672   1.261  0.0693  0.2367  0.1781
11213W        W28060  13.331  15.187   1.305  0.0718  0.1375  0.1464
11214W        W28061  11.143  16.323   1.818  0.0109 -0.0618  0.1293
11215W        W28062   7.338  16.218  12.412 -0.1861  0.1760 -0.2198
11216W        W28063  17.562   4.608   1.593 -0.1838 -0.0015 -0.0291
11217W        W28064   3.502  13.599  12.988  0.2959 -0.3582 -0.0443
11218W        W28065  13.901   1.015   0.544  0.2561 -0.1063  0.2302
11219W        W28066  10.062   0.271  14.430 -0.1886 -0.3205 -0.0518
11220W        W28067   4.066  10.417  14.649 -0.0276 -0.2462  0.0445
11221W        W28068   3.374  15.884   4.383 -0.0874  0.3351  0.0106
11222W        W28069  10.943  17.533   4.515 -0.1152 -0.0686  0.2114
11223W        W28070  14.398   3.163  10.831  0.1206  0.0405 -0.0293
11224W        W28071  12.109  11.436   4.192  0.3524 -0.0346  0.2917
11225W        W28072   1.202  10.782   3.964  0.2595 -0.0736 -0.2116
11226W        W28073  15.233  17.070   2.552 -0.0174  0.0781 -0.0845
11227W        W28074   5.885   2.736   1.923  0.0840  0.0632  0.0929
11228W        W28075   9.792  15.846   0.536  0.1743 -0.1529 -0.2949
11229W        W28076   5.298   3.861   2.607 -0.2248  0.0102  0.0553
11230W        W28077   5.502  15.096  12.712  0.4019  0.3034 -0.2855
11231W        W28078   4.632   6.491   0.994 -0.0498  0.0023  0.1352
11232W        W28079   6.619   9.260   5.964  0.0946  0.0288 -0.0280
11233W        W28080  17.436   9.370   3.624  0.0010 -0.2124 -0.0318
11234W        W28081   2.547  16.899  13.618  0.0107  0.0688  0.0672
11235W        W28082   2.282   5.201  11.835 -0.0895  0.1269 -0.2232
11236W        W28083  10.705  11.837   4.191 -0.1157  0.2745  0.0441
11237W        W28084   9.036   3.853  13.070  0.0391 -0.0016 -0.1603
11238W        W28085  16.263  15.242   1.117  0.0625 -0.4665  0.4785
11239W        W28086  13.015  16.763  12.610  0.0627  0.2509  0.0791
11240W        W28087  12.003   9.222   1.086 -0.4698 -0.0802  0.0104
11241W        W28088  14.530  15.161  15.117 -0.1650 -0.3279 -0.1123
11242W        W28089  16.168   4.220  12.148 -0.2541 -0.1481 -0.0643
11243W        W28090   9.112   0.103  12.201  0.2695  0.0520 -0.1485
11244W        W28091   9.727   8.397  11.237 -0.2924 -0.3323 -0.2454
11245W        W28092   9.371  11.126   5.616  0.2929  0.0265  0.0910
11246W        W28093   6.346  14.623  15.683  0.2709  0.3797 -0.0424
11247W        W28094   2.501   6.388   3.130 -0.1197  0.1873 -0.1286
11248W        W28095   2.621   9.819  14.652  0.2015 -0.0409 -0.0761
11249W        W28096   5.772   7.965   2.319  0.3210  0.2344 -0.1861
11250W        W28097  13.761   1.077   4.884  0.1771 -0.4546  0.0987
11251W        W28098   4.236  12.836   4.173 -0.2310 -0.1483  0.2028
11252W        W28099   3.647   5.372  16.052  0.0329  0.0312 -0.2001
11253W        W28100   9.243   2.859   4.454  0.1489  0.0503  0.0001
11254W        W28101   8.075   7.331   1.148 -0.3679 -0.0778  0.4044
11255W        W28102  10.984   4.103  12.549 -0.0010 -0.1946 -0.2249
11256W        W28103  12.858  14.616  15.466  0.2057 -0.2239 -0.2745
11257W        W28104   9.054   6.750   4.589 -0.1355  0.0444 -0.1587
11258W        W28105   5.950  10.045  13.495  0.1212  0.1862 -0.1819
11259W        W28106   0.810  12.826  14.831 -0.4303  0.0384  0.1245
11260W        W28107   6.459  11.546  11.795  0.0204  0.0624 -0.0095
11261W        W28108  17.627  14.830  11.375 -0.0899  0.1511  0.1153
11262W        W28109   2.733  14.526   0.421 -0.1132  0.0102 -0.3217
11263W        W28110   1.442   7.802  12.082 -0.1060 -0.1888  0.0210
11264W        W28111   0.345   1.429  15.836  0.0304  0.1851  0.0632
11265W        W28112   0.908   7.139   5.279  0.1873  0.0540 -0.0379
11266W        W28113   7.869   8.799   3.271 -0.0197  0.0846  0.0583
11267W        W28114  11.908   8.012  11.575 -0.1854  0.0174  0.0505
11268W        W28115   5.915   2.802  16.186  0.1856  0.0285 -0.0779
11269W        W28116   5.105   3.484   0.219  0.2363  0.0811  0.1146
11270W        W28117  11.396   8.170  15.236  0.0749 -0.0121 -0.3174
11271W        W28118  16.813   5.069   2.078 -0.0569  0.2025  0.1825
11272W        W28119   7.282  17.445  11.341 -0.1317 -0.3389  0.0696
11273W        W28120  11.964   7.679  11.944 -0.2111  0.0585 -0.1534
11274W        W28121   5.969  14.299  11.787  0.1061  0.1069  0.1189
11275W        W28122   0.656   0.430   4.410 -0.0444 -0.2278  0.1258
11276W        W28123   3.998  12.208   4.304  0.2607 -0.0905 -0.0566
11277W        W28124  18.201   0.682   4.685 -0.0053 -0.1433 -0.1438
11278W        W28125  10.118   2.682  11.607  0.0720  0.1209  0.0223
11279W        W28126  11.412  10.509  15.435 -0.3196 -0.4139 -0.0240
11280W        W28127  17.329   2.587   2.235  0.4534 -0.1058  0.0999
11281W        W28128   3.719  11.598  10.435 -0.3238 -0.3580  0.0855
11282W        W28129   8.736   8.524   3.278 -0.2731 -0.0943 -0.0422
11283W        W28130   3.275   1.083  15.758 -0.2479 -0.2555 -0.2732
11284W        W28131  17.890  16.219   2.930  0.1152  0.0084 -0.4082
11285W        W28132   5.649  17.465  11.317 -0.1243 -0.1052  0.1881
11286W        W28133   0.745   2.528   1.994 -0.2174 -0.0350  0.0434
11287W        W28134   9.216   8.226   2.886  0.0054 -0.4343 -0.0146
11288W        W28135   2.495  17.450  13.359  0.0959 -0.0125 -0.0714
11289W        W28136   1.814   4.666  11.139  0.3267 -0.1290  0.1058
11290W        W28137   4.972  17.793  12.685  0.0542  0.0663  0.3209
11291W        W28138  15.852   3.812  15.300 -0.0217  0.4073 -0.2958
11292W        W28139   6.142   3.953   0.653 -0.2639 -0.0127  0.0720
11293W        W28140   9.273   9.129   2.911 -0.0029 -0.1529 -0.1496
11294W        W28141  12.056   6.353   2.711  0.0593  0.0664  0.4994
11295W        W28142   2.165  14.189  12.183 -0.4029  0.0234  0.1107
11296W        W28143  16.444   8.830  14.041  0.2838  0.0063 -0.0106
11297W        W28144  10.468   7.091  11.574  0.0579 -0.0415  0.0453
11298W        W28145   2.578   4.320   4.677 -0.1375  0.1585  0.1079
11299W        W28146   2.135   8.577   0.060  0.3782  0.0875  0.3001
11300W        W28147   0.144   1.098  11.328 -0.0324 -0.1823 -0.2974
11301W        W28148  18.326  12.555  15.254 -0.1798  0.1377 -0.0617
11302W        W28149  11.433   8.319  11.597 -0.1085 -0.2442  0.1186
11303W        W28150   2.380  11.492   5.592  0.2004 -0.2415  0.0516
11304W        W28151  14.796   6.263  15.856  0.0979  0.0651 -0.2365
11305W        W28152  12.582   7.639  15.248  0.0777  0.0547 -0.0828
11306W        W28153   2.161  13.232   2.510 -0.2934  0.0143  0.3847
11307W        W28154   1.149   7.097   3.228  0.0216 -0.0005  0.2955
11308W        W28155  13.032  16.417  13.427 -0.2615 -0.0949 -0.1711
11309W        W28156  12.964  10.053  12.975  0.0394 -0.0304 -0.3323
11310W        W28157   3.528   3.952   2.959 -0.0242  0.1162  0.0728
11311W        W28158  12.283  15.616   6.153  0.0394  0.0808  0.0606
11312W        W28159   2.836  12.132   5.488 -0.0557  0.2299 -0.1288
11313W        W28160   3.526   3.890  11.183  0.1004 -0.1103  0.0660
11314W        W28161  16.489   1.326  11.073  0.2309  0.2979  0.0378
11315W        W28162  10.157  14.102   3.174 -0.1402  0.0206 -0.2480
11316W        W28163   6.304  15.075  15.369  0.1037 -0.3618  0.0517
11317W        W28164   7.119   9.211   5.661  0.1383  0.0651  0.0598
11318W        W28165  10.459  10.644  15.507  0.0573  0.1962  0.3071
11319W        W28166  13.452  16.075  13.233  0.0006 -0.1619 -0.1888
11320W        W28167   7.701  16.971  15.760 -0.0137  0.1177  0.1551
11321W        W28168   6.960   1.473   5.075 -0.1061 -0.0700  0.3437
11322W        W28169  16.015   8.924   4.555 -0.0362 -0.0514  0.0093
11323W        W28170  17.828  15.181  14.256  0.2976  0.1651 -0.0361
11324W        W28171   3.605   0.787   5.133 -0.1003  0.0913  0.0171
11325W        W28172  18.155  16.111   5.244  0.0705  0.0333  0.1345
11326W        W28173  16.162  10.398  13.404 -0.0057 -0.2387 -0.3158
11327W        W28174  15.329   0.376   3.980  0.0964 -0.0035 -0.0601
11328W        W28175   1.221   5.690  11.344  0.0743  0.2382 -0.2457
11329W        W28176   4.088   4.987  12.439  0.1321  0.1461  0.1065
11330W        W28177  12.272  11.689   3.628 -0.0388  0.0409  0.0790
11331W        W28178  11.349   7.964   2.380 -0.1908 -0.3177  0.0751
11332W        W28179   0.062  14.773   1.759  0.0853  0.0587 -0.2157
11333W        W28180   1.968  15.643   3.166 -0.2108 -0.1874  0.3134
11334W        W28181  15.428  10.492  12.849  0.1669  0.0448  0.1839
11335W        W28182   4.232   5.765   0.296 -0.4141 -0.1036 -0.0191
11336W        W28183  15.365  12.584  12.278 -0.2980  0.2893 -0.0352
11337W        W28184   8.990   3.457   1.092 -0.4235 -0.1161  0.0841
11338W        W28185   6.439   6.722  15.706  0.2999 -0.1371 -0.1228
11339W        W28186   8.545  12.820   1.188 -0.2069 -0.1317  0.0594
11340W        W28187  12.350   1.228  12.015 -0.1631 -0.1265  0.1572
11341W        W28188  16.445   8.126   0.053  0.1822  0.0519 -0.0878
11342W        W28189   9.691   0.983   0.005  0.3446 -0.1998  0.1804
11343W        W28190   3.013  13.037   0.489 -0.0244  0.1377 -0.2077
11344W        W28191   5.094   5.969  14.256  0.1637  0.1687  0.3188
11345W        W28192   9.000  10.782  14.153 -0.1360  0.2592  0.0235
11346W        W28193  12.330   3.801  14.631  0.3419  0.1334 -0.1178
11347W        W28194  17.715   6.461   3.196  0.1438  0.1942 -0.2863
11348W        W28195   2.306  10.926  10.702 -0.2294 -0.0861  0.2447
11349W        W28196   3.027  12.208  14.719 -0.0453  0.1829  0.1181
11350W        W28197  16.779   9.461  15.795  0.1872 -0.0767  0.1415
11351W        W28198   5.419  11.341   5.793 -0.2930  0.2001 -0.0409
11352W        W28199   6.292   1.652  15.828 -0.1844 -0.2426 -0.0024
11353W        W28200   9.440   3.093  12.875 -0.0328 -0.1120 -0.3384
11354W        W28201  13.556  12.762  14.551  0.0472  0.0861  0.2777
11355W        W28202   1.662   5.897  14.096  0.2981  0.0933  0.1243
11356W        W28203  10.286   5.498  13.250  0.1942 -0.2769  0.0279
11357W        W28204   6.447   2.196   1.819  0.1995 -0.2020  0.1120
11358W        W28205  11.169  17.941   3.022  0.1782 -0.1718 -0.0703
11359W        W28206  12.792  11.529   1.185  0.2580 -0.0777  0.1594
11360W        W28207  13.643  13.399  10.674  0.0252 -0.1257 -0.1884
11361W        W28208  14.643  14.017   4.940  0.0734  0.0949 -0.2342
11362W        W28209  17.879  17.558   2.480  0.0288  0.0414  0.0180
11363W        W28210  16.248  16.081  11.713 -0.0089 -0.0416 -0.0060
11364W        W28211   7.960  11.773   4.888 -0.0807  0.0368  0.1304
11365W        W28212   3.459   7.455   3.276  0.3240 -0.0608  0.3555
11366W        W28213  17.982  14.349   0.877 -0.1650  0.1366 -0.2232
11367W        W28214  12.549   1.088   5.013 -0.2495 -0.0670  0.1373
11368W        W28215  14.279  16.771  13.783  0.0513 -0.1332 -0.1532
11369W        W28216   6.439  11.290   0.174  0.0668  0.1132  0.3000
11370W        W28217   1.914   4.273  13.927  0.0688 -0.0027 -0.2077
11371W        W28218   6.700   6.008   2.753 -0.0427 -0.0087  0.1044
11372W        W28219  11.513   8.717   1.661 -0.0503  0.3569 -0.1355
11373W        W28220   7.130   4.353   2.783 -0.0670 -0.1523 -0.0278
11374W        W28221   5.649  15.000   3.792 -0.0204 -0.3750 -0.0014
11375W        W28222  15.766  18.141  13.122  0.1565  0.1058 -0.0026
11376W        W28223  12.707   0.886  16.111 -0.3833 -0.1771  0.0633
11377W        W28224  13.174   3.491   4.821 -0.1592  0.1272 -0.1375
11378W        W28225   7.651   1.402   2.273 -0.0679 -0.3061  0.0650
11379W        W28226   4.957  15.862  14.688  0.0038  0.3579  0.0813
11380W        W28227   8.063  14.524   3.824  0.0710  0.0231  0.1264
11381W        W28228  18.234   4.963   2.502 -0.0428 -0.0914  0.1976
11382W        W28229  13.804   9.432  15.858  0.3813  0.0749  0.2702
11383W        W28230  13.797  10.460   4.745 -0.2554  0.1008 -0.1856
11384W        W28231  15.024  11.539  14.303  0.1554  0.2444  0.0223
11385W        W28232  17.006   1.234   2.323  0.1746  0.5165  0.0246
11386W        W28233  13.384  17.923   2.095  0.0101  0.0197 -0.1910
11387W        W28234  17.904   3.142  13.144 -0.1513  0.0562  0.2405
11388W        W28235   2.862  11.613  11.986 -0.1480 -0.1938  0.2692
11389W        W28236  15.846   4.779   4.338  0.2124  0.0017  0.2208
11390W        W28237   9.569   1.961   2.967 -0.0369  0.2956 -0.1204
11391W        W28238  16.328  14.663  13.397  0.3397 -0.1184  0.0130
11392W        W28239  11.830   1.651  14.483 -0.0858  0.0730 -0.2578
11393W        W28240  13.219   6.697  12.360  0.1281 -0.2803 -0.1412
11394W        W28241  12.476  14.626  14.064 -0.0465 -0.0447  0.0881
11395W        W28242   5.668   6.981   2.790  0.1137 -0.0394  0.2285
11396W        W28243  15.636   2.168   4.153  0.0414  0.1398  0.3707
11397W        W28244   0.197   1.182   1.567  0.0116  0.0933  0.0093
11398W        W28245  11.753  16.334   5.528  0.1169 -0.0378 -0.2697
11399W        W28246   2.427  12.549   3.237  0.1902 -0.2479 -0.0465
11400W        W28247   6.743  11.504  15.518  0.3157 -0.0617 -0.1252
11401W        W28248  13.876  15.061   2.038  0.1437  0.0138 -0.2372
11402W        W28249  15.310   6.002   4.958  0.1647  0.1343  0.2503
11403W        W28250   7.566  14.024   2.811 -0.3721 -0.3935 -0.0979
11404W        W28251  17.516  11.713   3.788  0.1390  0.1677  0.0480
11405W        W28252   7.292   7.775  11.764 -0.2514 -0.0898  0.1459
11406W        W28253   7.538   4.859  12.028 -0.0573  0.0003  0.0298
11407W        W28254  11.199  10.520  10.537  0.0247  0.2548  0.0481
11408W        W28255  16.272   9.970   3.347  0.2490 -0.0492 -0.0305
11409W        W28256  11.586  10.364  11.491 -0.0781 -0.0986  0.1530
11410W        W28257   9.842   3.483   4.690 -0.0446  0.0704  0.0253
11411W        W28258  11.010   3.541  11.136  0.2216  0.1509 -0.2481
11412W        W28259   6.445   0.624   0.610  0.1935  0.0635 -0.4344
11413W        W28260   5.692   5.465  13.971 -0.0683  0.2518 -0.2583
11414W        W28261   6.085   3.917  11.408 -0.2770  0.2977 -0.0714
11415W        W28262   1.271   4.029   4.461 -0.0130 -0.0039 -0.0793
11416W        W28263  12.029  16.726   5.424  0.0949  0.1264 -0.1223
11417W        W28264  17.776   5.311  15.290 -0.0151  0.0621  0.2272
11418W        W28265   2.057   8.757  14.201 -0.2031 -0.1980  0.0064
11419W        W28266   7.067   1.056  13.921 -0.0815 -0.3817 -0.3073
11420W        W28267  13.052   5.131  13.882 -0.0210 -0.1093 -0.0786
11421W        W28268   3.686  12.233   3.800 -0.0747 -0.3340 -0.3776
11422W        W28269  13.825  10.177  13.703 -0.1431  0.2842  0.1711
11423W        W28270   5.239   4.261   2.257  0.0570 -0.1401 -0.0655
11424W        W28271   6.031   7.557  15.809 -0.0428 -0.0556  0.2990
11425W        W28272   0.670   7.661  14.188 -0.0665 -0.1268 -0.1572
11426W        W28273  13.539  15.616   2.798  0.0918 -0.0697 -0.0443
11427W        W28274  17.340  10.605   3.219 -0.1762  0.0824 -0.0815
11428W        W28275   4.577   5.714   1.717 -0.1205  0.2920 -0.1020
11429W        W28276  12.607  14.662   3.018  0.0065 -0.0957 -0.1617
11430W        W28277   7.157   1.303   2.112 -0.1839  0.1093 -0.2283
11431W        W28278   8.002   9.920  12.973  0.1172  0.1266 -0.0996
11432W        W28279   6.766  14.438  15.970 -0.0656  0.1209 -0.0290
11433W        W28280   5.070  12.703   4.141  0.1442 -0.0568 -0.1546
11434W        W28281  10.384  15.997   2.350 -0.0681  0.0788 -0.2715
11435W        W28282   8.204   6.112  10.355  0.1771 -0.0753 -0.3201
11436W        W28283  15.928  16.128   4.756 -0.1595  0.1574  0.0299
11437W        W28284  12.963   4.996  13.092  0.1285  0.2632  0.2591
11438W        W28285   0.867  13.543  14.342  0.1743 -0.2091  0.0812
11439W        W28286   1.641  13.096  12.925  0.2189  0.0066 -0.1074
11440W        W28287   7.473  16.402   2.796  0.1363  0.0947 -0.3365
11441W        W28288  15.661   2.951  12.605  0.1775  0.1449 -0.0561
11442W        W28289  13.515  10.096   5.438  0.2682  0.4389 -0.0965
11443W        W28290  15.248   7.573  14.431  0.0222  0.0319  0.0612
11444W        W28291   1.873   9.671   0.934 -0.0935 -0.1903 -0.0031
11445W        W28292  12.371  13.070  11.964 -0.0814 -0.1226 -0.2761
11446W        W28293   2.064  15.746   2.231 -0.0389  0.1850  0.0672
11447W        W28294  11.253  10.703   1.846 -0.0837 -0.3014 -0.0970
11448W        W28295  16.913  14.016  14.764 -0.1028  0.0191 -0.0744
11449W        W28296   9.073   3.902  12.570  0.0743  0.1406  0.0889
11450W        W28297   1.489   1.956  12.671 -0.0671 -0.1293  0.0201
11451W        W28298   1.789   4.778   4.255 -0.0172  0.1555 -0.3298
11452W        W28299   1.886  17.360  14.022 -0.0430 -0.0974 -0.0003
11453W        W28300   9.665   7.987  14.766  0.1344 -0.3646  0.2192
11454W        W28301   9.905  15.890   2.480 -0.1159  0.1191  0.0840
11455W        W28302  11.459  11.275  11.669  0.1503  0.0573  0.1506
11456W        W28303   9.763  15.909   1.281 -0.2157  0.0737 -0.0753
11457W        W28304   1.751   2.435   1.929 -0.2414 -0.2102 -0.1592
11458W        W28305  11.799  17.546   4.269 -0.3342  0.1352 -0.1492
11459W        W28306   1.075   6.620   4.337  0.0954  0.1117  0.1244
11460W        W28307  16.321   5.618   2.821  0.3219  0.2354  0.3917
11461W        W28308   6.489  15.595   4.089  0.0600  0.0136 -0.0951
11462W        W28309   6.750  18.303  13.781 -0.0470 -0.1540  0.1230
11463W        W28310  13.771   0.319  12.004  0.0741 -0.1161 -0.0542
11464W        W28311   3.045   0.636   4.623 -0.0854 -0.3306  0.0146
11465W        W28312   4.340   3.390  12.557  0.0515 -0.1614  0.3123
11466W        W28313  14.112   2.811  11.792 -0.1776  0.1837 -0.0149
11467W        W28314  15.710  12.423  14.071  0.0753  0.2264  0.1932
11468W        W28315   8.634  17.491   4.672 -0.0161 -0.2738 -0.1407
11469W        W28316   0.582  17.147  11.643  0.3048 -0.0986  0.0431
11470W        W28317  12.851   6.604  14.296 -0.0007  0.1494  0.2381
11471W        W28318   3.522  10.906  14.101  0.2225 -0.1119 -0.0371
11472W        W28319   1.645  15.014   5.593  0.4256 -0.1233  0.2420
11473W        W28320  16.412  16.505   5.539 -0.1834 -0.0291 -0.0884
11474W        W28321   9.201   2.245   0.809  0.2078  0.0034 -0.0831
11475W        W28322   4.125  16.958   5.128  0.0981 -0.0358 -0.0780
11476W        W28323   7.071   3.641   4.937 -0.2615 -0.0755  0.2318
11477W        W28324  15.761   3.824  13.811 -0.0050  0.2656  0.1489
11478W        W28325   0.088   4.017   5.514  0.1363  0.1458 -0.1114
11479W        W28326   1.934  10.256   4.886 -0.1012 -0.0530 -0.0475
11480W        W28327   8.348  17.966  14.272 -0.0708  0.2522  0.1690
11481W        W28328  18.090  13.980   3.563 -0.2575  0.1483  0.2377
11482W        W28329   4.280   7.038   2.794 -0.0765 -0.1190  0.1850
11483W        W28330   0.383  10.895   2.698 -0.1442  0.1583 -0.1344
11484W        W28331   8.972  16.944   4.871 -0.4531 -0.1692 -0.1523
11485W        W28332   2.465  10.103  11.357 -0.2782 -0.0482  0.2096
11486W        W28333   0.738   6.781  14.202  0.1342  0.0580  0.2228
11487W        W28334  12.607   5.388  13.954 -0.2630  0.1661 -0.0367
11488W        W28335   2.907   4.491   0.807 -0.1182 -0.4223 -0.0273
11489W        W28336   4.471   0.972   2.127 -0.0429 -0.1587  0.0738
11490W        W28337  16.674   3.249  14.615  0.3876 -0.0249 -0.1071
11491W        W28338   0.162   0.346  12.079 -0.3281  0.0552 -0.2171
11492W        W28339   3.977  15.483  14.773 -0.0305 -0.2980 -0.0437
11493W        W28340  12.736   4.314  15.299  0.1123 -0.1701  0.2121
11494W        W28341  17.458   2.447  14.047 -0.1161  0.0466  0.2138
11495W        W28342  10.833  11.442  11.339 -0.0901 -0.0466  0.1731
11496W        W28343   4.168   1.607   0.423  0.0349  0.3100 -0.1606
11497W        W28344  13.138  16.561   3.291 -0.1029 -0.0394 -0.0082
11498W        W28345   9.037   4.383  14.456 -0.1004 -0.0945 -0.0938
11499W        W28346   9.481  11.278  13.886  0.0143 -0.2149 -0.0680
11500W        W28347   9.370  13.036   4.619 -0.0496 -0.1266 -0.1524
11501W        W28348   3.330   6.248   4.026 -0.3918  0.0637  0.0194
11502W        W28349  12.675   6.068   0.081  0.2324 -0.1574  0.0236
11503W        W28350  16.937   1.460   0.538 -0.1083 -0.2053 -0.3326
11504W        W28351  12.867  15.620  13.890  0.1329 -0.0057  0.1161
11505W        W28352  16.036   5.101  15.569  0.1405 -0.2014  0.3757
11506W        W28353   5.645  10.624  13.780 -0.3099 -0.1151  0.2192
11507W        W28354  14.559   4.755   2.580  0.0407 -0.1240  0.0401
11508W        W28355  15.417  16.407  11.888  0.0150 -0.0772  0.0233
11509W        W28356   6.346   8.308   0.268 -0.2736 -0.0770  0.0782
11510W        W28357  11.668   0.096  15.798  0.3453 -0.0298 -0.1300
11511W        W28358  17.707  13.679   5.935  0.1164  0.0495  0.1398
11512W        W28359   8.112  17.364  12.225 -0.0305 -0.0912 -0.1468
11513W        W28360   4.570   5.560   1.190  0.2789  0.1472 -0.0279
11514W        W28361  11.717  10.429  14.607 -0.0897  0.0590  0.0709
11515W        W28362  15.368   1.915   2.400 -0.0614  0.0400  0.3037
11516W        W28363   8.274   0.044   0.500 -0.0912 -0.3085  0.1223
11517W        W28364   3.172  13.013   4.913  0.2686 -0.0969 -0.1899
11518W        W28365  10.680  14.261  14.443 -0.0704 -0.1538  0.2362
11519W        W28366   5.697   5.496   1.963 -0.1520  0.0071  0.1201
11520W        W28367   8.041   5.423  10.976 -0.4194 -0.0232  0.0804
11521W        W28368   3.148   0.643  13.596  0.3446 -0.1462 -0.0246
11522W        W28369  14.029   7.806   3.336  0.0467 -0.0182 -0.1011
11523W        W28370  15.624   4.823  11.208  0.0179  0.2466  0.0248
11524W        W28371  13.150   5.668   3.424  0.1465 -0.1087 -0.1184
11525W        W28372   7.543  10.837  12.057  0.1844 -0.2801 -0.1633
11526W        W28373   0.857   9.685   0.648  0.0411 -0.4992  0.0166
11527W        W28374   9.312   9.263  13.839  0.0811 -0.2426 -0.0408
11528W        W28375   3.860  10.940  14.434  0.1581 -0.2373  0.1737
11529W        W28376  16.962  14.156   0.879  0.1921 -0.1242  0.0077
11530W        W28377  12.441   6.337  12.976  0.2697 -0.0569 -0.3420
11531W        W28378  15.354  11.774   4.085  0.0280  0.1652 -0.2166
11532W        W28379   9.182   5.764   2.411  0.2426  0.3612 -0.4439
11533W        W28380   6.360  11.975   4.732 -0.0547 -0.1714  0.0125
11534W        W28381   9.462   1.390  12.835  0.0734  0.0351 -0.0879
11535W        W28382  12.395   9.775   3.334 -0.0351  0.2177 -0.1483
11536W        W28383  13.843   3.315  13.014  0.0257 -0.1372 -0.1302
11537W        W28384   3.847  18.191  12.703 -0.1759  0.2195 -0.1142
11538W        W28385   9.599   8.105  13.336 -0.3650 -0.0710 -0.1027
11539W        W28386  17.931  15.936   2.360 -0.1119  0.0620  0.1183
11540W        W28387   6.294   2.612   3.223  0.0553 -0.1469 -0.0787
11541W        W28388   6.923  15.880  14.133 -0.1463 -0.2255  0.0213
11542W        W28389   8.111  17.095  14.887  0.2492 -0.0954 -0.0638
11543W        W28390  17.404  11.058   2.270 -0.5752  0.0306 -0.0474
11544W        W28391  18.275  13.593  13.372  0.1904 -0.1948 -0.0294
11545W        W28392   4.269   4.038   2.342  0.1485  0.2026 -0.2764
11546W        W28393  17.972   6.924  16.146  0.1264  0.2913 -0.2293
11547W        W28394   8.203  13.359   0.264 -0.2013  0.0110 -0.0202
11548W        W28395  16.125   4.926  11.181 -0.1496  0.0291  0.0666
11549W        W28396  15.542  13.745   0.683 -0.0516 -0.0649 -0.0452
11550W        W28397   2.165   9.458   1.382  0.0582 -0.1337 -0.1376
11551W        W28398   9.939  13.691   2.954  0.0006 -0.2233 -0.0043
11552W        W28399   8.533   7.670   2.381  0.0212  0.2094  0.1708
11553W        W28400   9.770   7.825   4.884 -0.1243 -0.1223 -0.0019
11554W        W28401   1.958   0.977  12.615  0.1311 -0.0439  0.0206
11555W        W28402  15.868   7.528   3.988  0.2895 -0.0328  0.1015
11556W        W28403   3.543  11.370  13.202  0.1456 -0.1835 -0.0668
11557W        W28404  16.905  11.459  11.835  0.1474 -0.0170 -0.0222
11558W        W28405   5.157   7.373  16.050  0.2683 -0.2911  0.0615
11559W        W28406  10.845  15.664  15.498 -0.0270  0.1537 -0.1503
11560W        W28407   3.069  18.266  15.649  0.1293  0.0241 -0.0897
11561W        W28408   3.954  16.489   4.822 -0.3170  0.0916  0.0912
11562W        W28409   6.548  12.288  11.587  0.2476 -0.0361 -0.1119
11563W        W28410   0.443  16.282  12.969  0.2967  0.1812 -0.2274
11564W        W28411   3.527  16.270   6.196  0.1329 -0.1227  0.1156
11565W        W28412   4.797  16.555   4.605 -0.2088  0.0778 -0.3282
11566W        W28413   5.152   9.129   1.049  0.3215  0.0695  0.3348
11567W        W28414   5.705   0.892  13.257 -0.0171 -0.1315 -0.1022
11568W        W28415   2.243  13.099   1.568 -0.1144 -0.2753 -0.1599
11569W        W28416  14.693   5.696   3.569 -0.0538  0.1962 -0.1588
11570W        W28417   9.068  12.384  13.952  0.0352  0.4191 -0.0492
11571W        W28418   4.984   4.009   1.727 -0.0752 -0.0183  0.0963
11572W        W28419   5.104  13.640  14.103  0.1194 -0.0451 -0.3995
11573W        W28420  11.907  18.063  13.159 -0.0078 -0.1913 -0.2887
11574W        W28421  11.395  11.458  14.513 -0.1948 -0.0932  0.4148
11575W        W28422   5.573  18.074  11.523  0.2440  0.3534  0.0497
11576W        W28423  17.872  16.824  14.452  0.2815 -0.2274  0.0028
11577W        W28424  16.081   6.866  12.942 -0.4528  0.2089 -0.0031
11578W        W28425   7.370  14.436   1.982  0.0043 -0.2967 -0.0995
11579W        W28426   9.515  14.763   4.657 -0.1185  0.2792  0.0026
11580W        W28427   9.411   7.173   2.741  0.0340 -0.2610 -0.1391
11581W        W28428   2.911   0.837   3.857 -0.1501  0.1674  0.1673
11582W        W28429   9.791   5.436   3.723  0.3674 -0.2019 -0.1143
11583W        W28430   1.126   6.788   6.020 -0.1015  0.0075 -0.1895
11584W        W28431   8.104   2.846   5.210  0.0647  0.0465  0.1476
11585W        W28432   3.402  11.585   2.370 -0.0993  0.0613 -0.1183
11586W        W28433   0.659  16.492  15.253 -0.1649  0.1218  0.2741
11587W        W28434  15.640   8.550   2.191 -0.2394  0.0618  0.3361
11588W        W28435  17.287  17.068   0.248 -0.1940 -0.0256 -0.2247
11589W        W28436   9.311  13.975   0.401 -0.1768  0.3240  0.0078
11590W        W28437  15.592   2.824  13.538 -0.0741  0.0322  0.2224
11591W        W28438  18.232  12.814  15.758 -0.0253  0.2606  0.0936
11592W        W28439   0.678  17.283   0.345  0.2742  0.4908  0.2688
11593W        W28440  17.423   3.797   1.915  0.0248  0.0501  0.0632
11594W        W28441  14.311   3.794   3.987  0.1255 -0.1119 -0.2007
11595W        W28442   2.313  14.026  13.920 -0.0709 -0.4085  0.1883
11596W        W28443  18.290   6.846  13.297  0.0583 -0.1633 -0.1937
11597W        W28444  15.229   4.719   4.542  0.3289 -0.0952 -0.1660
11598W        W28445   0.843   2.682   2.434 -0.1962  0.0649 -0.2711
11599W        W28446   5.248   7.779  13.757  0.1601  0.0198  0.1116
11600W        W28447   6.031   8.618   4.777 -0.2093 -0.2594  0.0780
11601W        W28448  16.555  14.043  12.755 -0.0072  0.1216 -0.1773
11602W        W28449   0.833   9.760   4.553 -0.0026  0.1706 -0.3396
11603W        W28450  16.761  16.712   0.723  0.0851  0.2815  0.0088
11604W        W28451   1.281  16.015  11.871 -0.0012 -0.1902 -0.0611
11605W        W28452   6.891  17.959   5.811  0.2578 -0.1047 -0.0374
11606W        W28453   1.474   1.117   3.095  0.1716  0.1303 -0.1714
11607W        W28454   5.502  12.373   5.480 -0.1079 -0.2423  0.2886
11608W        W28455  17.516  12.590  13.354  0.1599 -0.0342 -0.1278
11609W        W28456  11.468   1.734   4.552  0.2544 -0.0053  0.1611
11610W        W28457  11.377   6.900   3.114  0.1942  0.0206 -0.1655
11611W        W28458   2.972  12.585   2.727  0.1967 -0.0036  0.3911
11612W        W28459   7.168   3.970  15.854  0.1190  0.1694  0.0320
11613W        W28460   9.532  12.925   1.842  0.2076  0.1136 -0.1421
11614W        W28461   6.369   7.517   1.519  0.1304  0.1152 -0.3194
11615W        W28462   9.605   3.142   4.270 -0.1348 -0.0117  0.1598
11616W        W28463  12.332   2.795   4.561 -0.1315 -0.1560 -0.1717
11617W        W28464  16.944   6.270   4.746 -0.0650  0.2173  0.0597
11618W        W28465  13.695   0.427   1.857 -0.0661 -0.0154 -0.0892
11619W        W28466  10.090  17.067   5.030 -0.0444 -0.1196 -0.2271
11620W        W28467   7.754  15.475   0.907  0.0690 -0.1119  0.1913
11621W        W28468  16.207  14.124  14.165  0.1783  0.0102 -0.1059
11622W        W28469   8.956  10.042  15.270 -0.1153  0.3477 -0.0770
11623W        W28470  18.310  11.237  12.508 -0.2969 -0.0813 -0.1559
11624W        W28471   4.972  16.011   1.640 -0.1816 -0.2308  0.3742
11625W        W28472  10.371  12.130  13.318  0.2135 -0.0712  0.2182
11626W        W28473  17.561   6.699   5.166 -0.2257 -0.0608  0.3798
11627W        W28474  13.446   4.720   9.639 -0.0803 -0.1130 -0.1050
11628W        W28475   9.933   9.502   0.117  0.0688  0.1791 -0.0013
11629W        W28476  16.384  17.137   3.851  0.0597 -0.1984  0.0843
11630W        W28477   6.670  17.736   5.081 -0.1263 -0.0258 -0.2041
11631W        W28478  12.229   1.690  16.011  0.0613  0.1474 -0.0003
11632W        W28479   3.401  14.012   4.076 -0.1887 -0.0891 -0.0042
11633W        W28480  17.305   0.334  12.904  0.1799 -0.2533 -0.2026
11634W        W28481  12.453   5.075   2.582  0.2057 -0.0342  0.0097
11635W        W28482  15.463   3.075   1.070  0.1066 -0.3143 -0.0053
11636W        W28483  10.292   7.084   5.089 -0.4284  0.3474 -0.0701
11637W        W28484  11.813   3.444   4.870  0.1774  0.1486 -0.1768
11638W        W28485  11.526   3.019   4.765  0.0491 -0.0654 -0.0507
11639W        W28486   2.120   4.776   3.071 -0.0928  0.0095  0.1877
11640W        W28487  14.694   3.656   1.305  0.0582 -0.0604  0.2574
11641W        W28488  16.277  11.161   1.512  0.1698 -0.0754  0.1736
11642W        W28489  16.587  11.040   4.192  0.0000  0.0734 -0.0873
11643W        W28490   7.699  11.513  15.758 -0.0112  0.2148  0.4682
11644W        W28491  14.932   5.581   2.700  0.0779  0.3273  0.7271
11645W        W28492   6.469  16.030   0.653  0.1491  0.2881  0.3353
11646W        W28493   9.241   9.408  12.844 -0.1604  0.0310  0.1897
11647W        W28494  10.294   0.196  15.366 -0.1665  0.0814 -0.0584
11648W        W28495   0.355  14.827  13.962  0.1486  0.0055 -0.0310
11649W        W28496   3.517   5.883   5.468  0.0899  0.1504 -0.2052
11650W        W28497   0.010  10.539  15.900  0.0119  0.0972  0.1747
11651W        W28498  16.461   0.290  12.527 -0.1949  0.3498 -0.1718
11652W        W28499  17.632   6.846  15.774  0.1325  0.1531  0.2341
11653W        W28500   1.569  14.397   6.027  0.0698  0.2205  0.1022
11654W        W28501  16.843   0.007   5.462  0.3610  0.2701 -0.0286
11655W        W28502   3.265  11.682  12.299  0.0818  0.0906  0.0285
11656W        W28503  16.885  12.612   4.839 -0.1840 -0.2357 -0.1997
11657W        W28504   1.076   6.695   1.563 -0.2533 -0.2136  0.1190
11658W        W28505  17.634  11.277  13.504 -0.3335 -0.0365 -0.4104
11659W        W28506   8.792   5.864   4.734  0.1576 -0.4799 -0.1592
11660W        W28507  15.773   7.619  12.337 -0.0010 -0.2682 -0.0910
11661W        W28508  15.648   8.004  12.710 -0.1090  0.2226  0.1241
11662W        W28509   7.371  13.913   4.554  0.0966  0.0408  0.0863
11663W        W28510   6.030  12.354  15.437  0.1301 -0.0337 -0.1464
11664W        W28511  16.958   6.438   0.924  0.0164  0.0976  0.1111
11665W        W28512   4.321  11.152   0.205 -0.1079  0.0769  0.1834
11666W        W28513  13.904  14.838   5.056  0.1325  0.1007  0.0127
11667W        W28514   3.000  12.416   0.131  0.0525  0.1452  0.1294
11668W        W28515   3.654  17.801  10.485  0.1361 -0.0134 -0.1605
11669W        W28516   9.632   8.304  10.793 -0.1748  0.1450 -0.1781
11670W        W28517  15.784  16.748  11.383  0.0842 -0.0917  0.0548
11671W        W28518   4.406   3.985  12.740 -0.0539 -0.0545 -0.0864
11672W        W28519   9.524   2.677  13.203 -0.0208 -0.2916 -0.1143
11673W        W28520   7.011  10.860   4.423  0.4517 -0.0871 -0.2110
11674W        W28521  12.815   9.785   3.087  0.1480 -0.0519 -0.2177
11675W        W28522  14.566   8.026   2.117  0.3941  0.1529 -0.2514
11676W        W28523   4.681  10.289  13.441 -0.1622 -0.1713 -0.1720
11677W        W28524   0.024  17.693  15.700 -0.0996 -0.4677  0.0565
11678W        W28525  18.315   2.315  12.726 -0.3249  0.3132  0.2053
11679W        W28526   6.821  15.263  13.977 -0.1230 -0.0516  0.3471
11680W        W28527   7.646   2.920   2.727 -0.3580 -0.2084 -0.0565
11681W        W28528   5.288   0.782  11.457 -0.0223 -0.2301 -0.2184
11682W        W28529   7.084  10.450  14.225 -0.1740  0.1811 -0.1948
11683W        W28530   1.946  14.639   4.041 -0.0639  0.0868  0.1249
11684W        W28531  12.271   7.952   4.562  0.0051  0.0903 -0.1911
11685W        W28532   8.032   6.224   1.037  0.0515  0.0733  0.2787
11686W        W28533   4.399   3.450   3.865 -0.1499 -0.3388 -0.1528
11687W        W28534  11.741  15.215   4.225 -0.0641  0.2885  0.0011
11688W        W28535   8.042   2.636   5.712 -0.1176 -0.0887  0.0206
11689W        W28536   1.233   4.723  14.889  0.1133  0.3632 -0.3093
11690W        W28537   5.310  17.228  13.412 -0.0809  0.1951  0.0330
11691W        W28538  17.209  17.563  12.025 -0.0261 -0.0852 -0.0240
11692W        W28539   5.466  18.026  15.481  0.0343 -0.2161 -0.0205
11693W        W28540   9.124  16.207  14.867 -0.0922 -0.0102  0.0419
11694W        W28541   7.965  17.537  15.172  0.0050 -0.1419  0.0396
11695W        W28542  10.245  16.538   3.163  0.1032  0.1451  0.2802
11696W        W28543  11.844   5.290   9.564 -0.1413  0.1353 -0.0907
11697W        W28544   2.684   0.315  11.745 -0.1442  0.0317 -0.4583
11698W        W28545   3.039   1.494  13.089 -0.0302 -0.0397  0.0217
11699W        W28546  17.443  14.146  15.005  0.1169 -0.2061 -0.1213
11700W        W28547  13.640   5.887  12.580 -0.2545  0.1324 -0.2043
11701W        W28548   7.821   8.135   0.317 -0.1801 -0.2289 -0.1302
11702W        W28549  15.609  10.690   1.127  0.1193 -0.1156 -0.2668
11703W        W28550   5.552  17.608   2.621 -0.0113  0.2994 -0.1734
11704W        W28551  12.222   0.086   5.439  0.1074  0.2422 -0.0641
11705W        W28552   7.115  14.757   4.157 -0.0241  0.0930  0.1194
11706W        W28553   5.460   1.417   2.121 -0.0959 -0.1091  0.2087
11707W        W28554   4.777  12.945   5.052  0.1801  0.1922  0.1405
11708W        W28555   3.877   8.137   4.943  0.0790 -0.0023 -0.1571
11709W        W28556   1.102  12.842  16.091 -0.2167  0.2398  0.2739
11710W        W28557  14.890   2.767   0.418  0.0448 -0.1569  0.2859
11711W        W28558   6.065   8.205  16.028  0.1578 -0.1231 -0.1355
11712W        W28559  13.953   0.357  15.582  0.1833 -0.0205  0.0719
11713W        W28560  16.796   0.735   1.535 -0.1990  0.0681  0.2014
11714W        W28561   3.171  10.744   3.071 -0.1251  0.1474  0.0521
11715W        W28562  15.429  14.174   1.434  0.2389 -0.2130  0.2094
11716W        W28563   3.850   9.248  13.862  0.2203 -0.4492  0.2152
11717W        W28564   1.801  17.093   1.651  0.0685 -0.1173 -0.0484
11718W        W28565  17.020  11.014   5.022 -0.0528 -0.0289 -0.3738
11719W        W28566   8.223  10.047   3.621  0.2389 -0.3030 -0.1456
11720W        W28567  10.434  12.345   2.848  0.0493  0.0275  0.1417
11721W        W28568   3.560   8.260   2.557  0.0108  0.1324  0.0966
11722W        W28569  17.869   1.592   3.737  0.3306  0.0243 -0.3843
11723W        W28570   9.193  14.128  11.644 -0.0668  0.1186  0.1838
11724W        W28571  12.230   3.103   4.936 -0.3861  0.1288 -0.1516
11725W        W28572  16.554   9.323  12.456  0.0910 -0.3122  0.2191
11726W        W28573  10.745  14.488  13.527 -0.1191 -0.0836 -0.0836
11727W        W28574  11.747   7.588   0.694  0.2000 -0.4231  0.0618
11728W        W28575   6.094  14.317  14.611 -0.0760  0.1910  0.2350
11729W        W28576   7.613   9.561   2.454 -0.0968  0.2368 -0.2996
11730W        W28577   9.114   1.358  15.625  0.0464  0.1130  0.1552
11731W        W28578   5.301  15.966   3.137 -0.1924  0.0481  0.2302
11732W        W28579   0.460   4.091  14.480  0.2169 -0.1849  0.1193
11733W        W28580   7.813  17.264   3.641 -0.2066  0.1257  0.1028
11734W        W28581   8.796  13.438  13.394  0.1928 -0.1515  0.2999
11735W        W28582   7.329   5.417  15.001  0.0747  0.0437 -0.0288
11736W        W28583  14.133   7.340   4.836  0.1321  0.1506 -0.2618
11737W        W28584  12.831  11.258  14.631 -0.2093  0.1038  0.3007
11738W        W28585   7.239   0.908  11.549  0.0581  0.0527  0.0353
11739W        W28586  11.079   0.686   5.294  0.1893  0.0417 -0.0432
11740W        W28587   9.229  16.375   5.411 -0.0725 -0.4687 -0.1179
11741W        W28588   6.029   6.878   1.287  0.0041  0.0947  0.0407
11742W        W28589  10.317  13.426   4.795 -0.2655 -0.1863  0.0235
11743W        W28590  15.946   4.331  13.881  0.0427  0.0399 -0.0663
11744W        W28591   0.403  17.920   4.041 -0.3535  0.1568  0.0156
11745W        W28592   8.025  16.765   3.850 -0.1848  0.1755 -0.2212
11746W        W28593   2.681  12.581   0.771  0.1970  0.0896  0.0935
11747W        W28594   4.409   6.513  12.039 -0.0071  0.0580  0.0218
11748W        W28595   0.806   6.105   4.831 -0.0488 -0.3242  0.3713
11749W        W28596   8.158  11.596   2.893  0.1720 -0.1697  0.0214
11750W        W28597   5.362   8.151  13.444  0.1572 -0.0933  0.1426
11751W        W28598  17.286  13.396   4.522  0.0743 -0.0757 -0.0983
11752W        W28599  14.912  11.477   3.982 -0.0581  0.0578  0.2758
11753W        W28600   6.534  16.610  14.083 -0.1280 -0.1476  0.0806
11754W        W28601  10.106  14.280  13.183 -0.2024 -0.3488 -0.0757
11755W        W28602  15.784   5.108  16.009  0.0374  0.1816 -0.1081
11756W        W28603   5.337   3.277   0.602 -0.2068 -0.0267  0.0839
11757W        W28604  15.810  18.248  15.138  0.0629  0.0572  0.2583
11758W        W28605  14.626  13.455  13.539 -0.2528 -0.0301  0.1427
11759W        W28606   2.473  11.772   2.509  0.1500 -0.1709  0.1777
11760W        W28607  10.412   6.935   3.316  0.1415 -0.0028 -0.1001
11761W        W28608  16.156  16.897   2.225  0.1624  0.0806  0.1398
11762W        W28609   3.300  17.710  11.414 -0.0073  0.1062 -0.1326
11763W        W28610   9.329  11.058   4.317 -0.1775 -0.1337 -0.1128
11764W        W28611   2.679   1.207   2.383  0.2268  0.2047 -0.2447
11765W        W28612  15.659  10.495  13.690  0.0714  0.0043 -0.1107
11766W        W28613   2.594   3.850  14.280  0.0075  0.0460 -0.1142
11767W        W28614   2.657  14.947  11.377 -0.2637 -0.2792 -0.1536
11768W        W28615   1.490   5.268  12.716 -0.1861  0.2756 -0.0724
11769W        W28616   7.081  11.479   0.519  0.0241  0.1538 -0.3037
11770W        W28617   4.327  17.306   3.212 -0.0651  0.1029  0.0039
11771W        W28618  10.811   5.058   2.177  0.4507 -0.0613 -0.1753
11772W        W28619  17.311  13.982   0.343  0.0417 -0.1875 -0.1772
11773W        W28620   7.369   7.177  13.499  0.0356 -0.0201  0.0390
11774W        W28621   2.118   4.240   3.213 -0.0290  0.4492  0.0381
11775W        W28622   2.601   7.393  13.324 -0.0338 -0.1940  0.0992
11776W        W28623   4.883   1.929  15.665 -0.1131  0.1454 -0.0562
11777W        W28624  14.675  11.033   3.745  0.2529 -0.3106 -0.0087
11778W        W28625  15.508  10.297   1.966  0.2640  0.1953 -0.2653
11779W        W28626  11.911  17.323  14.031 -0.0858 -0.2254 -0.0273
11780W        W28627   3.052   8.592  15.166  0.0399  0.2032 -0.0727
11781W        W28628  14.668  14.608   1.799  0.0540 -0.1140  0.1265
11782W        W28629  16.827  17.116   4.622 -0.0923  0.1234 -0.0873
11783W        W28630   2.376   8.007   0.068  0.0151 -0.1909 -0.1687
11784W        W28631  13.230   8.155  14.891 -0.1263 -0.2992  0.2182
11785W        W28632   6.810   2.276   0.929 -0.0205 -0.0318  0.4129
11786W        W28633   9.191   5.818  14.769  0.0324  0.1464  0.1611
11787W        W28634   2.322   2.129   0.076 -0.0187 -0.0821  0.1413
11788W        W28635  11.415   4.574  10.536  0.1946  0.2163  0.0656
11789W        W28636  12.906   3.345  12.908  0.2415  0.1759  0.1489
11790W        W28637  12.039  14.745   4.137 -0.0716 -0.1939  0.0333
11791W        W28638  14.106  13.663  15.461  0.2340  0.0636  0.0162
11792W        W28639   2.103   1.373  14.194  0.0296  0.0569 -0.1891
11793W        W28640   2.106   1.968  13.482 -0.0639  0.0543  0.3328
11794W        W28641  14.885   0.645   3.964  0.2824 -0.0471  0.2298
11795W        W28642   0.433  18.254  11.891 -0.0049  0.5387  0.2604
11796W        W28643  13.804  16.058   0.412 -0.1385 -0.3808  0.1016
11797W        W28644  16.838  17.497  11.673  0.0953 -0.0781 -0.0210
11798W        W28645   5.819  10.945   5.730  0.1671 -0.2902 -0.2926
11799W        W28646  14.015  12.879  14.313 -0.0861  0.0007 -0.1227
11800W        W28647   6.123  11.657   2.828  0.1209 -0.1480 -0.3316
11801W        W28648   4.028  11.323   4.294  0.1445 -0.1930  0.1171
11802W        W28649  15.406  17.571   2.539  0.4486  0.0853 -0.0309
11803W        W28650   9.526   6.847   1.596  0.4045  0.0755  0.1602
11804W        W28651  12.765  13.885   2.408  0.0043 -0.2034 -0.1720
11805W        W28652   6.192   8.472  13.480  0.3305  0.2004 -0.1249
11806W        W28653  18.332  15.824   5.877  0.2537  0.1997 -0.0666
11807W        W28654  10.109  10.426   3.907  0.0900  0.0980  0.0190
11808W        W28655   2.763   2.033   0.231  0.1154 -0.2051  0.0553
11809W        W28656  17.211   8.148  12.084  0.2336 -0.1066  0.0118
11810W        W28657  13.749  10.842   1.975 -0.2106  0.2030  0.0648
11811W        W28658  10.538  11.619  14.457  0.2385  0.1192 -0.4210
11812W        W28659  11.718  11.560  12.335 -0.1061 -0.1406 -0.1338
11813W        W28660   2.621   3.746   3.922 -0.0774 -0.0953 -0.0135
11814W        W28661  17.332  10.657  16.074 -0.0595 -0.2250  0.0247
11815W        W28662   8.894   4.456   4.126 -0.2146 -0.2713 -0.3992
11816W        W28663  15.704  15.877   3.078 -0.4285 -0.0162 -0.0040
11817W        W28664   6.617  16.979  11.844  0.0260 -0.0249 -0.2725
11818W        W28665   2.201   0.768   1.325  0.1406  0.0071  0.2280
11819W        W28666   2.831  16.376   4.920  0.0072 -0.2196 -0.1439
11820W        W28667  16.811  11.826   0.177 -0.2581 -0.1873  0.2314
11821W        W28668  12.410   2.082  13.022 -0.0113 -0.1542  0.2945
11822W        W28669   4.917  15.492   0.486 -0.1599 -0.0854  0.2536
11823W        W28670   5.209  10.627   0.749 -0.1055 -0.0073 -0.0337
11824W        W28671  10.864  11.136  16.166 -0.1687  0.0701 -0.0255
11825W        W28672  11.133   9.142  11.815  0.2852 -0.0999 -0.0351
11826W        W28673   6.502  12.650  14.193 -0.0291 -0.2904 -0.1742
11827W        W28674   4.544   6.415  14.774 -0.0646  0.3334 -0.0264
11828W        W28675  15.296   6.276  16.041 -0.1993  0.2990  0.1090
11829W        W28676   4.434   5.891   2.226 -0.0540 -0.2070 -0.0057
11830W        W28677   0.510   1.855  16.084 -0.3659  0.1307  0.2268
11831W        W28678  15.633  13.189  13.623  0.3181  0.0199  0.0823
11832W        W28679   2.635   5.822   4.452 -0.1982 -0.2188 -0.0148
11833W        W28680   6.464  17.825   3.453 -0.2494 -0.2330 -0.1631
11834W        W28681  17.985   7.415   4.648 -0.0355  0.0989 -0.1541
11835W        W28682  11.157  15.370  12.553  0.1560  0.2033  0.0260
11836W        W28683  16.914  10.183  13.730  0.2295 -0.1312 -0.1436
11837W        W28684  17.374  10.234   5.610  0.1921 -0.2371 -0.4325
11838W        W28685  18.300   9.956   3.461  0.0516  0.0823  0.1028
11839W        W28686   6.327   9.115   4.303  0.0515 -0.0899  0.0965
11840W        W28687  14.218  11.144  15.616 -0.2413 -0.0739  0.0990
11841W        W28688  12.635  17.285   3.156  0.1451  0.0724  0.1522
11842W        W28689   5.913   5.946   1.983 -0.1094 -0.1120  0.0283
11843W        W28690  10.011  14.908   3.062 -0.1870  0.1701  0.0539
11844W        W28691  10.117  14.841  13.902  0.1260  0.1913 -0.1051
11845W        W28692  16.648   1.812  12.126 -0.1443  0.1096 -0.0535
11846W        W28693   9.441  16.666  15.937  0.0769 -0.3298  0.0300
11847W        W28694   8.206  10.855   2.323 -0.1839 -0.1620  0.0772
11848W        W28695  16.992   2.627   1.599  0.0471  0.2951  0.1160
11849W        W28696   5.773   7.773   0.063 -0.0501  0.0193 -0.0208
11850W        W28697   8.156  16.198   0.598 -0.0331 -0.4454  0.1296
11851W        W28698   4.154  13.269  14.038  0.0145  0.0513 -0.1250
11852W        W28699  13.447  16.149   2.964  0.2126  0.0594 -0.1068
11853W        W28700  11.857   0.806  12.047 -0.0903  0.1975  0.2985
11854W        W28701   5.989   0.839   3.809  0.0210 -0.0089 -0.2802
11855W        W28702  12.283   1.892   0.627 -0.0760  0.1282 -0.3007
11856W        W28703   2.786  14.672   4.486  0.1036 -0.0407  0.0007
11857W        W28704  14.231   6.067   1.595  0.0546 -0.0317  0.4964
11858W        W28705   8.741  12.971  12.217 -0.1953  0.1574 -0.0959
11859W        W28706  11.423   0.560  12.362  0.0304 -0.0693 -0.4078
11860W        W28707   2.234   3.783   2.418  0.0855 -0.1319  0.2709
11861W        W28708  15.979   3.062   3.294  0.1175  0.0756  0.3028
11862W        W28709   5.575  14.411   4.134 -0.1752  0.0716  0.1103
11863W        W28710  11.864   8.773   0.631  0.0151  0.4685 -0.1074
11864W        W28711   1.059   5.104   0.522  0.0394 -0.0799  0.0113
11865W        W28712   4.010   8.541   2.340  0.0044  0.1549 -0.2026
11866W        W28713   1.794   5.312   4.299  0.0714 -0.5752 -0.3478
11867W        W28714   6.643   4.933  15.451 -0.0710 -0.1444 -0.0416
11868W        W28715   1.358   4.135   2.104 -0.1344 -0.1184  0.1376
11869W        W28716   8.435  17.947   4.510 -0.0678  0.1612  0.1728
11870W        W28717  18.238  15.466   0.162 -0.1098  0.1143  0.2056
11871W        W28718   0.778   7.041   3.613  0.1381  0.1488 -0.1398
11872W        W28719  17.566  13.607  13.037  0.0506 -0.1304 -0.0000
11873W        W28720   4.665  12.820   4.449 -0.2163  0.3085 -0.0976
11874W        W28721   3.468   6.116  13.172 -0.1805 -0.1098  0.1108
11875W        W28722   4.499   8.275  14.604 -0.0242 -0.0039 -0.1200
11876W        W28723   2.978  12.104  12.734 -0.3929 -0.0528 -0.1367
11877W        W28724  11.171  16.893  15.686 -0.1840 -0.2809  0.0093
11878W        W28725  10.316   8.182   0.662 -0.0709 -0.0885 -0.0114
11879W        W28726   2.913   8.508   0.468  0.0219  0.2388  0.0759
11880W        W28727   8.879  15.036   3.544 -0.1028  0.0674  0.2290
11881W        W28728  15.891  16.946   0.550 -0.0996 -0.0379 -0.0691
11882W        W28729  17.810  16.960   4.560  0.2084  0.1683 -0.1433
11883W        W28730  14.575   0.149   2.316 -0.2909 -0.2304 -0.1165
11884W        W28731  16.606   8.884  12.091  0.0072  0.0582 -0.1723
11885W        W28732   2.566   5.632   5.771  0.3940  0.1365 -0.1331
11886W        W28733  15.168   1.401   3.129 -0.1787 -0.1326 -0.1560
11887W        W28734  11.214   8.242  15.784 -0.0339  0.2282  0.0876
11888W        W28735  15.019  10.554  15.030  0.1698  0.3089  0.4232
11889W        W28736  17.155   9.129  15.626  0.1993 -0.1334 -0.0529
11890W        W28737   1.555  12.067  14.650  0.0292  0.1633  0.0788
11891W        W28738  14.337   6.096   3.798  0.0073  0.1730 -0.0560
11892W        W28739   5.568   9.083  13.818  0.0636  0.1620  0.0013
11893W        W28740   3.309   8.685  14.342 -0.0791  0.2383  0.0159
11894W        W28741   8.106   0.219   2.148  0.1058  0.2646  0.1653
11895W        W28742   4.075   8.591  13.807 -0.1923  0.3446 -0.0009
11896W        W28743  16.456   5.555   4.163  0.1091 -0.2286  0.1782
11897W        W28744  12.346   3.988   5.046 -0.1896  0.0226  0.0194
11898W        W28745  17.556  13.818  15.385  0.0847 -0.1357  0.1989
11899W        W28746   1.668  10.706   2.669  0.1287  0.0087  0.1471
11900W        W28747   1.399  10.826  14.946 -0.0952 -0.0035 -0.0563
11901W        W28748   1.222  17.667  15.689 -0.1501  0.1164 -0.2196
11902W        W28749  10.548  17.298   2.733  0.2149 -0.0739  0.0623
11903W        W28750  12.320  11.406  13.820 -0.1949  0.2514 -0.2353
11904W        W28751   6.613  11.210   4.354 -0.0881 -0.0818 -0.0741
11905W        W28752  13.233  16.193  15.351 -0.2720 -0.0089  0.0696
11906W        W28753   0.595   5.815   0.552  0.0167 -0.0455  0.1189
11907W        W28754   8.725   5.706   4.287  0.1207 -0.1696  0.0988
11908W        W28755  12.566   6.015   9.562  0.1576  0.1898  0.0494
11909W        W28756   5.077   8.387   5.774 -0.1191 -0.1954  0.1893
11910W        W28757   7.790  15.004  12.116  0.0345 -0.0562  0.0240
11911W        W28758   2.886   7.756  11.888  0.0321 -0.1282 -0.1777
11912W        W28759  16.310   9.652  15.735  0.2767 -0.0430  0.1498
11913W        W28760   2.375   6.896   2.260  0.2035 -0.2014  0.4793
11914W        W28761  14.592   8.009   3.191 -0.0767  0.0998 -0.0129
11915W        W28762   4.867   0.679   3.157  0.1404 -0.1074 -0.1610
11916W        W28763   5.141   3.422  11.669 -0.0164 -0.0112 -0.4320
11917W        W28764  17.188   3.397  14.683  0.2491  0.0195  0.0378
11918W        W28765  12.259  12.866   5.809 -0.2027 -0.0616 -0.2250
11919W        W28766  16.822  17.385   1.549  0.0653  0.0695 -0.1378
11920W        W28767   7.372   8.676   1.439 -0.2830  0.1096 -0.0114
11921W        W28768   1.534  11.733  13.316  0.1250  0.1296 -0.0705
11922W        W28769   3.665   2.037  13.903 -0.2830 -0.2219 -0.1665
11923W        W28770   6.533   7.234   6.046  0.2848 -0.2102  0.1185
11924W        W28771  15.703  15.358  10.111 -0.0649 -0.0129  0.2195
11925W        W28772  14.694   6.801  10.652  0.0537  0.1313 -0.1926
11926W        W28773   3.542  16.462   3.434 -0.0807 -0.2745 -0.0530
11927W        W28774  16.830   5.912  11.602  0.2292  0.1549  0.2434
11928W        W28775  11.086   2.348  11.864  0.2344 -0.0658  0.2482
11929W        W28776   0.240  17.400  15.237 -0.0043  0.4046  0.1323
11930W        W28777  13.533   0.414   0.936  0.6139  0.2601 -0.5326
11931W        W28778   6.503   2.639  11.547  0.0368 -0.0566  0.0384
11932W        W28779   0.867  17.025  14.838  0.1820 -0.0340  0.1442
11933W        W28780   0.598   6.761  15.791  0.2173 -0.0421 -0.0758
11934W        W28781  12.166   7.932  12.971  0.2033 -0.1839 -0.3524
11935W        W28782  17.015  17.388  16.167 -0.1570  0.1077 -0.0159
11936W        W28783   4.496  14.773   4.175 -0.0922  0.1906 -0.1550
11937W        W28784  13.063   9.338   1.740 -0.3310 -0.1532 -0.0353
11938W        W28785   3.556   2.314   1.815 -0.1957 -0.0895  0.1012
11939W        W28786  13.361   1.046   2.519 -0.2579 -0.0278 -0.1084
11940W        W28787  12.007   7.600  15.583 -0.3621 -0.4659 -0.1194
11941W        W28788  17.426   0.441   1.865  0.4092 -0.0516  0.2884
11942W        W28789   7.970   2.818   3.218  0.1989  0.2499 -0.1463
11943W        W28790  15.278   8.703  13.283  0.0278  0.0940  0.0416
11944W        W28791   2.695  17.176   0.258 -0.1867 -0.1353 -0.2006
11945W        W28792  13.343   7.393  14.578  0.0713 -0.1813  0.1691
11946W        W28793   0.252   4.980   1.176  0.1886 -0.0240 -0.2115
11947W        W28794   8.632   1.412  14.087 -0.2793  0.0868 -0.0882
11948W        W28795  15.119   1.882   0.785  0.0148 -0.4480  0.1168
11949W        W28796   3.091   3.070   1.397 -0.0437 -0.0266 -0.1221
11950W        W28797   2.788   0.289   3.878 -0.1542 -0.0617 -0.3199
11951W        W28798  10.392  13.620   1.646  0.1678  0.0867 -0.0908
11952W        W28799   2.887  15.358  15.726 -0.1635 -0.2014 -0.3530
11953W        W28800   7.508   8.931   4.692  0.6348 -0.1197 -0.1354
11954W        W28801   2.431   1.364  14.842  0.0741  0.1289  0.0406
11955W        W28802  16.912  16.469  14.548  0.1385 -0.0542  0.0500
11956W        W28803   9.011  13.790  16.079  0.2265 -0.1431  0.2857
11957W        W28804   1.510  15.816  13.115 -0.0898  0.0319  0.1299
11958W        W28805   6.992   5.449  13.566  0.1388  0.2702  0.1317
11959W        W28806  13.089   1.463  12.271  0.1137  0.2899 -0.1774
11960W        W28807   1.330  12.334   5.825  0.3943 -0.0634 -0.4082
11961W        W28808  17.686   5.156   3.192 -0.2450  0.2846  0.2360
11962W        W28809  17.872  12.227   2.593  0.0561  0.4975 -0.0359
11963W        W28810   4.186   8.501  12.367 -0.2471  0.1373 -0.2261
11964W        W28811   5.451   4.417   3.643 -0.0612  0.0093 -0.2654
11965W        W28812   5.137   2.089   4.907 -0.1325 -0.2043  0.0604
11966W        W28813   8.726  10.268  11.763 -0.0129 -0.3348 -0.1012
11967W        W28814  12.023   6.621   0.636 -0.1559  0.1779 -0.1015
11968W        W28815   4.454  13.532  11.497 -0.1869  0.4167  0.0130
11969W        W28816   3.964   6.583   0.191  0.2617  0.1209 -0.1125
11970W        W28817   7.476  12.285   3.203 -0.0836  0.0649  0.2126
11971W        W28818   3.188  17.736  14.013 -0.4004  0.0047 -0.0469
11972W        W28819   2.904   8.823   4.884  0.1112  0.1668  0.1396
11973W        W28820   2.914  17.759  11.803 -0.3397 -0.0036  0.1024
11974W        W28821  13.632  10.567   3.596 -0.0852 -0.1445 -0.1466
11975W        W28822   5.192  17.344  14.095 -0.2582 -0.0737 -0.1636
11976W        W28823   5.327   5.689   2.426 -0.2525  0.2029  0.0666
11977W        W28824   2.390  16.722  12.738  0.4158  0.1322  0.0909
11978W        W28825  13.087  15.529  12.483 -0.0978 -0.3106 -0.1207
11979W        W28826  15.564   6.677  12.228 -0.2593  0.1073  0.3809
11980W        W28827  10.019   6.130   1.419 -0.1422  0.1678 -0.5145
11981W        W28828   0.941   8.326  14.768 -0.2821  0.2076 -0.0805
11982W        W28829  16.206  16.861  11.128 -0.1871  0.1685  0.1215
11983W        W28830   9.948   3.340   0.452 -0.2693 -0.1556  0.1360
11984W        W28831   8.532   5.215  13.832  0.2172 -0.2302 -0.1790
11985W        W28832  14.841   8.650   3.661 -0.0583  0.3492 -0.1058
11986W        W28833   2.225   2.506   1.718  0.0094  0.0851 -0.2858
11987W        W28834   6.776   2.414  13.365 -0.0823 -0.3228  0.1602
11988W        W28835  13.749   8.100   4.670  0.1799 -0.0565 -0.2186
11989W        W28836   0.820   7.543   3.494  0.1507 -0.0585  0.0342
11990W        W28837  11.216   4.688  12.467 -0.0549 -0.0228  0.0516
11991W        W28838  14.693   5.366   5.405 -0.1755  0.0556  0.0035
11992W        W28839  15.303   0.611   1.127  0.1609  0.2165  0.1336
11993W        W28840   1.085   9.582  14.396 -0.0346 -0.0940  0.2924
11994W        W28841  16.560   7.831  12.019  0.2097 -0.0103 -0.1583
11995W        W28842  17.482  16.522  14.376  0.3157 -0.1608 -0.1240
11996W        W28843   3.053   7.515   0.161  0.1713 -0.0572 -0.1185
11997W        W28844  18.071  16.474   4.443  0.1822 -0.2595  0.2482
11998W        W28845  15.510   3.354   2.747  0.2908  0.2397 -0.1167
11999W        W28846  13.377  14.464  14.295  0.3325  0.0141  0.1503
12000W        W28847   5.361  15.612  11.161  0.0513 -0.0072 -0.0882
12001W        W28848  11.846  11.231  15.205 -0.3784 -0.0031 -0.0657
12002W        W28849   1.304  13.834  15.147 -0.1474  0.0901  0.1588
12003W        W28850   7.912  14.971  11.485 -0.1134  0.1638  0.1608
12004W        W28851   9.049  12.860   1.831  0.0437 -0.2560  0.2288
12005W        W28852   8.709   8.562   5.089  0.3408  0.0552  0.2171
12006W        W28853  17.903   9.639  11.833  0.0207 -0.0906  0.0343
12007W        W28854  11.896  10.165  11.957 -0.0935 -0.3500 -0.0123
12008W        W28855  17.288   7.059   4.258  0.2578  0.2125  0.2300
12009W        W28856   5.379  13.678   3.131  0.1086  0.2987  0.1294
12010W        W28857  13.077   1.570   3.734  0.1258 -0.2537 -0.1639
12011W        W28858   2.751   7.107   5.626 -0.0632  0.3021  0.2654
12012W        W28859   5.792   0.670  14.088  0.3332 -0.1931  0.1218
12013W        W28860   5.445   0.574  13.665 -0.2277  0.2427 -0.0304
12014W        W28861  11.467  17.542   2.951 -0.0132 -0.2361 -0.3226
12015W        W28862   0.361  13.294   4.438 -0.0704  0.2713 -0.1081
12016W        W28863  11.616   0.094  15.283 -0.0204 -0.3738 -0.3559
12017W        W28864   6.684   5.745  12.503 -0.1008 -0.1885 -0.0890
12018W        W28865   4.083  16.180  11.674  0.2423  0.1152 -0.2309
12019W        W28866   8.421  11.643   2.466 -0.0942  0.0143  0.2051
12020W        W28867   4.213  17.327   1.652  0.1435 -0.2702 -0.4150
12021W        W28868   1.464   1.063   4.170  0.2892 -0.0681 -0.0617
12022W        W28869   2.210   3.052  12.693  0.0138 -0.0680 -0.2256
12023W        W28870  10.264  12.155   5.475  0.1880  0.1680  0.0492
12024W        W28871  16.596   7.554  12.957  0.1208  0.4232  0.0149
12025W        W28872   0.127  16.583  13.960  0.0102 -0.0047  0.1753
12026W        W28873   0.543  14.104  12.715 -0.1219 -0.2518 -0.1680
12027W        W28874   5.509   2.674   2.916  0.2599 -0.2426  0.0462
12028W        W28875   4.028  12.450   1.658 -0.0361  0.2854 -0.2426
12029W        W28876  13.936  12.795   3.199  0.1575  0.2120  0.1946
12030W        W28877   5.357   0.310   3.746 -0.0213 -0.0874 -0.0973
12031W        W28878   9.840   9.516  15.445  0.1196  0.0594 -0.0230
12032W        W28879  14.313  15.495   6.025 -0.1109  0.1090  0.0566
12033W        W28880   7.547  15.102  16.161  0.0837 -0.0157  0.2466
12034W        W28881  13.478   4.612   4.963 -0.0530 -0.0953  0.0236
12035W        W28882  10.790  14.809   0.257  0.0311 -0.1089 -0.3122
12036W        W28883   2.495  12.288  10.475 -0.3508 -0.4195  0.0409
12037W        W28884   8.883  15.378   3.192 -0.0410  0.2584  0.3080
12038W        W28885   1.651   3.158  11.853  0.0204 -0.0837  0.2006
12039W        W28886  14.448   9.673   3.491  0.1288  0.0022  0.2442
12040W        W28887  10.117  12.951  14.859 -0.1777  0.1683  0.2601
12041W        W28888  12.869   5.433  14.683  0.0276  0.1215 -0.0909
12042W        W28889   5.498  17.312   3.697  0.0962 -0.1529  0.0180
12043W        W28890   5.824   5.480  11.340  0.1596 -0.1046  0.0971
12044W        W28891  12.592  13.061  14.525 -0.2713 -0.2847  0.1301
12045W        W28892   1.951   7.946  15.962 -0.0985  0.1016  0.2490
12046W        W28893   1.191  18.330   5.031  0.1769  0.1801 -0.1815
12047W        W28894   2.518  13.678  13.115 -0.2228 -0.1177 -0.0121
12048W        W28895  11.378   0.287  11.227  0.3065  0.3300  0.0418
12049W        W28896   6.467  15.586  14.186  0.1215 -0.1987 -0.4120
12050W        W28897   0.729  10.200   5.089 -0.1802 -0.0646  0.2030
12051W        W28898  10.493   7.550  13.758 -0.2398  0.0666  0.1770
12052W        W28899  16.410   6.443  10.609 -0.2384  0.1514 -0.0036
12053W        W28900  11.882   3.025   2.025  0.1621 -0.0360 -0.0680
12054W        W28901  12.510   7.937  12.453  0.1084 -0.1091  0.0112
12055W        W28902   7.400   6.729  13.201  0.0411 -0.2076 -0.2174
12056W        W28903  18.043  10.560  14.923  0.0818  0.0105 -0.1755
12057W        W28904   1.196   5.219  14.577 -0.0208  0.0355  0.2250
12058W        W28905   2.348   5.674  15.370  0.3142  0.1044 -0.0486
12059W        W28906   6.831   7.824   0.188  0.2433  0.1338 -0.1929
12060W        W28907   1.109  16.017   0.262  0.0703  0.1367 -0.1548
12061W        W28908   5.582  17.159   5.462 -0.0553 -0.0711  0.3803
12062W        W28909  13.379   5.916   1.075 -0.1051 -0.2458  0.1004
12063W        W28910   2.526  14.434  11.565 -0.0517  0.0334  0.0040
12064W        W28911  17.975  15.056  11.664 -0.3032  0.0644  0.0428
12065W        W28912   3.013  13.913  12.718  0.0308 -0.0091  0.0858
12066W        W28913   4.588   4.298  10.817  0.2768  0.1335  0.1346
12067W        W28914   1.978   1.610   0.714 -0.2469  0.2366  0.1742
12068W        W28915   8.027  17.590   4.461  0.1598 -0.0979 -0.0114
12069W        W28916   6.414   4.137   1.100 -0.1382 -0.1278  0.0220
12070W        W28917  18.274   8.146   4.209  0.1667  0.0456  0.2923
12071W        W28918   9.299   5.422   0.411 -0.0879 -0.0584 -0.0153
12072W        W28919  10.769   4.504  15.421  0.0612 -0.0424 -0.0095
12073W        W28920   8.187  17.651   2.157  0.2249  0.1160 -0.3368
12074W        W28921   6.440  18.130  11.319  0.2338  0.3871  0.0237
12075W        W28922   0.590  15.971  15.298  0.3760  0.0349  0.3191
12076W        W28923  18.323   0.226  14.569 -0.0285 -0.3057  0.2737
12077W        W28924  16.216   0.854  14.264 -0.0159  0.4233  0.1313
12078W        W28925   8.937  17.031   1.905  0.2283  0.0053  0.1701
12079W        W28926   4.090   8.194  14.233  0.0581 -0.0871  0.0059
12080W        W28927   1.343  12.636   5.441  0.1960  0.0849 -0.1692
12081W        W28928   4.137  17.306   3.715  0.1031  0.1532  0.1810
12082W        W28929  18.063   2.864  11.363  0.0836  0.0272  0.0666
12083W        W28930  11.730  10.297   2.062 -0.0471  0.2332 -0.0593
12084W        W28931  14.471  10.572  14.386  0.1082 -0.1252 -0.1701
12085W        W28932  18.310  17.044   3.742  0.1423 -0.1612  0.2160
12086W        W28933  16.571  11.821  11.793 -0.0393 -0.0837  0.1758
12087W        W28934   6.888   3.316  13.969 -0.2134 -0.0344 -0.1691
12088W        W28935  14.292   9.895   0.577 -0.0031  0.2650 -0.1254
12089W        W28936  14.496   0.513  11.489  0.1443  0.0437  0.2090
12090W        W28937   9.218  11.581  12.444 -0.0763  0.0738 -0.0275
12091W        W28938   6.447   4.159  12.434  0.0638  0.1083 -0.1651
12092W        W28939   2.327   0.077   2.000  0.2051  0.2720 -0.0373
12093W        W28940  17.983  12.282  14.507  0.1952  0.1120  0.2454
12094W        W28941  15.000  12.053   4.327  0.1303 -0.1894 -0.1945
12095W        W28942  14.708   2.881  16.152 -0.0018  0.1286  0.0748
12096W        W28943  14.705  16.494   1.201 -0.0560 -0.0399  0.0236
12097W        W28944   8.654   4.045   4.406  0.0578 -0.2720  0.0679
12098W        W28945   6.606  17.594   1.232  0.0439  0.2839 -0.1252
12099W        W28946   7.496   6.687   5.657  0.2098 -0.0199  0.3374
12100W        W28947   5.758   8.710   3.446 -0.0904 -0.2858  0.0001
12101W        W28948  17.066   2.423   3.068 -0.3516  0.0587  0.0901
12102W        W28949   2.938  11.234  15.518  0.4030  0.0283 -0.0825
12103W        W28950  18.058   1.071   1.339 -0.0028 -0.2363 -0.0077
12104W        W28951  11.665   8.278   0.567 -0.0687 -0.1286 -0.1040
12105W        W28952  11.400   8.657   0.795  0.1453 -0.1724  0.3026
12106W        W28953  13.729  13.904   1.141  0.2190  0.1953 -0.1366
12107W        W28954  14.537  10.395   2.549  0.0635  0.1583 -0.0485
12108W        W28955   1.234   3.772   2.981 -0.1108  0.0493  0.0416
12109W        W28956  13.913  18.077   3.015 -0.1211 -0.0069  0.0190
12110W        W28957   2.372   3.918   0.543  0.0307  0.0757 -0.1928
12111W        W28958   7.080   1.250  14.978  0.0189 -0.3236  0.0375
12112W        W28959  14.267   5.525  15.458 -0.0533  0.4205  0.2643
12113W        W28960  10.794  17.078   2.042 -0.1577  0.0842 -0.0424
12114W        W28961  11.734  10.416   3.209 -0.4449  0.0739  0.4388
12115W        W28962   0.807  16.392   0.462 -0.1300 -0.2820  0.2145
12116W        W28963   4.928  16.985   4.953  0.2275 -0.2599 -0.1857
12117W        W28964   8.990  14.630   4.666 -0.0387  0.0514 -0.0349
12118W        W28965   6.024   7.914  14.455 -0.0017 -0.0203 -0.0013
12119W        W28966  17.584  13.296  12.610  0.1308  0.2149  0.0711
12120W        W28967  13.250   7.994   1.887  0.1354 -0.0513 -0.6877
12121W        W28968  11.032   9.994  12.275  0.0545 -0.1139  0.2301
12122W        W28969  15.993  15.684   1.065  0.0141  0.0838  0.0883
12123W        W28970   4.494   6.120  15.224 -0.1376 -0.0626  0.0479
12124W        W28971   5.850  11.782  15.169 -0.0781 -0.0686  0.1273
12125W        W28972  17.317  12.413   3.158 -0.0470 -0.1264  0.0376
12126W        W28973   1.906   0.775  13.921 -0.0220 -0.0452 -0.0208
12127W        W28974   1.090   3.692  15.891  0.1697  0.1393  0.0109
12128W        W28975  15.992  17.523   0.610  0.0850  0.2870 -0.1466
12129W        W28976  15.071   5.979  11.703 -0.0126  0.1597  0.1530
12130W        W28977   4.353   0.822   4.484  0.0489 -0.1601  0.0371
12131W        W28978  17.008  14.470   4.714 -0.1414 -0.0055 -0.0440
12132W        W28979  11.533   5.291  11.778 -0.1804 -0.3088 -0.2214
12133W        W28980   5.593   3.735  11.987  0.1910 -0.0398 -0.0588
12134W        W28981   6.114  12.086  14.250 -0.0920 -0.0732  0.2480
12135W        W28982  18.009   3.308   3.535  0.1756  0.0722 -0.0245
12136W        W28983  10.943  15.886   4.377  0.1666 -0.2912  0.1912
12137W        W28984   1.037   5.207  13.080 -0.0013 -0.1079 -0.1331
12138W        W28985   5.042   8.700  11.295 -0.1362  0.1367  0.0764
12139W        W28986  16.720  12.867  11.442  0.0879  0.1141  0.0554
12140W        W28987  12.538   8.993  11.485 -0.0979  0.2726  0.0086
12141W        W28988   6.363   9.402  13.779  0.0810  0.3686 -0.0948
12142W        W28989   4.084   4.542  16.051 -0.0596 -0.1652 -0.1345
12143W        W28990  13.068  14.209   2.700  0.1680 -0.0908  0.0342
12144W        W28991  18.004   4.007  12.297  0.0148 -0.4139 -0.1116
12145W        W28992   0.394  11.045   2.223 -0.2485  0.2870  0.0756
12146W        W28993   2.170  17.143  11.535  0.2186  0.3799 -0.1320
12147W        W28994  12.714  10.662   3.364  0.0450  0.1529  0.3288
12148W        W28995   8.018   9.691  14.793 -0.2609  0.0844 -0.0326
12149W        W28996   6.163   3.510  13.260  0.1407 -0.0415  0.1138
12150W        W28997   6.044   2.965   3.516  0.0151  0.1044  0.1121
12151W        W28998   1.222  17.039  16.134  0.1452 -0.2921  0.0524
12152W        W28999   0.962   4.581  12.265  0.0639  0.0950  0.0858
12153W        W29000  13.607   0.207  11.547 -0.0673 -0.0504  0.0098
12154W        W29001  17.459   4.527  14.030  0.0226 -0.2518 -0.1495
12155W        W29002   6.518  17.883  12.267  0.1296 -0.1520  0.1640
12156W        W29003  14.519   8.587  12.377  0.2246 -0.0248  0.1748
12157W        W29004  11.427   9.284  12.723  0.1853 -0.1802  0.1858
12158W        W29005  13.557  15.746  12.561  0.0501 -0.0153 -0.1454
12159W        W29006  12.850   4.264   3.124 -0.0344 -0.0487 -0.3035
12160W        W29007   2.152  17.143  15.674 -0.2536 -0.5978  0.3476
12161W        W29008   9.422   1.563  13.286 -0.2855  0.1977  0.0346
12162W        W29009   7.248  15.707   5.470  0.2467 -0.1199 -0.1053
12163W        W29010   8.084  16.731   5.300  0.1504  0.1030  0.2881
12164W        W29011  15.059  17.262   3.688 -0.4891  0.0957  0.2323
12165W        W29012  10.707  16.489   5.353 -0.1476  0.2272  0.1580
12166W        W29013  12.630   7.052  11.178 -0.0660 -0.3792 -0.2468
12167W        W29014   4.750  15.525  11.697 -0.2838 -0.0020 -0.3563
12168W        W29015   0.457   5.811  14.856  0.2352 -0.2135 -0.2817
12169W        W29016  13.153  17.934  15.109 -0.0530  0.4474  0.1039
12170W        W29017  14.065   8.394  10.959 -0.0967  0.3599 -0.0385
12171W        W29018  14.072  12.731   2.589 -0.0789 -0.0443 -0.1465
12172W        W29019   2.269  10.987   4.783  0.1564  0.0493 -0.2011
12173W        W29020   2.647   6.793   1.792  0.2662 -0.1783  0.0185
12174W        W29021   4.213  17.430  13.811 -0.0788  0.0627 -0.1678
12175W        W29022   5.488   0.068  15.812 -0.0313 -0.1436 -0.0910
12176W        W29023   4.645  16.161  11.514  0.2021 -0.0707  0.3303
12177W        W29024   3.119  17.090   1.736  0.0812  0.2302  0.2516
12178W        W29025  11.378   9.374   0.378 -0.1791 -0.2075  0.1972
12179W        W29026   9.493   5.876   0.644 -0.1551  0.1985 -0.0429
12180W        W29027  11.547  10.063   0.711 -0.2785  0.1354  0.0603
12181W        W29028  14.023   2.899  13.174  0.1055  0.0098  0.0424
12182W        W29029   2.416   8.515  14.452 -0.0371 -0.1307  0.2066
12183W        W29030   7.483   7.288   4.264  0.0732 -0.3131 -0.0411
12184W        W29031   5.134  14.422   1.441 -0.1107 -0.0591 -0.1749
12185W        W29032  14.508   9.849   4.550  0.0293  0.2108  0.2921
12186W        W29033  12.483  18.196   1.221 -0.0230 -0.0623  0.3293
12187W        W29034   8.569  10.825   3.658  0.0040  0.0794  0.1921
12188W        W29035   6.739  10.720   2.800 -0.2051 -0.0892  0.0728
12189W        W29036  14.060   5.953   5.682  0.1086  0.0846  0.0589
12190W        W29037   7.704  12.633   2.381  0.0769  0.0863  0.0657
12191W        W29038   2.828  14.972  13.536 -0.2026 -0.3416  0.2342
12192W        W29039  11.467  15.167   1.498  0.0440  0.3662  0.2708
12193W        W29040  11.857  10.772  15.443 -0.0517  0.2342  0.0572
12194W        W29041  15.008  11.329   1.147  0.1478 -0.1622  0.0789
12195W        W29042   9.355   9.350  15.447 -0.1226 -0.0637 -0.2633
12196W        W29043   7.690  11.288   3.351  0.0277 -0.0654  0.1310
12197W        W29044  10.810  10.276   4.538  0.0581  0.1154  0.3603
12198W        W29045   3.882   4.156  10.335 -0.0817  0.0240 -0.1661
12199W        W29046   6.348  10.404   5.381  0.0773  0.1276  0.1754
12200W        W29047  14.738  15.525  13.241 -0.3570  0.2422  0.2452
12201W        W29048   7.702   9.372   3.280 -0.0417  0.3860 -0.0177
12202W        W29049  11.029   3.797   5.109 -0.0420  0.0269  0.1022
12203W        W29050  13.046   7.693  12.765  0.1887 -0.3299  0.0690
12204W        W29051   1.254  11.122   6.098 -0.1257 -0.0427  0.2631
12205W        W29052  12.212  17.337   0.200 -0.1729  0.1211  0.1896
12206W        W29053  10.137  15.283   0.408 -0.1164 -0.2610  0.0990
12207W        W29054   2.152  15.323   5.532 -0.0150 -0.0455 -0.0497
12208W        W29055   7.564  11.249  12.891 -0.1688 -0.0188  0.3624
12209W        W29056  16.470   9.595  12.862 -0.1709 -0.2230  0.1093
12210W        W29057   7.810   7.981   4.783 -0.0379  0.0150  0.3271
12211W        W29058   9.187   1.547  13.937 -0.0082 -0.0803 -0.1299
12212W        W29059  16.140   0.474   4.820 -0.0775 -0.0279  0.2133
12213W        W29060   8.641   0.903   5.344  0.1914  0.0286 -0.1211
12214W        W29061  14.590   9.704  13.207  0.0381 -0.2143  0.0244
12215W        W29062  11.316   4.978   0.198 -0.0102  0.3201  0.1675
12216W        W29063  11.951   8.716   5.140 -0.2667 -0.0210 -0.1526
12217W        W29064   0.316   1.256   3.537  0.0324 -0.0291  0.1140
12218W        W29065  14.395   0.690  11.985 -0.0571  0.1468  0.1422
12219W        W29066   1.631   0.199   2.928 -0.2213 -0.2204 -0.1980
12220W        W29067   2.104   0.245  14.558  0.1875  0.2747 -0.1339
12221W        W29068   5.062  12.436  11.940  0.0019  0.1378 -0.0074
12222W        W29069   5.766  13.019  14.135  0.3611  0.1255  0.1149
12223W        W29070  12.946   9.590   9.918  0.0483 -0.0237  0.0949
12224W        W29071   7.742   6.920   5.191  0.0349 -0.0317  0.0999
12225W        W29072  15.478  16.204  15.941 -0.2947  0.0435  0.0345
12226W        W29073  18.214  12.301   3.036 -0.0979 -0.2586 -0.0938
12227W        W29074   3.644   8.497   1.136  0.0861 -0.1360  0.1934
12228W        W29075   0.023   1.436  13.048  0.2090  0.0083  0.0278
12229W        W29076   0.909  14.650   4.460 -0.1348  0.2383  0.0828
12230W        W29077   5.230   1.921   5.350  0.3661  0.1470 -0.0023
12231W        W29078  14.104  16.849   5.388 -0.0523 -0.1768  0.0539
12232W        W29079   1.984  11.132  11.869 -0.1119 -0.1270 -0.1949
12233W        W29080   2.385   4.313  14.063  0.5630 -0.1139 -0.1499
12234W        W29081  13.512   0.805   4.531  0.0582 -0.0947 -0.0013
12235W        W29082  12.502   1.836   0.162 -0.3173  0.2935  0.0989
12236W        W29083  13.327  10.919  11.887  0.0258  0.0462 -0.0823
12237W        W29084  12.545   4.662  13.245 -0.2083 -0.2166  0.0628
12238W        W29085  13.165   4.401   0.008 -0.3778 -0.0064 -0.1271
12239W        W29086   3.603  10.892   2.771 -0.0655  0.1145 -0.4600
12240W        W29087  15.501  16.316   3.202 -0.0175 -0.2389  0.2201
12241W        W29088   6.068  11.129   2.909  0.0260  0.1790 -0.0834
12242W        W29089  17.261   7.524  14.719 -0.1387 -0.2255 -0.0879
12243W        W29090   1.251  12.623   3.861  0.1147  0.2275 -0.0596
12244W        W29091   6.998   6.532  12.083 -0.1033 -0.0148  0.0178
12245W        W29092  11.660  11.355  16.130  0.0225 -0.3162  0.2945
12246W        W29093  12.246  17.119   2.807  0.2115 -0.0836 -0.1415
12247W        W29094  15.210   5.154  11.150 -0.0933 -0.1358  0.0504
12248W        W29095   8.406  12.725  15.697 -0.1625  0.2056 -0.0398
12249W        W29096   6.360  13.187  13.462  0.1296 -0.0257 -0.4854
12250W        W29097  17.797   8.803   0.950  0.1486  0.2426 -0.2489
12251W        W29098   2.685  13.339   5.434  0.0943 -0.2099  0.1849
12252W        W29099  15.788  13.911   5.980 -0.1559  0.2119 -0.2877
12253W        W29100   5.690  16.949   1.582 -0.2578 -0.4448  0.0950
12254W        W29101  18.055  14.101  11.384  0.1990 -0.0593  0.0133
12255W        W29102   5.580   3.626   0.259  0.0404 -0.0104  0.0863
12256W        W29103  15.882  16.574  11.989 -0.0429  0.0786  0.3517
12257W        W29104   8.770   7.989  13.124  0.1069 -0.1827 -0.0445
12258W        W29105   3.099  10.848  15.198 -0.1284 -0.2769 -0.1042
12259W        W29106  11.335   4.467   4.289 -0.3386  0.0536  0.0303
12260W        W29107   6.995  14.927  16.083  0.0727 -0.0532  0.0999
12261W        W29108   3.440   4.903  15.776 -0.0408  0.0677 -0.0976
12262W        W29109  10.106   7.195  12.158 -0.2027  0.3009 -0.0583
12263W        W29110  13.447   2.546  15.669  0.1396  0.1274 -0.1929
12264W        W29111   5.541  14.964   4.310  0.0379 -0.0300 -0.0295
12265W        W29112  15.773   5.462   4.644  0.0955 -0.4341  0.3597
12266W        W29113   5.938  10.013  12.023 -0.1898  0.0879 -0.1105
12267W        W29114  12.111  15.092  15.557  0.1273  0.0884  0.1168
12268W        W29115   7.116   2.929  12.475 -0.2082 -0.0016 -0.0988
12269W        W29116   9.441  15.525   1.134 -0.1615 -0.1643  0.0296
12270W        W29117   8.887   5.593   1.232 -0.1949 -0.2087 -0.0493
12271W        W29118   0.893   3.884   4.146  0.2283  0.0931 -0.1681
12272W        W29119   9.716  10.258   1.296 -0.2197  0.0312 -0.0626
12273W        W29120   5.502  11.307  16.083  0.1005  0.1798 -0.1507
12274W        W29121   8.831   9.071  15.644 -0.3615 -0.0371 -0.1388
12275W        W29122   4.255   1.989   0.177 -0.0889 -0.2006  0.0516
12276W        W29123  15.609  15.501  12.707  0.0880  0.3580 -0.2906
12277W        W29124   6.561  15.021  11.714  0.0924 -0.3097 -0.0740
12278W        W29125   1.304   5.360   0.193 -0.1350 -0.0893 -0.0215
12279W        W29126   9.726   5.731   1.496  0.1600 -0.0323  0.1717
12280W        W29127   8.963  11.793   5.087 -0.0011  0.0692 -0.1607
12281W        W29128  18.257   9.989  14.934  0.1012 -0.0167  0.2445
12282W        W29129   1.842   0.359   1.290  0.0286  0.7351 -0.2185
12283W        W29130  11.979   9.890   0.025 -0.0433  0.2245  0.1754
12284W        W29131  17.968  17.822  14.065  0.2089 -0.0687  0.0490
12285W        W29132   3.829  17.619   1.535  0.4132  0.3647 -0.4186
12286W        W29133  12.168   7.800  16.031  0.0828  0.0621 -0.3164
12287W        W29134  13.206   7.746   3.154 -0.0980 -0.0893  0.0382
12288W        W29135  10.279   1.235   3.596 -0.1980 -0.2078  0.1734
12289W        W29136   2.271  10.372  14.149 -0.1676 -0.3161  0.0562
12290W        W29137  14.497   1.674   4.946  0.0172 -0.3174  0.4963
12291W        W29138   3.503  15.568  13.079  0.0212 -0.0431  0.1097
12292W        W29139   6.423  12.430  12.364  0.2414 -0.3107  0.1497
12293W        W29140   4.069  11.758  14.728  0.2507 -0.3599 -0.0273
12294W        W29141   5.092   8.666  13.984  0.1006 -0.1238  0.0310
12295W        W29142  16.934  11.874  15.782 -0.0044  0.1059  0.1570
12296W        W29143   7.710  10.299   1.270 -0.2717  0.0487 -0.4526
12297W        W29144   6.620  14.403   1.942  0.0065  0.2366 -0.1401
12298W        W29145   9.479   3.639   5.033 -0.0731  0.2654  0.2509
12299W        W29146   4.998  13.372  13.682  0.2692  0.1460 -0.1346
12300W        W29147   7.622   7.958  12.376  0.3865 -0.0910  0.2156
12301W        W29148  16.417   3.409  12.169 -0.1683 -0.1038  0.0281
12302W        W29149   0.287   9.740  13.871 -0.0958  0.1596  0.4026
12303W        W29150   8.830  17.887   6.050 -0.2556  0.0113 -0.1296
12304W        W29151  11.633  16.840  14.967 -0.0888  0.0318  0.0764
12305W        W29152  14.939   8.782   0.827  0.1124 -0.0138 -0.2550
12306W        W29153  10.142  14.145   1.750 -0.1395 -0.1049 -0.2175
12307W        W29154  12.134   4.064  16.007 -0.1186 -0.4140  0.0983
12308W        W29155   8.229   4.455  12.234 -0.3701  0.1833  0.1621
12309W        W29156  16.628   1.609   5.803 -0.1581  0.1453 -0.0654
12310W        W29157  10.710  15.534  15.042  0.1422 -0.0267  0.0877
12311W        W29158   3.715   1.665  12.370 -0.1171  0.0689 -0.2138
12312W        W29159   8.262   0.463   1.720  0.2227 -0.0825  0.2864
12313W        W29160   9.069   9.363  11.381 -0.1005 -0.3271 -0.0547
12314W        W29161   6.301  14.105   6.113  0.2315  0.2308 -0.0447
12315W        W29162  14.861   7.139   3.150  0.0953 -0.1521  0.0924
12316W        W29163   5.739   3.628   1.434  0.0482  0.1194 -0.3374
12317W        W29164   8.229   0.524  15.353  0.3042  0.0188  0.1173
12318W        W29165   6.512   4.896  15.995 -0.0311 -0.0517  0.1408
12319W        W29166   9.573   1.901   1.997 -0.1457 -0.3231 -0.2656
12320W        W29167   1.155   9.079  11.836 -0.0609 -0.1665 -0.4058
12321W        W29168  11.723   6.306   3.076 -0.1148 -0.0178 -0.0110
12322W        W29169   2.592   6.226   3.596  0.2800 -0.0385 -0.1168
12323W        W29170   1.114  16.488   1.163 -0.0155 -0.6170  0.1209
12324W        W29171  13.810  10.523  14.215  0.0520  0.3855  0.0873
12325W        W29172   0.979   3.537   0.466 -0.3867 -0.2396  0.2590
12326W        W29173   1.711  12.847   3.949 -0.2302 -0.1292 -0.0369
12327W        W29174   6.693  10.873   2.313  0.1544 -0.0266 -0.1761
12328W        W29175  12.081  12.924  13.167  0.0025 -0.0246 -0.0514
12329W        W29176   0.519   4.321  12.208  0.0139  0.2614 -0.0132
12330W        W29177   9.298   6.773  14.475  0.1152  0.1872  0.1303
12331W        W29178  14.062   4.087  15.909  0.2318  0.0199  0.0837
12332W        W29179  16.078   8.011   0.536 -0.0222  0.1510  0.0220
12333W        W29180   2.792  15.420  13.819 -0.2029  0.0067 -0.0043
12334W        W29181  13.152  14.142  12.864  0.0479 -0.3258  0.0033
12335W        W29182  13.645  18.254  12.373  0.0930  0.1652 -0.0548
12336W        W29183   8.839  10.910  15.400  0.1337 -0.0333 -0.3160
12337W        W29184   5.081  15.872  13.053 -0.0442  0.0931  0.2350
12338W        W29185  12.707   4.391  12.714 -0.2749 -0.0648  0.3439
12339W        W29186  17.071   3.092   2.554  0.1538  0.0672  0.0892
12340W        W29187  15.942   6.275  10.415 -0.0769  0.4194 -0.2344
12341W        W29188   5.652  13.871   1.287 -0.1133  0.0797  0.1059
12342W        W29189   7.607   4.013   0.069  0.1373  0.2475  0.1386
12343W        W29190  13.893   1.048  10.472  0.1421 -0.0466  0.0817
12344W        W29191   3.718  17.829   5.398 -0.0416 -0.1001 -0.0784
12345W        W29192  14.028   5.749  12.881 -0.2019  0.1724 -0.0933
12346W        W29193   6.911   9.452  13.465  0.2176  0.0298  0.1309
12347W        W29194  12.908   2.787   3.570 -0.3101  0.1003 -0.3807
12348W        W29195   4.842   1.328   0.976  0.1182  0.1015  0.1988
12349W        W29196   2.679  11.062   0.350  0.1332  0.3217 -0.0543
12350W        W29197  18.144   6.053   4.043 -0.1437  0.2594 -0.1793
12351W        W29198   6.833  16.100  12.120 -0.3715 -0.1330 -0.2108
12352W        W29199   0.078  14.898  15.337 -0.1524  0.2145  0.3234
12353W        W29200  11.670  11.175   5.647 -0.2054  0.2875 -0.1960
12354W        W29201  12.209   4.409   4.886 -0.3158 -0.1132 -0.0067
12355W        W29202  10.839   9.646  15.206 -0.3326  0.1672 -0.1023
12356W        W29203   6.130   9.542   1.142  0.1040  0.0734 -0.1981
12357W        W29204  11.957  16.608   3.783  0.1391 -0.0532  0.0264
12358W        W29205   0.487  13.805   6.303 -0.0751  0.3190  0.2257
12359W        W29206   8.048   2.346  12.456  0.1132  0.1211  0.0927
12360W        W29207  16.419  12.541   4.148  0.1950  0.0722  0.0553
12361W        W29208   4.979  14.455  12.019  0.0220 -0.1705  0.0845
12362W        W29209  16.994   2.183  11.977 -0.2707 -0.2149 -0.1576
12363W        W29210  16.226   9.342   1.054 -0.1584 -0.1392 -0.0434
12364W        W29211  13.930   7.741  15.257  0.2124  0.2247  0.1182
12365W        W29212   7.391   1.238   4.680 -0.1144  0.0812 -0.0486
12366W        W29213  13.527  12.811  12.561  0.0122 -0.0120  0.1904
12367W        W29214  16.036  13.437  11.506 -0.2844 -0.2458 -0.1864
12368W        W29215  18.319  17.668  13.691  0.0592 -0.0206 -0.2829
12369W        W29216   7.574  10.435  14.197  0.3401 -0.2804  0.1729
12370W        W29217   9.192   2.497  15.237 -0.1798 -0.2940 -0.2231
12371W        W29218   8.825  12.274   3.211 -0.0187  0.0888  0.2630
12372W        W29219   7.232   1.605  12.090 -0.0198 -0.1216  0.0238
12373W        W29220   7.108  16.976   0.725  0.0817 -0.0471  0.0113
12374W        W29221  15.034   4.949  12.520 -0.1145  0.3321 -0.2734
12375W        W29222   6.947  16.951  13.506 -0.0632 -0.0156 -0.0028
12376W        W29223   6.106   9.057  12.599  0.1036  0.0030 -0.7903
12377W        W29224   8.892  13.473   3.179  0.0994  0.1143 -0.0895
12378W        W29225  11.834   6.077   5.837 -0.2457 -0.0250 -0.0879
12379W        W29226  11.927  15.791  12.231  0.3935 -0.1228  0.1350
12380W        W29227   6.102   8.594   4.227 -0.1330  0.0965 -0.0721
12381W        W29228  15.331   8.983   2.015  0.0432  0.0404 -0.4503
12382W        W29229   4.061  14.346  13.394 -0.2792 -0.1145 -0.1739
12383W        W29230  11.279  10.934   5.220  0.1463  0.1302 -0.3365
12384W        W29231  17.679   4.301   2.072  0.1214 -0.0034  0.2813
12385W        W29232  10.477  12.321   4.075  0.1266 -0.3336 -0.1005
12386W        W29233  12.067  17.840   2.129  0.1156  0.0115 -0.0058
12387W        W29234   3.863   1.467   0.831  0.0853 -0.0049 -0.3638
12388W        W29235   4.907  16.226   2.309  0.0005  0.4325  0.2735
12389W        W29236  10.076   1.972   3.378  0.1899  0.1903 -0.0852
12390W        W29237   5.574   4.131  14.324 -0.0310 -0.1443  0.0628
12391W        W29238   3.462   0.696  14.573  0.0507  0.1237 -0.1272
12392W        W29239  16.752  18.011  15.123 -0.2334  0.0240 -0.1974
12393W        W29240   9.989   2.033  14.796 -0.0462  0.0527 -0.0494
12394W        W29241  17.436   1.328  15.470  0.3955  0.0402 -0.1779
12395W        W29242   2.120  15.599  14.382 -0.1443  0.0169 -0.1104
12396W        W29243  13.081   0.040  12.476 -0.1328 -0.3333 -0.3040
12397W        W29244   6.001  15.729   4.222  0.0472 -0.0599  0.1342
12398W        W29245  17.570   3.083   2.592 -0.1869  0.2465 -0.1725
12399W        W29246  17.216   6.780   3.768 -0.4403  0.0406  0.0400
12400W        W29247   0.008   6.082  12.738 -0.1750 -0.1137 -0.0692
12401W        W29248  11.334   1.896   4.117  0.0568  0.0593  0.1720
12402W        W29249   3.278  15.327   2.453  0.2863  0.0020 -0.6194
12403W        W29250   9.798  15.442   0.074  0.1208 -0.3079 -0.1108
12404W        W29251   2.122   3.232  13.136  0.1449 -0.1958  0.1379
12405W        W29252  16.250   5.772   3.697 -0.0987 -0.1777  0.0473
12406W        W29253  10.166   5.617   1.374 -0.0574 -0.1471  0.1982
12407W        W29254  10.473  13.681   0.149 -0.1231  0.0008 -0.0503
12408W        W29255  10.495  12.583   6.121  0.1734  0.0621  0.1063
12409W        W29256  10.666   4.565   3.743  0.2760 -0.2712 -0.0204
12410W        W29257   3.770  11.786  11.477 -0.1227  0.1095  0.0562
12411W        W29258   6.776  17.413  13.735  0.1455  0.3006  0.1666
12412W        W29259  18.210  12.169   3.950 -0.0261  0.1452  0.0858
12413W        W29260  12.073  13.000   3.330  0.0140  0.0278  0.0370
12414W        W29261  10.005   4.960   1.508 -0.1740 -0.2248 -0.4715
12415W        W29262   0.239   8.612   4.140 -0.1509  0.0454 -0.2309
12416W        W29263   4.282  10.160   1.786  0.4357  0.2649  0.0269
12417W        W29264   3.879  17.470  15.500 -0.0702 -0.1647 -0.1346
12418W        W29265   4.835  17.267  12.573  0.0071  0.0648 -0.2052
12419W        W29266   6.265  16.394  13.150  0.1875  0.5463  0.3897
12420W        W29267   3.056   5.406   0.739 -0.1643  0.0865  0.0457
12421W        W29268  10.956  15.367  13.712 -0.0027 -0.0415 -0.0622
12422W        W29269  10.253  15.828  14.286  0.1546 -0.3523 -0.0902
12423W        W29270  16.744  18.149   4.926 -0.1790 -0.0495  0.0796
12424W        W29271  14.656  11.844  14.178 -0.0172 -0.0780 -0.1165
12425W        W29272   4.070   1.824   3.621 -0.1106  0.3471  0.1167
12426W        W29273   9.766   8.815   1.817  0.0550  0.0996 -0.1058
12427W        W29274   9.925  13.677   1.484 -0.2070 -0.0491 -0.0093
12428W        W29275  11.315   6.913  15.423 -0.4008 -0.0728 -0.0427
12429W        W29276  14.431   9.614  15.184 -0.2625  0.0569 -0.0115
12430W        W29277  11.096   8.405  13.472  0.2694  0.0876 -0.0364
12431W        W29278   5.626   1.781   4.043 -0.0713 -0.1237  0.0005
12432W        W29279  15.007   7.852  15.074 -0.1474 -0.0743 -0.2403
12433W        W29280   2.770   0.490   5.421  0.1982  0.0472 -0.1446
12434W        W29281   7.877  12.331   3.617  0.0093  0.1231  0.0144
12435W        W29282  10.764   4.730   2.541  0.1022  0.1564 -0.1859
12436W        W29283  10.098  14.568  15.842 -0.0083  0.3152 -0.0191
12437W        W29284  14.958  11.816   1.230  0.1734  0.1072 -0.0285
12438W        W29285   5.901   8.106  15.542 -0.0955  0.2642 -0.1589
12439W        W29286  15.001   8.636   4.552  0.0068 -0.0413 -0.0497
12440W        W29287   3.994  12.991  12.330 -0.1410 -0.2432  0.1032
12441W        W29288  13.785  15.388  14.053 -0.1228  0.2296 -0.1547
12442W        W29289   7.979   8.080   3.563  0.0743  0.1125  0.1210
12443W        W29290  17.998  13.497   3.776  0.0915 -0.0269 -0.0596
12444W        W29291   0.900   1.165   2.316 -0.2947 -0.3117  0.0545
12445W        W29292   8.730   9.694  15.889 -0.0098  0.0409 -0.0830
12446W        W29293  18.325   8.098  15.347 -0.2905  0.0604  0.1852
12447W        W29294   9.513  17.497  13.165 -0.1927  0.1725  0.2634
12448W        W29295  15.342   0.379   4.829 -0.2216 -0.1835  0.1490
12449W        W29296   2.976   9.511   1.838  0.1922  0.0802  0.0202
12450W        W29297   3.863  14.512  15.848 -0.5236  0.3892  0.0387
12451W        W29298  10.398  14.547   2.917 -0.0691 -0.0895  0.0041
12452W        W29299   8.243   6.352  14.772  0.0961  0.3025  0.3018
12453W        W29300  15.377  18.148  10.269  0.1014  0.1029 -0.0925
12454W        W29301  12.350  10.045  11.929 -0.0649  0.2736 -0.4424
12455W        W29302   2.276   3.060   0.821 -0.1362 -0.3227  0.0554
12456W        W29303  13.283  10.784   0.837 -0.1131  0.1441  0.0359
12457W        W29304  13.986  10.921   5.505  0.3514  0.2151 -0.0474
12458W        W29305   6.153   3.881   3.538  0.2587 -0.1203 -0.2110
12459W        W29306  13.021   5.959   9.745  0.2124  0.0449  0.0159
12460W        W29307   3.980  11.147   3.200  0.0055  0.2694 -0.0939
12461W        W29308   5.802   6.220  15.598  0.2202  0.1750 -0.2498
12462W        W29309   2.495  14.002   1.224  0.1324 -0.0478 -0.1388
12463W        W29310   6.089   7.116   3.848 -0.1601  0.0340  0.2404
12464W        W29311  11.021   0.482   0.445  0.1457 -0.0186 -0.1641
12465W        W29312   1.557   6.032   1.031  0.0723 -0.0084 -0.2080
12466W        W29313  13.357   7.717  12.361 -0.1428 -0.0854  0.0198
12467W        W29314  14.408   9.770   1.533 -0.0905  0.0879 -0.0978
12468W        W29315   2.915   3.318  16.102  0.0704 -0.0203 -0.1786
12469W        W29316   3.189   2.018   1.993 -0.0143 -0.2558 -0.0653
12470W        W29317   2.577   0.044  11.166 -0.2035 -0.0922  0.1330
12471W        W29318   0.685   2.566  12.513 -0.1941  0.0852 -0.2973
12472W        W29319  17.337  14.700  12.905 -0.4844  0.0958  0.1206
12473W        W29320   4.966   4.064  14.124  0.1439  0.0010 -0.1290
12474W        W29321  15.990  15.501   2.445 -0.0840  0.0906  0.1497
12475W        W29322  11.666  12.694  15.492 -0.1554 -0.1313  0.1375
12476W        W29323  16.058   1.355   4.670  0.3194  0.0178  0.1533
12477W        W29324  12.581  16.404   1.737 -0.0216  0.1570  0.2905
12478W        W29325  13.203   4.013   9.662 -0.0863 -0.1454 -0.1587
12479W        W29326   7.514  13.173   3.465 -0.0103  0.0040 -0.1290
12480W        W29327  13.586   3.770  10.780  0.1932  0.0019 -0.0421
12481W        W29328  15.434   1.245  14.204 -0.1166  0.0049  0.1495
12482W        W29329  13.032  16.907   4.535  0.5168  0.2386 -0.1272
12483W        W29330  10.061   5.138  13.612  0.0952  0.0706 -0.2036
12484W        W29331   5.962  11.160   0.291  0.1484  0.0320 -0.1279
12485W        W29332   8.627  17.957   0.439 -0.0607  0.0244  0.1276
12486W        W29333  18.049  17.785   3.464  0.0806  0.1385 -0.2678
12487W        W29334   7.694   8.680  15.806  0.0462  0.0534  0.1913
12488W        W29335   2.654  17.261   1.772 -0.0402 -0.1875  0.0951
12489W        W29336  10.155  10.843   5.813 -0.2921  0.0259  0.2109
12490W        W29337   3.712  11.197   6.105 -0.0785  0.0782  0.1430
12491W        W29338  15.533   1.817   2.931 -0.1390 -0.2520  0.2504
12492W        W29339  10.642   6.920   3.785  0.0649 -0.0307  0.2295
12493W        W29340   9.839  11.004  13.351  0.1035 -0.0040 -0.2690
12494W        W29341   1.643  16.293   4.182 -0.1469 -0.0442 -0.0040
12495W        W29342   2.313  11.912   4.423  0.0367 -0.1608  0.1843
12496W        W29343   2.107  16.276   2.312 -0.4640  0.2066 -0.2839
12497W        W29344   1.541   6.617   1.720 -0.0665 -0.2866  0.2508
12498W        W29345  11.385   9.538  15.046  0.0721 -0.1140  0.1583
12499W        W29346   4.863  16.682  12.783 -0.1557  0.0963 -0.0467
12500W        W29347   2.568   9.353  13.378  0.2758 -0.1192  0.2079
12501W        W29348  11.889  13.382  10.778 -0.1736  0.0123 -0.1076
12502W        W29349  13.377  18.228   1.670  0.0862 -0.2363  0.1826
12503W        W29350   4.138  14.612  12.228  0.3211  0.0581 -0.1114
12504W        W29351  11.231   7.418  15.688  0.1700 -0.2859  0.0598
12505W        W29352   2.547   5.995   1.144 -0.0146 -0.2506  0.1806
12506W        W29353   0.292  12.008   1.237 -0.0648  0.2833 -0.0292
12507W        W29354  13.635  16.458  11.887  0.0930  0.0390  0.1470
12508W        W29355  17.700   0.926  12.684 -0.2109 -0.3975  0.0418
12509W        W29356   9.983   6.556   4.364 -0.2010  0.2086 -0.0744
12510W        W29357  14.354  18.119  15.057 -0.0135 -0.2182  0.2032
12511W        W29358   7.896  16.270   3.814 -0.0518 -0.1311  0.1975
12512W        W29359   9.171  16.030   1.300 -0.1345  0.0095 -0.0282
12513W        W29360  10.629   7.473   2.655  0.3663  0.0262 -0.1694
12514W        W29361  10.575   8.703  11.704  0.0972  0.0152  0.1264
12515W        W29362   6.588  14.399   0.229  0.1820 -0.0269 -0.0514
12516W        W29363  15.473   4.446  13.975 -0.1016 -0.0286  0.3268
12517W        W29364  14.661  14.544  12.037 -0.1772 -0.3277 -0.0168
12518W        W29365   7.697  18.180   0.330 -0.3074 -0.0398 -0.3166
12519W        W29366  16.632   6.812   2.453  0.0190  0.0743  0.1612
12520W        W29367  18.267   0.905   4.234  0.1178  0.2585  0.3283
12521W        W29368   1.510  11.661  16.041 -0.0974  0.1150 -0.1469
12522W        W29369   0.933  11.989   5.764 -0.0006  0.3012  0.0228
12523W        W29370   2.389   0.835   3.860  0.2388 -0.2056  0.3358
12524W        W29371  13.835  16.758  12.341 -0.2617  0.0054 -0.2825
12525W        W29372  12.626   0.988  13.278 -0.0687 -0.1921  0.2769
12526W        W29373   0.283   4.761  11.244  0.0351 -0.1514  0.0138
12527W        W29374  15.233  12.347   4.898  0.0304  0.0770 -0.2050
12528W        W29375  14.956  15.492  12.778 -0.0904  0.0699 -0.4327
12529W        W29376   6.623  16.692   1.352 -0.0602  0.2302  0.0434
12530W        W29377   4.870   0.221   3.554  0.0572  0.2149  0.0828
12531W        W29378   0.854   1.190   3.766 -0.0915 -0.4990 -0.1617
12532W        W29379   6.614   2.914   3.494  0.1071  0.3006 -0.3674
12533W        W29380  11.134  10.332   2.671 -0.2129 -0.0314 -0.1686
12534W        W29381   7.230   5.249   2.342  0.0957 -0.0863 -0.1216
12535W        W29382   5.573   4.548  14.017  0.2629 -0.1155  0.0850
12536W        W29383  14.013   5.538   1.175 -0.0499 -0.2760  0.1016
12537W        W29384   3.798   1.255  11.963 -0.1860 -0.0926 -0.3437
12538W        W29385   6.073  12.846   4.731 -0.0470 -0.2713  0.0734
12539W        W29386  13.189   3.791  12.995  0.0248 -0.1932 -0.3516
12540W        W29387  11.363   4.576  15.506  0.2006  0.1137  0.1583
12541W        W29388   0.304   3.196  14.949 -0.2723 -0.1716  0.2593
12542W        W29389  13.551  17.803   4.362  0.2444 -0.1197 -0.0525
12543W        W29390  11.863   8.956   3.212  0.2612  0.2554  0.0276
12544W        W29391  15.922  10.313  12.904  0.2255 -0.2662  0.2874
12545W        W29392   0.925  17.846   2.214 -0.1111  0.0578  0.1433
12546W        W29393   7.298   2.817   4.442 -0.0435  0.0180 -0.1837
12547W        W29394   0.921  10.080   0.230 -0.0836 -0.0428  0.1890
12548W        W29395  12.129  14.711   5.296 -0.2888 -0.0789  0.0004
12549W        W29396   0.677  11.606   0.530 -0.3566  0.2900 -0.0072
12550W        W29397  12.083   7.198   1.647 -0.1510  0.0076  0.1415
12551W        W29398  12.118   0.755  15.927 -0.0763  0.0652 -0.0607
12552W        W29399   1.126   9.325  15.200  0.2050 -0.0765  0.0093
12553W        W29400   4.324  12.310   2.611  0.2801  0.1824 -0.0475
12554W        W29401   6.062   0.116   0.202 -0.1256  0.1620  0.1988
12555W        W29402   9.780  15.706  11.807  0.0614 -0.0401  0.0228
12556W        W29403   6.735   7.691  11.402  0.0285  0.3034  0.0780
12557W        W29404   0.007   7.561  13.557 -0.1409  0.0156  0.0986
12558W        W29405   4.312   8.753   3.881  0.2434  0.0129  0.1162
12559W        W29406  14.473   5.800   0.228 -0.1076 -0.1258 -0.1476
12560W        W29407   4.801   5.955   3.360  0.0969 -0.0763  0.2267
12561W        W29408  11.707  16.802  13.680 -0.1472 -0.3916  0.1678
12562W        W29409  13.703  12.859   6.074 -0.2299 -0.3556  0.1857
12563W        W29410   5.061  13.638   6.556 -0.2181  0.2570  0.1002
12564W        W29411   7.365   7.175   5.508 -0.1636  0.3312  0.0692
12565W        W29412   3.372   6.896  14.024  0.1260 -0.0992 -0.0639
12566W        W29413   4.960   3.000   0.229  0.1161  0.0010  0.0540
12567W        W29414   8.372  11.390   1.468  0.0370  0.1126  0.3875
12568W        W29415   8.669  16.043   4.728  0.0799 -0.3087 -0.1164
12569W        W29416  16.907   9.781  11.561  0.0127 -0.3054  0.2737
12570W        W29417   2.385  14.864   4.270  0.2726 -0.0821  0.2697
12571W        W29418   7.187  10.903   5.856  0.1702 -0.1814  0.2400
12572W        W29419  13.938   3.601   4.330 -0.3411 -0.0639  0.0438
12573W        W29420  16.821   8.931  15.964 -0.0904  0.1321 -0.1413
12574W        W29421   5.089   1.620  11.083 -0.0070 -0.2465  0.2432
12575W        W29422   0.492  16.736  13.385  0.0245  0.1618 -0.3296
12576W        W29423   6.748  15.427  11.195  0.1489 -0.1738 -0.0519
12577W        W29424   0.013   8.991   2.640  0.2900  0.1000  0.2634
12578W        W29425  16.964   6.927  12.484 -0.0076 -0.1439  0.0684
12579W        W29426   6.560   5.243   0.820  0.1288  0.1370  0.0724
12580W        W29427   2.149  16.475   4.761 -0.0006  0.2459 -0.1916
12581W        W29428  16.498  11.164   2.402 -0.0399  0.1857 -0.0758
12582W        W29429   5.025   6.016  13.751 -0.4269  0.1808  0.0775
12583W        W29430  13.492  17.148   2.845 -0.3489 -0.2509 -0.1092
12584W        W29431  16.116   8.400  14.018  0.2201 -0.0844 -0.0138
12585W        W29432   8.298  14.746   3.223 -0.1748 -0.3593  0.1079
12586W        W29433   9.604   9.738   2.330  0.3256  0.1600  0.0956
12587W        W29434   0.055   1.248  15.296 -0.0354 -0.1354 -0.0721
12588W        W29435   8.951  10.159  13.328 -0.3744 -0.1990 -0.3802
12589W        W29436  17.136   3.693  15.616  0.1239 -0.0232  0.3907
12590W        W29437   8.247   0.044  11.627 -0.1545  0.0994 -0.0942
12591W        W29438  10.814   4.975  15.697  0.0657  0.1784  0.1693
12592W        W29439  16.189   5.209  10.685 -0.0980  0.0744 -0.0129
12593W        W29440  16.819  18.321   1.583  0.0413  0.5520  0.0247
12594W        W29441   3.738   1.886  13.405 -0.0692  0.1142  0.0386
12595W        W29442  12.182  10.651   1.358 -0.2591  0.0873  0.0926
12596W        W29443   1.147   9.970  11.672 -0.0701 -0.1839  0.1537
12597W        W29444  13.570   6.471  14.754  0.0558 -0.2644 -0.2696
12598W        W29445  12.821   6.730  11.605  0.0247 -0.1593 -0.1953
12599W        W29446  15.121   0.277  14.010 -0.0411  0.0864 -0.0505
12600W        W29447   0.024   3.559   5.155  0.1373 -0.0422 -0.0144
12601W        W29448  13.479   4.074  11.164  0.3135  0.1395  0.2316
12602W        W29449  11.926  11.539  14.382 -0.1470  0.2435  0.1974
12603W        W29450   1.862  10.651  14.031 -0.0508 -0.0973  0.1552
12604W        W29451  12.315  17.269   4.876 -0.1129  0.0262 -0.2322
12605W        W29452  10.279  13.177   3.049 -0.1560  0.0532 -0.2042
12606W        W29453  15.448   7.480  13.550 -0.1686 -0.0663 -0.2723
12607W        W29454   4.968  16.782   4.166  0.3689  0.0572  0.0022
12608W        W29455   9.433  12.760  11.720  0.1468  0.0189  0.1033
12609W        W29456   3.924   5.259   5.000  0.1682  0.0482 -0.0995
12610W        W29457   9.512   7.867   1.276 -0.0840 -0.2069 -0.2282
12611W        W29458   6.867   4.513  15.264 -0.0138 -0.0783  0.0406
12612W        W29459  17.726  15.707   3.691  0.1456  0.0212 -0.0977
12613W        W29460   8.620   4.874  14.166  0.0449  0.0084  0.3522
12614W        W29461  13.065   5.206   2.700 -0.2304  0.1449  0.1156
12615W        W29462   5.007   8.208   2.968 -0.2211 -0.0180 -0.4113
12616W        W29463   6.432   5.383   5.120  0.0179 -0.0469 -0.1936
12617W        W29464   3.371  15.955   3.445 -0.1786 -0.0756 -0.1898
12618W        W29465  16.515   3.724  10.874 -0.1497  0.1466 -0.1836
12619W        W29466  14.446  13.807  14.876  0.0346  0.1988  0.2896
12620W        W29467   1.170   3.239  11.616 -0.3275 -0.2023 -0.0899
12621W        W29468   2.810   6.004  13.181  0.0349  0.0775  0.2328
12622W        W29469   3.463  17.610   1.846  0.1867  0.3897 -0.0568
12623W        W29470   0.077   8.061  12.689  0.1392 -0.2588 -0.0442
12624W        W29471   2.294   1.207   5.290 -0.0610  0.1151 -0.2778
12625W        W29472   2.689  13.521   3.255 -0.0230  0.1252  0.3627
12626W        W29473   0.940  11.841  12.755 -0.0667  0.3482 -0.0654
12627W        W29474  12.066   4.760   2.210 -0.1186  0.0593 -0.2204
12628W        W29475   5.886  17.210   5.079 -0.1883 -0.1690 -0.1343
12629W        W29476  12.156  15.087   4.741 -0.1514 -0.0059 -0.1872
12630W        W29477   4.206   7.516  15.906  0.1002 -0.2435 -0.0959
12631W        W29478   4.655   0.602   1.801  0.0131  0.0158 -0.1196
12632W        W29479  15.548  17.571  12.295  0.2023  0.2791 -0.1115
12633W        W29480  11.743  12.304   5.823 -0.3037  0.0207  0.0566
12634W        W29481   2.833  14.774  16.092 -0.1673  0.2895  0.0754
12635W        W29482  15.892   0.058   4.876 -0.1166  0.1027 -0.1150
12636W        W29483   5.097   2.374   4.506 -0.2664 -0.1252 -0.1884
12637W        W29484   8.330   8.031   2.856  0.0413  0.1470 -0.1476
12638W        W29485   6.728   6.018  11.625 -0.1681 -0.2167  0.0132
12639W        W29486   5.338  12.175  15.972 -0.0353  0.2479 -0.0507
12640W        W29487  15.143   3.061   1.737  0.0044  0.0169  0.1341
12641W        W29488   4.857   1.812   1.959  0.0635  0.2030  0.2129
12642W        W29489  12.729   5.013  11.729 -0.0992 -0.0221  0.0630
12643W        W29490   8.882  11.383   1.240 -0.3039  0.0754  0.2447
12644W        W29491   8.868   7.052  14.349 -0.0122 -0.0537  0.1737
12645W        W29492   4.223  12.411   0.843  0.0750 -0.2774 -0.3231
12646W        W29493  11.276   6.975  13.323 -0.2102  0.1003 -0.3382
12647W        W29494   5.378   5.960  14.732  0.2129 -0.1051  0.2573
12648W        W29495   7.770   9.286  15.025  0.1358  0.0080 -0.0481
12649W        W29496  14.355   1.905  11.275  0.1366  0.0889  0.0576
12650W        W29497   3.064   7.981   3.306  0.6120 -0.0859 -0.2093
12651W        W29498   0.635   0.795   3.589 -0.0677  0.0648 -0.3058
12652W        W29499  17.689   6.272   2.740 -0.0599 -0.2361  0.0061
12653W        W29500   5.732   4.123  13.225  0.2087  0.0495  0.1198
12654W        W29501   1.121   1.697   3.593  0.1872 -0.2274 -0.0507
12655W        W29502  13.695   4.411   3.566  0.0546 -0.0828 -0.0288
12656W        W29503  12.979  17.325  12.639 -0.1505  0.3496  0.0154
12657W        W29504  17.479   9.085   0.669 -0.2028 -0.4499  0.2737
12658W        W29505   2.491   2.256   0.632 -0.4271 -0.1165  0.1808
12659W        W29506  16.463   0.300   1.406 -0.0018  0.4084 -0.0317
12660W        W29507  10.697  13.503   0.797 -0.2049  0.2245  0.0048
12661W        W29508  17.870   3.327  12.115 -0.1510 -0.1203  0.1553
12662W        W29509   7.409  11.632  12.073 -0.2098 -0.1864 -0.0256
12663W        W29510  17.742  17.771   3.050  0.2393 -0.0273  0.0345
12664W        W29511   5.394  17.661  11.834 -0.2008  0.3865  0.0965
12665W        W29512  13.364   0.647  13.536  0.1798  0.0889  0.1465
12666W        W29513  15.109  10.800   1.099  0.1435  0.1934  0.2885
12667W        W29514  13.944   0.650   4.712 -0.1728  0.0400  0.0205
12668W        W29515  11.666   8.386   3.376  0.0913 -0.0699  0.4130
12669W        W29516  12.583   6.853  14.721  0.0629  0.1374  0.0438
12670W        W29517   7.181  11.282   3.533  0.1899  0.1032  0.1748
12671W        W29518  14.523   8.825  14.308  0.0052  0.2275 -0.1244
12672W        W29519   6.463  18.281   4.407  0.0472 -0.2487 -0.2066
12673W        W29520   8.173   7.263  13.196 -0.1424 -0.2094  0.1099
12674W        W29521   6.737   6.212  12.911  0.2356  0.1033  0.1175
12675W        W29522   9.653   1.219   3.426 -0.1225 -0.2138 -0.2204
12676W        W29523  15.515   0.100   1.308 -0.0533  0.1895  0.0689
12677W        W29524  11.199  15.656  11.615 -0.1306 -0.2268 -0.1785
12678W        W29525  10.075   0.423   3.011  0.0129 -0.3379 -0.1039
12679W        W29526  13.189  10.151  14.335 -0.0437  0.1194  0.0323
12680W        W29527   2.812   5.758  12.511  0.0167 -0.1308 -0.1584
12681W        W29528  15.432   0.428  11.876  0.3682  0.0935 -0.1312
12682W        W29529   1.074   4.918  12.634  0.0298 -0.0401 -0.0561
12683W        W29530   1.004   5.655   2.916 -0.2373  0.2534 -0.0445
12684W        W29531   8.694  10.108   1.619 -0.1694 -0.1942  0.1801
12685W        W29532   0.556   0.613  13.254 -0.1725 -0.2148 -0.0950
12686W        W29533   5.566  11.018  11.913 -0.3230  0.3032 -0.0627
12687W        W29534  15.985  13.970   5.304  0.3072  0.2484 -0.2270
12688W        W29535   9.586   0.901   2.036 -0.0835 -0.2490 -0.2856
12689W        W29536  14.568   1.776   2.850  0.1429  0.1189  0.0253
12690W        W29537   0.029  13.641   1.810  0.1343  0.1269  0.1530
12691W        W29538   8.503  11.633   1.012 -0.2593 -0.0894 -0.0401
12692W        W29539  14.007  12.097  15.758 -0.0733 -0.2172 -0.0864
12693W        W29540   8.666   5.119   0.553 -0.3562 -0.0482  0.1449
12694W        W29541   8.705  11.152   4.443 -0.1262 -0.1729  0.2792
12695W        W29542  17.857   9.056   3.813 -0.1807  0.0157 -0.1610
12696W        W29543  16.453   8.360  15.067  0.1797  0.1250  0.0303
12697W        W29544   5.951   7.157  14.002 -0.0788 -0.0864  0.1051
12698W        W29545   4.898   2.014  11.331 -0.0961 -0.0612 -0.1890
12699W        W29546   2.660  14.857  11.826 -0.1502  0.0846 -0.1648
12700W        W29547  11.046   0.844  12.122 -0.2189 -0.1983 -0.1316
12701W        W29548  11.263   5.094  15.244  0.0080  0.0910 -0.0724
12702W        W29549   3.247   9.670  11.873 -0.3233 -0.0880  0.2403
12703W        W29550  16.915   9.055   1.709 -0.3085 -0.2798 -0.2300
12704W        W29551   3.557  14.701  15.517  0.0818 -0.0673  0.1309
12705W        W29552   9.604  11.468   3.466 -0.2055  0.1679 -0.1051
12706W        W29553  11.705  17.506   1.512  0.0727  0.0774  0.0249
12707W        W29554  17.622   7.038  15.282 -0.1637 -0.1062 -0.0430
12708W        W29555  11.445   1.789   5.493  0.2649  0.3538 -0.1954
12709W        W29556  17.627   6.128   4.007 -0.1625 -0.3365 -0.0936
12710W        W29557   9.891   0.729   3.452  0.0305  0.2021 -0.1409
12711W        W29558   0.963  10.311  12.045  0.0241 -0.0753  0.0485
12712W        W29559   8.305   4.424  15.604 -0.3377 -0.0303 -0.1194
12713W        W29560   8.070  14.094   0.982 -0.2026 -0.2981 -0.0038
12714W        W29561  15.401   2.980   0.532  0.1174  0.0628 -0.0842
12715W        W29562  11.203  14.121   2.344 -0.2122 -0.0181 -0.0105
12716W        W29563   5.633   3.514   2.448  0.2094 -0.1499 -0.0601
12717W        W29564   3.380   5.697   3.871 -0.2798 -0.0981 -0.0132
12718W        W29565  12.540  17.528  14.181 -0.1629  0.0904 -0.1392
12719W        W29566   5.742   1.082   2.487 -0.0689 -0.2326  0.2246
12720W        W29567   5.676   7.607   3.362  0.1751  0.0375  0.0601
12721W        W29568  10.852   8.015   0.751  0.1794 -0.2570 -0.2262
12722W        W29569  17.947  17.301  11.616 -0.0681  0.1017  0.0255
12723W        W29570   0.276  17.568   0.354  0.1244 -0.2012  0.0972
12724W        W29571  13.011  13.730   2.890 -0.0263 -0.2599 -0.2849
12725W        W29572  17.209   6.996  13.577 -0.1170  0.1154  0.1356
12726W        W29573  18.263   8.361  11.911 -0.1524 -0.1302 -0.0867
12727W        W29574  15.034   3.221  11.787 -0.1085  0.3110 -0.2466
12728W        W29575  12.342  11.780  13.375 -0.2315  0.0434 -0.1055
12729W        W29576  13.402  15.223  12.786 -0.0499  0.1035 -0.1140
12730W        W29577  12.849  10.788  13.462  0.2209  0.1284  0.0585
12731W        W29578   4.889   6.134   4.780 -0.1402  0.0555  0.1689
12732W        W29579  10.381   4.729   0.055 -0.2235  0.3171 -0.2596
12733W        W29580   0.006  10.730   4.703  0.1367 -0.0067 -0.0554
12734W        W29581  15.628  17.389   0.280  0.3411 -0.0182 -0.4429
12735W        W29582   1.345  11.786  12.378  0.0051 -0.0493  0.0859
12736W        W29583  11.717   7.863   1.883 -0.1583 -0.1895 -0.0066
12737W        W29584  14.150   5.310  11.110 -0.2867  0.1297 -0.1802
12738W        W29585  17.522  16.135   5.937 -0.0073  0.0810 -0.1392
12739W        W29586   8.352  15.239   1.879  0.2066  0.0600 -0.0893
12740W        W29587   2.515  13.218  14.483 -0.2225 -0.0204  0.1899
12741W        W29588   4.819   9.117  13.696 -0.0693 -0.0635 -0.3935
12742W        W29589   2.666   9.147   2.668 -0.0586 -0.3060 -0.0109
12743W        W29590  13.991   9.696  13.838 -0.1021  0.2591  0.0453
12744W        W29591   7.434  15.084  13.137  0.1069  0.0288  0.1416
12745W        W29592  15.029   7.116  14.386  0.2096  0.1814 -0.1909
12746W        W29593   6.349  14.762   1.000  0.0228  0.0625  0.0895
12747W        W29594  14.749   0.601   1.163 -0.0027  0.1431 -0.0180
12748W        W29595   5.797  15.471  11.386  0.1748  0.1990  0.2672
12749W        W29596   7.603  16.860   4.586 -0.1074 -0.2025 -0.1406
12750W        W29597  14.739  17.429   0.896  0.2449  0.0108 -0.0464
12751W        W29598   6.212   6.820   1.789 -0.2630  0.0588 -0.0111
12752W        W29599  15.398   0.443  15.883 -0.1997 -0.2403 -0.4783
12753W        W29600   7.724   2.410   3.311  0.1638  0.0490 -0.1459
12754W        W29601  16.754  15.487  14.458 -0.0196 -0.2178 -0.1227
12755W        W29602  18.089  15.072  13.006  0.1492  0.0269  0.0255
12756W        W29603  10.813  13.107   3.873 -0.1015 -0.0397  0.3190
12757W        W29604  12.441   9.755   3.842  0.0914  0.1441 -0.1400
12758W        W29605  10.058   0.204  13.112  0.1231  0.1426 -0.3359
12759W        W29606  15.183  16.524  14.638 -0.0716 -0.0953  0.1350
12760W        W29607   8.428  15.562  15.169 -0.0322 -0.2110 -0.1711
12761W        W29608   3.070   2.546   1.657 -0.0105 -0.4247 -0.2830
12762W        W29609  16.127  10.886  15.004 -0.0490 -0.5284  0.3538
12763W        W29610   6.221   1.119   2.793 -0.1471  0.0788  0.1940
12764W        W29611   5.974  14.716   4.170  0.0633  0.1847  0.2306
12765W        W29612  11.473   6.456   3.472 -0.0410 -0.0913 -0.0967
12766W        W29613   1.767  16.539  14.629  0.3901 -0.0175  0.1133
12767W        W29614   5.292   3.013  12.664 -0.0027 -0.1509 -0.0760
12768W        W29615   9.636  14.038   5.536 -0.0514 -0.0833  0.0994
12769W        W29616  16.836   2.349  12.916  0.0016 -0.1922 -0.2997
12770W        W29617  14.142   5.590  10.642 -0.2533 -0.3642 -0.2536
12771W        W29618   2.771   0.271   1.502 -0.0175  0.1545  0.0838
12772W        W29619   3.416  13.433  14.058  0.0803 -0.1229 -0.2830
12773W        W29620  17.216   2.515  10.757  0.0926  0.1097  0.3168
12774W        W29621  15.149   9.750   1.194 -0.1133 -0.0605  0.1444
12775W        W29622  10.210  16.728  14.900 -0.0950 -0.1461 -0.3430
12776W        W29623  13.856   7.905  12.466 -0.1481  0.1491  0.0402
12777W        W29624   3.587   3.156  15.278 -0.1169 -0.2639 -0.0677
12778W        W29625   6.802   3.934   2.971 -0.1728  0.4242 -0.0591
12779W        W29626   4.146   7.210   4.846  0.3305 -0.0093  0.5313
12780W        W29627  18.314   0.881  13.901 -0.0459 -0.3045  0.0057
12781W        W29628   1.395  14.790   0.854 -0.0409 -0.1040  0.2663
12782W        W29629   7.623  17.021   2.081 -0.0192 -0.0269 -0.1218
12783W        W29630  14.656   7.361   4.770 -0.1215 -0.2917  0.1641
12784W        W29631   1.734  13.522   4.670  0.0523 -0.0049  0.3939
12785W        W29632   1.788  11.120   4.823  0.1377  0.0994 -0.0603
12786W        W29633  18.265  16.318   2.108  0.1426 -0.0881 -0.1451
12787W        W29634   6.966   4.221  14.696  0.1983  0.0773 -0.1092
12788W        W29635  14.125   3.330  14.446 -0.0970 -0.1615 -0.0324
12789W        W29636   8.049   1.901  11.598 -0.1029  0.1825  0.1094
12790W        W29637  16.798   0.096  14.785 -0.1443 -0.0489 -0.1889
12791W        W29638  13.708  13.349   1.007 -0.1143 -0.0155 -0.1292
12792W        W29639   0.428  14.807  13.458  0.1066 -0.2365  0.1591
12793W        W29640   7.237   8.055   3.875 -0.2233  0.4457  0.0101
12794W        W29641  13.075  17.968   3.550  0.1820 -0.1401  0.2584
12795W        W29642   4.581   0.205  14.828 -0.0998 -0.0258  0.0926
12796W        W29643  13.733  13.299  13.011 -0.3660 -0.0773  0.1059
12797W        W29644  16.247   2.772  11.697 -0.0197 -0.1201  0.2689
12798W        W29645   2.744  11.843   1.669 -0.1569 -0.2281  0.0885
12799W        W29646   8.368  15.591  13.157 -0.1156 -0.0018  0.1043
12800W        W29647  15.556   5.276  13.214 -0.2033  0.2222 -0.2491
12801W        W29648   8.576   3.499  14.407 -0.1914 -0.3377  0.0448
12802W        W29649   3.989  13.729   1.858 -0.1238 -0.1267 -0.0606
12803W        W29650   6.409  13.808  12.491  0.0195  0.0081 -0.1759
12804W        W29651  13.190   6.652  13.867  0.0958 -0.0876 -0.1874
12805W        W29652  13.839   5.044   9.696  0.1791 -0.2517  0.0176
12806W        W29653   4.771  14.010   3.967 -0.3584 -0.1787  0.3074
12807W        W29654   0.277   6.877  14.525  0.0242 -0.0745 -0.0222
12808W        W29655   0.096  11.792  11.235  0.1174  0.0646 -0.3637
12809W        W29656   4.034  17.065   0.836  0.0201  0.2777  0.0456
12810W        W29657  12.633  13.644   1.533 -0.1657  0.1308 -0.0804
12811W        W29658   7.665  14.628   0.318  0.1623 -0.2021  0.3391
12812W        W29659  10.956  14.304  11.580 -0.1932 -0.0334 -0.0727
12813W        W29660   6.924  11.956   3.851  0.1503 -0.2061  0.1919
12814W        W29661   5.896   9.665   5.364  0.2510  0.3901 -0.1170
12815W        W29662   4.737   3.300  12.097 -0.0446  0.0510 -0.1727
12816W        W29663   9.008  10.902   1.371  0.1117  0.0099  0.3057
12817W        W29664   1.274  13.361  15.365  0.1506  0.3005  0.1797
12818W        W29665  11.311   8.025   3.331  0.0378  0.0189 -0.0457
12819W        W29666  17.824  10.518  15.789 -0.2503 -0.1364  0.0596
12820W        W29667   1.137  17.086   0.935  0.1230 -0.0078 -0.1033
12821W        W29668  15.416  14.408   2.937  0.3800 -0.0849  0.1597
12822W        W29669  12.456   1.783  11.186  0.2138 -0.3269 -0.0984
12823W        W29670  10.021   3.847   3.448  0.2018  0.1379  0.0139
12824W        W29671   7.797  11.233  13.755  0.1135  0.0939 -0.0114
12825W        W29672   9.145  17.854   3.504 -0.0468 -0.2726  0.0515
12826W        W29673  12.300  13.523  11.775 -0.1690  0.0585 -0.0862
12827W        W29674   4.687   9.287  12.458 -0.0281 -0.1210 -0.1599
12828W        W29675  15.699   4.414  12.013  0.1074  0.3397 -0.2619
12829W        W29676   7.406   8.458   2.330  0.2553  0.0213 -0.2608
12830W        W29677   5.560   1.180  15.185 -0.3552 -0.2035  0.1884
12831W        W29678  15.904  11.062   5.364 -0.2433  0.0485  0.0134
12832W        W29679  13.487   6.468   3.755  0.2541  0.0650  0.1030
12833W        W29680  16.349   9.176   4.896  0.2363  0.2625  0.0827
12834W        W29681  17.628  17.375  13.068  0.1748 -0.3264 -0.0846
12835W        W29682  11.486  15.244  11.807 -0.0052  0.5374 -0.0007
12836W        W29683   1.133   2.184  15.080  0.0830 -0.1450 -0.1843
12837W        W29684  10.896  17.797   3.838  0.1732 -0.1376 -0.1890
12838W        W29685  17.219   5.635  11.409  0.0495 -0.1582  0.0162
12839W        W29686  10.478  15.798   3.348  0.1894 -0.1499 -0.0694
12840W        W29687  17.147  15.185   0.099 -0.1197  0.0915 -0.2990
12841W        W29688   3.625  10.359  11.306 -0.1845  0.1724  0.1760
12842W        W29689  11.101   3.120  16.075 -0.0235 -0.3672 -0.3051
12843W        W29690  12.748   8.913   1.869 -0.2176  0.1691 -0.0037
12844W        W29691   5.590  17.927   3.362  0.0046 -0.2102 -0.1334
12845W        W29692  13.995   8.736   2.338 -0.0109  0.0555  0.0189
12846W        W29693  12.845  12.005   0.279  0.2263  0.0142  0.3797
12847W        W29694   7.055   0.574   2.800 -0.0594  0.1041  0.0411
12848W        W29695   5.517   6.703   1.323 -0.2322  0.0351  0.1056
12849W        W29696  13.266  16.379   5.390 -0.0443 -0.1747  0.0083
12850W        W29697   0.424   3.397  12.183 -0.0216 -0.4176  0.1692
12851W        W29698   6.903  12.095   5.599 -0.1387  0.0288  0.0171
12852W        W29699  11.206   5.976  13.959  0.0916 -0.3158 -0.0274
12853W        W29700  13.368  16.262   0.080  0.3566 -0.0941  0.0238
12854W        W29701   4.179   1.345  15.764  0.1442  0.1494 -0.0989
12855W        W29702  12.479   6.915   3.793 -0.2123  0.1176 -0.1071
12856W        W29703   4.013   7.754  13.233  0.2866 -0.0171  0.1603
12857W        W29704   3.440   3.788   1.970 -0.3450  0.3718  0.1931
12858W        W29705   4.350   7.491   1.466  0.3401  0.1206  0.2953
12859W        W29706   7.089  16.220   5.583  0.2959 -0.0160 -0.1399
12860W        W29707  14.588   0.666  13.745 -0.2062 -0.1919 -0.1545
12861W        W29708  10.317   8.033  13.761 -0.1082  0.0538 -0.2089
12862W        W29709   9.853  11.669  12.393  0.0023 -0.1356  0.1882
12863W        W29710   9.522   3.066  12.325  0.2492 -0.1544 -0.0053
12864W        W29711   5.983  18.277   4.558  0.3173 -0.2406  0.2517
12865W        W29712  14.209   4.987   4.575  0.0279 -0.0424  0.0101
12866W        W29713   7.716   7.679   4.096 -0.1038 -0.0352  0.0304
12867W        W29714   7.579   2.345  14.618 -0.2453  0.2941  0.0042
12868W        W29715   9.251   9.814   4.904 -0.1344  0.2740 -0.0748
12869W        W29716   9.732  15.235  14.051 -0.1218 -0.7334  0.0854
12870W        W29717  16.529   1.475  14.977 -0.2897  0.0445  0.3646
12871W        W29718  10.829  15.681  11.974 -0.1896  0.2080 -0.2418
12872W        W29719   1.150  15.720   1.015 -0.0778 -0.0568  0.1570
12873W        W29720   6.206   9.642  13.276 -0.0153 -0.2246  0.1906
12874W        W29721   3.178  11.554  13.578  0.0686  0.2952  0.0511
12875W        W29722  11.088  14.812  15.994  0.0368 -0.0791  0.0385
12876W        W29723   0.452   0.014  15.379 -0.0082  0.2090 -0.0872
12877W        W29724  11.679   5.683  12.974 -0.2184 -0.1940  0.0811
12878W        W29725  14.252   2.754   3.670  0.0812 -0.1199 -0.1972
12879W        W29726   4.082   3.543  15.591 -0.0244 -0.1020  0.0711
12880W        W29727  14.035  13.501  15.922  0.1707 -0.3053  0.0075
12881W        W29728   7.528   0.807   1.428 -0.0580 -0.3356  0.2009
12882W        W29729  18.069   9.705  14.030  0.0828  0.1815 -0.0316
12883W        W29730   4.453   2.681   5.452  0.1705 -0.2970 -0.3536
12884W        W29731   3.792   9.429   4.534  0.1808  0.0669  0.2302
12885W        W29732  15.346   9.386   0.638  0.1048 -0.0745 -0.2229
12886W        W29733   6.228  10.595   1.966 -0.2168  0.2464 -0.1524
12887W        W29734  10.507  10.213  15.779 -0.0862 -0.2468  0.1593
12888W        W29735  15.407   4.832  13.560  0.0484 -0.0194 -0.0126
12889W        W29736   8.754   5.850  14.522 -0.2418  0.0441 -0.0320
12890W        W29737  13.665   5.718  16.098 -0.0205  0.3536 -0.1010
12891W        W29738  13.975  14.975  14.952  0.1077  0.3070  0.5332
12892W        W29739  12.934  11.388   2.458  0.2272  0.0068 -0.0310
12893W        W29740   0.761   8.671  14.390 -0.0298  0.3583  0.1766
12894W        W29741   9.477  17.432   0.793 -0.1522  0.1610  0.1073
12895W        W29742   1.019  17.210   5.157 -0.3964 -0.1128  0.0030
12896W        W29743   1.378  10.359   2.920 -0.1209 -0.0523  0.3793
12897W        W29744  18.178  15.748   1.981  0.0502 -0.0672  0.1428
12898W        W29745  11.321  13.144   5.426  0.1726 -0.2137  0.0744
12899W        W29746   5.052   1.974  11.869 -0.1236  0.1614  0.2074
12900W        W29747   0.088  11.536   6.144  0.1198  0.0553  0.5107
12901W        W29748   0.212  15.713  11.927 -0.2175  0.1122  0.0274
12902W        W29749  17.404  11.982  11.383 -0.1229  0.1038  0.3221
12903W        W29750  15.107  15.453   5.636 -0.3260 -0.1564  0.4470
12904W        W29751  12.142   3.706  12.279 -0.1687 -0.0290 -0.2362
12905W        W29752   2.044  16.709  11.791  0.0012  0.1473 -0.3580
12906W        W29753  10.831   7.301  14.113  0.1331 -0.1498  0.3530
12907W        W29754   6.664  13.362   3.686 -0.3874 -0.1884 -0.0646
12908W        W29755   0.919  11.673   2.748  0.3116 -0.1816  0.0378
12909W        W29756   7.316   4.170  12.658 -0.2283  0.2776 -0.0646
12910W        W29757  15.853  17.492  13.962  0.1291 -0.3085  0.1692
12911W        W29758   3.456  16.255  15.261  0.0175  0.0512  0.0185
12912W        W29759   6.686  12.261   0.092 -0.1293 -0.1960 -0.1144
12913W        W29760  15.671   7.137  12.319 -0.2168 -0.1119  0.3020
12914W        W29761  15.146   7.902   3.044  0.1213  0.0797 -0.0049
12915W        W29762  14.649  13.440   3.145 -0.2260 -0.0803 -0.1711
12916W        W29763   9.029   6.257   0.001  0.0291  0.0468 -0.0202
12917W        W29764   5.913   4.781   3.648 -0.0695 -0.0596  0.1009
12918W        W29765   9.652   9.336   1.144 -0.0552  0.1903  0.0306
12919W        W29766  10.934   7.738   3.069  0.0570  0.0589  0.3780
12920W        W29767   7.570  15.024  12.614  0.2179  0.1341 -0.1180
12921W        W29768  16.523  15.647   1.758  0.0274 -0.1217 -0.2253
12922W        W29769   8.168  17.353   0.765 -0.0969 -0.0704  0.0311
12923W        W29770  16.977  17.723  10.786  0.1348 -0.2319  0.0484
12924W        W29771  16.687  10.221  14.606  0.1716  0.2873  0.0846
12925W        W29772   1.645   1.121   5.058 -0.2310  0.0674 -0.4483
12926W        W29773   9.978  18.048  16.182 -0.2685 -0.3788 -0.1603
12927W        W29774  17.460   4.797   2.824 -0.0984 -0.1494 -0.1335
12928W        W29775   5.917   0.999  14.889 -0.1412 -0.0831  0.0084
12929W        W29776   2.516  11.931  14.868  0.1443 -0.2040 -0.0811
12930W        W29777   3.443  13.545  15.517  0.1640 -0.0306 -0.1351
12931W        W29778   2.408  12.113  15.821 -0.0882 -0.0335 -0.2933
12932W        W29779   0.220  17.090  13.722 -0.0008 -0.0281  0.0465
12933W        W29780   9.750  15.338  15.454  0.1218 -0.2294 -0.2558
12934W        W29781  17.651   6.781   0.537  0.1121 -0.0482 -0.0762
12935W        W29782  16.990   1.400  15.162  0.0150 -0.2734  0.1144
12936W        W29783   5.025  13.010  15.437 -0.0695 -0.0465  0.0087
12937W        W29784   0.174   3.771  14.646 -0.0898 -0.0349  0.1318
12938W        W29785  15.893   3.663  11.739  0.1451  0.3229  0.0801
12939W        W29786  16.658  17.559   4.789  0.0529  0.1507  0.0149
12940W        W29787   3.326  15.797  13.460 -0.2096 -0.0787 -0.1386
12941W        W29788   0.800   5.002  14.856  0.1152  0.1941 -0.0213
12942W        W29789   6.173  10.903   0.859 -0.3837  0.0982  0.1109
12943W        W29790   4.937   1.188  11.284  0.0295  0.4916  0.3291
12944W        W29791   9.886  11.653   2.377  0.1019  0.2689 -0.0759
12945W        W29792  12.335   7.290   5.150 -0.0331 -0.2067  0.2420
12946W        W29793   9.304   7.625  12.618 -0.0654  0.1625  0.3507
12947W        W29794   1.089  16.145   0.800  0.1417  0.0877 -0.1334
12948W        W29795   2.428   5.730   2.852  0.1197  0.2009 -0.0605
12949W        W29796  16.957  17.053  14.644  0.1104 -0.0680  0.0980
12950W        W29797  14.017   4.712  14.564 -0.1464  0.1613 -0.1145
12951W        W29798  13.584   6.712  10.485  0.0242  0.2386 -0.0884
12952W        W29799   9.970  14.867   0.611  0.0468  0.1562  0.0206
12953W        W29800  12.079   5.466  13.867 -0.2493 -0.0328  0.1857
12954W        W29801  16.602  15.042   3.586 -0.0974  0.0892  0.0505
12955W        W29802   9.094   4.740   2.208 -0.1036  0.0242 -0.1994
12956W        W29803   7.119   1.690   2.979  0.0840 -0.1521  0.1847
12957W        W29804  11.059   1.869   2.742 -0.1076 -0.0817 -0.0667
12958W        W29805   7.902  15.486   3.401 -0.4139 -0.1410  0.0291
12959W        W29806  12.473   2.450  14.564 -0.0787  0.2762  0.1009
12960W        W29807   1.558   1.511   3.998  0.0651 -0.2076  0.1648
12961W        W29808   2.927  13.690   1.306  0.3205  0.4050  0.0550
12962W        W29809   7.227  17.287   1.608  0.3604  0.1237  0.0405
12963W        W29810   5.902   8.131   5.835 -0.1403 -0.0908 -0.0707
12964W        W29811  15.498   6.520   1.659  0.0793 -0.0899 -0.1342
12965W        W29812  11.974   2.124  11.963  0.1174 -0.0145 -0.0360
12966W        W29813   1.869   6.420   0.852  0.0487  0.2157 -0.1517
12967W        W29814  10.964  11.580   4.926  0.1611 -0.0324  0.1895
12968W        W29815  17.141   7.192  16.014  0.3158  0.0331 -0.1156
12969W        W29816  12.839  12.368  15.217 -0.0345 -0.1402  0.2778
12970W        W29817  10.819  10.119   5.686  0.1439  0.0215  0.0310
12971W        W29818   8.292   3.699  13.569  0.0215 -0.1112  0.2598
12972W        W29819   0.907  15.908  14.618  0.3249 -0.3300 -0.2201
12973W        W29820   4.133   3.068   4.798  0.2149  0.2855 -0.0883
12974W        W29821   7.589   1.313  15.590 -0.0879  0.3045 -0.1002
12975W        W29822  13.084  17.420   4.157 -0.0114 -0.0653 -0.3225
12976W        W29823  15.370   3.708   3.028 -0.1290 -0.2199 -0.0180
12977W        W29824   7.849   4.652   3.031  0.2186 -0.0188 -0.1674
12978W        W29825  10.569  10.776   3.541 -0.2834  0.1825  0.1064
12979W        W29826  14.380   3.062   5.589 -0.2181  0.0735 -0.1795
12980W        W29827   0.476  13.388  11.110 -0.1159  0.0016 -0.4066
12981W        W29828  14.553  11.496  15.391 -0.2824  0.1386 -0.1016
12982W        W29829   3.844  12.584  12.621  0.0207 -0.2186 -0.0680
12983W        W29830  12.015   9.749  10.461  0.0682 -0.0470  0.2416
12984W        W29831   2.522  10.781  14.340 -0.2425 -0.2927  0.0547
12985W        W29832   0.903  16.625  15.850  0.0655  0.1209 -0.3251
12986W        W29833   8.830  11.576  12.054  0.1361  0.1978 -0.2211
12987W        W29834  15.590   1.278  11.757 -0.2713 -0.0064  0.1454
12988W        W29835  12.710  11.173   2.852 -0.0411 -0.1772 -0.0666
12989W        W29836  10.101   9.928  12.741  0.2009  0.0565  0.0355
12990W        W29837   9.106   0.052   1.152 -0.2466 -0.1171  0.1532
12991W        W29838  13.224   7.168  13.945 -0.4144 -0.0529  0.0774
12992W        W29839   5.657  17.511   4.130  0.1501 -0.0273 -0.0749
12993W        W29840   3.210  10.287   0.585 -0.1592 -0.2703 -0.0716
12994W        W29841  15.408  14.183  13.140 -0.0642 -0.0768 -0.0653
12995W        W29842   1.193  17.870  11.901  0.2099  0.0825 -0.2558
12996W        W29843   3.449   0.207   2.709 -0.1778 -0.0603  0.2813
12997W        W29844   1.592  15.784   1.975  0.0339 -0.0255 -0.1250
12998W        W29845   0.712  16.660   1.469  0.0627 -0.0856  0.0889
12999W        W29846  10.880  17.067   1.390 -0.1954  0.0861  0.0068
13000W        W29847  13.794  12.505   3.604 -0.1013 -0.1444 -0.0203
13001W        W29848  12.881   1.397   1.020 -0.1031 -0.0222  0.1224
13002W        W29849  12.361   5.010   3.421  0.0001  0.1300  0.1341
13003W        W29850  12.277   8.238  11.392 -0.0005  0.3982 -0.1548
13004W        W29851  14.755   6.374   2.283 -0.0058 -0.1276  0.1423
13005W        W29852   3.104   2.720  11.986  0.2404  0.1347 -0.0984
13006W        W29853   2.483   4.165  16.125 -0.0168  0.1451 -0.0090
13007W        W29854  14.947   3.943   2.778  0.1862  0.0055  0.1829
13008W        W29855  14.385   3.556   2.022 -0.1195  0.0238  0.2206
13009W        W29856  10.844   2.387   5.758  0.3018  0.0489  0.0979
13010W        W29857   4.690   6.910   1.967  0.0904  0.3672 -0.1040
13011W        W29858  16.460  17.783   4.391  0.1975 -0.0208 -0.1374
13012W        W29859  17.776  13.084   4.680  0.1671  0.2132 -0.1573
13013W        W29860   4.761  14.717  12.791  0.2142  0.0876 -0.1792
13014W        W29861  18.066  14.839   2.158  0.0404  0.0022  0.1154
13015W        W29862   3.621  17.248   3.813 -0.0757  0.1780 -0.1267
13016W        W29863   5.983   4.250   3.836 -0.0422  0.2096  0.0037
13017W        W29864  10.735   7.873  12.537 -0.3151  0.1008 -0.0596
13018W        W29865  14.599  14.372  10.705  0.0455 -0.0622  0.1414
13019W        W29866  11.072   8.419  14.947 -0.1466 -0.0173 -0.1019
13020W        W29867  17.018   1.878   3.965 -0.1379  0.0877  0.2287
13021W        W29868  12.464  16.492   4.194 -0.1812  0.1313  0.1261
13022W        W29869   9.646  10.057   6.388 -0.0291  0.0833 -0.1238
13023W        W29870   5.804   7.233  15.453  0.2923  0.0046  0.0995
13024W        W29871  14.322  14.029   1.388  0.2516 -0.1277  0.1472
13025W        W29872   7.475  15.816   1.207 -0.1521  0.0302  0.0888
13026W        W29873   8.188  18.026  13.644  0.1656  0.0610 -0.2646
13027W        W29874  17.075   1.475   3.639 -0.0312 -0.1661 -0.2990
13028W        W29875  16.298   8.633  13.508 -0.0168 -0.3128 -0.1672
13029W        W29876  12.658  13.356   2.688 -0.1983 -0.1782 -0.1318
13030W        W29877   8.804  10.693  12.620 -0.1368  0.2144 -0.1855
13031W        W29878   9.047   6.600   5.132  0.3185  0.1316 -0.3122
13032W        W29879   8.879   5.377  14.707  0.0121  0.2077  0.1865
13033W        W29880  18.045  11.291  13.732  0.0156 -0.1460 -0.1514
13034W        W29881  14.237   4.006   1.954  0.0414 -0.1328  0.0192
13035W        W29882   9.083   9.824   4.109 -0.1143  0.1868  0.0279
13036W        W29883   8.809   7.623  12.804  0.1776  0.0769  0.0318
13037W        W29884  12.009   3.557  13.794  0.1405  0.1750  0.1166
13038W        W29885   3.076   4.161  13.933  0.0865  0.0763 -0.0868
13039W        W29886   7.230   3.777   2.741  0.2760 -0.0007 -0.1914
13040W        W29887  17.646  16.381   2.423  0.1167  0.1661  0.1281
13041W        W29888   1.289  14.646   2.688  0.1485 -0.1012 -0.2071
13042W        W29889   9.128   4.831   3.900 -0.2838  0.0077 -0.0579
13043W        W29890   3.144   8.789  12.342 -0.4019 -0.0966  0.0728
13044W        W29891  13.001   6.069   6.031  0.1002 -0.2027  0.2997
13045W        W29892  10.394   7.649  11.816  0.1718 -0.0614  0.1005
13046W        W29893   9.161  10.380  15.546 -0.0755  0.2447  0.1439
13047W        W29894  17.144  10.072   4.193 -0.0108  0.0024 -0.2340
13048W        W29895   0.009  14.094  11.795 -0.1271 -0.1323 -0.2127
13049W        W29896   4.804   6.150  15.985 -0.2807  0.0674 -0.1295
13050W        W29897  13.503  14.522  11.750 -0.1095 -0.0524  0.3557
13051W        W29898  11.983   2.067   1.616  0.1923  0.0965  0.0719
13052W        W29899  14.460   3.667   0.570 -0.0451 -0.1962 -0.1878
13053W        W29900   6.052   9.208  14.179  0.0819 -0.2976 -0.2395
13054W        W29901   5.283   1.368  12.919 -0.0119 -0.0723  0.1546
13055W        W29902   5.747   5.708  14.825 -0.1509  0.1875  0.0817
13056W        W29903  10.434  11.214  11.625  0.0706 -0.0193 -0.0182
13057W        W29904   1.913   9.590  12.092 -0.0150  0.1788 -0.0954
13058W        W29905  11.577   8.886   4.083 -0.0438 -0.0662  0.1069
13059W        W29906   1.251   9.753  14.857 -0.2538  0.1613 -0.0014
13060W        W29907   4.255  18.082   2.227  0.3818  0.1469  0.0464
13061W        W29908   1.662  15.181  13.251 -0.1470  0.0496 -0.2057
13062W        W29909   6.268  12.360   1.356 -0.3106  0.0821  0.0552
13063W        W29910   2.936   2.075   1.542  0.1003  0.0577 -0.0380
13064W        W29911  10.145   5.160   0.097 -0.1660  0.2290 -0.2602
13065W        W29912  17.024   0.975  14.339 -0.2563  0.2606 -0.2115
13066W        W29913  15.171  16.789  12.260  0.0334  0.2477 -0.0566
13067W        W29914  14.229   0.319  15.068  0.0342 -0.1191  0.0439
13068W        W29915  16.834   0.459  16.167 -0.0949  0.1234 -0.1301
13069W        W29916  16.563   8.172   0.518 -0.1559  0.2481 -0.0193
13070W        W29917   5.085   6.526   5.750 -0.0306 -0.1093  0.2342
13071W        W29918  15.213   2.588  14.214  0.2362  0.1574  0.0518
13072W        W29919   4.495  17.925  15.547  0.0752  0.0738 -0.2000
13073W        W29920   9.424   1.488  15.203 -0.2291 -0.0922 -0.0966
13074W        W29921   1.500   7.821  11.505  0.0954 -0.0153 -0.1363
13075W        W29922  17.941   4.638   4.364  0.0442  0.0613  0.2664
13076W        W29923  17.122  12.986   0.476  0.1511  0.2555 -0.0573
13077W        W29924  10.773  11.602  13.458  0.5422 -0.1522  0.0454
13078W        W29925  11.435   2.889   0.786  0.0755 -0.0880 -0.0406
13079W        W29926  15.483   2.311  11.679  0.1426 -0.0868  0.1869
13080W        W29927   9.137  13.060   4.155  0.0729 -0.0099 -0.1800
13081W        W29928  13.545  16.909   2.320  0.3403  0.0281 -0.0924
13082W        W29929   5.624   2.018   4.891  0.2743 -0.1978 -0.1118
13083W        W29930   8.882   1.358  16.071  0.1130 -0.0974 -0.2803
13084W        W29931  14.419  16.244  11.611  0.0067  0.1688 -0.0486
13085W        W29932   3.643   0.148  14.370  0.1572 -0.1305 -0.2323
13086W        W29933  10.522  14.849  15.732 -0.0659 -0.1839 -0.1218
13087W        W29934   3.306  10.551   1.040 -0.2595  0.0459  0.1266
13088W        W29935   7.787  13.649   0.259  0.1833  0.3217  0.0104
13089W        W29936  10.273   3.850   3.862  0.0221  0.1514 -0.0097
13090W        W29937   0.428  13.978   3.158 -0.2334  0.0082 -0.0013
13091W        W29938  10.623   5.424  12.310  0.4131 -0.0770  0.0626
13092W        W29939   0.973  14.281  13.998 -0.0212  0.2017  0.0917
13093W        W29940   6.245   0.949  12.430  0.0611  0.2290  0.0837
13094W        W29941   6.709   6.727  13.749  0.0398  0.3456  0.0601
13095W        W29942  13.328   7.000  12.774  0.2412  0.0803  0.2501
13096W        W29943   9.897  10.099   0.127  0.1155  0.0816 -0.0344
13097W        W29944   0.032  17.851   3.084 -0.1275 -0.0661 -0.2114
13098W        W29945   4.143   8.679  11.430  0.0762 -0.1382 -0.1689
13099W        W29946   4.495   4.952  14.078  0.0052  0.2052  0.2056
13100W        W29947   7.378  14.393   4.615  0.3558  0.0752 -0.0450
13101W        W29948   0.563   2.350   0.677  0.3820 -0.0248  0.0678
13102W        W29949   4.863   7.859   4.958 -0.0889  0.1797 -0.1479
13103W        W29950  18.206   9.167  11.794 -0.0740  0.2071  0.0336
13104W        W29951   2.821   8.483  13.414  0.2638 -0.1056 -0.0255
13105W        W29952   0.308  17.115   0.056 -0.2379  0.0769 -0.1726
13106W        W29953   8.571   6.373   5.246  0.1709  0.0703  0.0914
13107W        W29954   8.795  11.977   1.260  0.0833  0.1070  0.0342
13108W        W29955   5.416  10.773  12.334  0.4643 -0.1172 -0.2128
13109W        W29956   9.926  16.936   0.142 -0.0937  0.0906  0.1519
13110W        W29957  11.662   8.115  13.156  0.0145  0.1087 -0.4855
13111W        W29958   8.126  15.946  15.430  0.0404  0.2816  0.0109
13112W        W29959   3.448   3.718  12.645 -0.1688  0.0690 -0.4352
13113W        W29960   6.902   9.366  12.931 -0.1296 -0.1613 -0.1320
13114W        W29961   1.779  12.044  11.592 -0.1715 -0.1232  0.0207
13115W        W29962   4.211  13.005  16.135  0.3281 -0.1092 -0.1195
13116W        W29963   3.106   6.070   3.603 -0.0426 -0.1234  0.1098
13117W        W29964  12.736   9.570  11.171 -0.0762  0.0816 -0.0879
13118W        W29965   9.755   8.634  13.354 -0.0463  0.2302  0.0065
13119W        W29966   1.506  15.789   0.624 -0.0277 -0.1368  0.1478
13120W        W29967  11.144  15.959   1.002  0.0900  0.2958 -0.0636
13121W        W29968  10.658  16.116  14.208 -0.0039 -0.0338 -0.0230
13122W        W29969   1.824   7.218   5.088 -0.0403  0.0236 -0.0956
13123W        W29970   0.767   8.207  12.364  0.1557 -0.1238  0.0883
13124W        W29971   2.752  11.933  15.464 -0.0276  0.0557 -0.1611
13125W        W29972  13.751  12.317   1.525 -0.2251  0.0398  0.0588
13126W        W29973   0.724   6.838   2.383  0.1091 -0.0134  0.1511
13127W        W29974  18.103   4.408   0.663  0.2526  0.1547 -0.2102
13128W        W29975   9.449   1.886  15.699  0.1539 -0.1754  0.2902
13129W        W29976   8.473   2.692   0.880 -0.1052 -0.0774 -0.0331
13130W        W29977  10.860   5.227   3.169  0.2581  0.0910  0.1162
13131W        W29978   4.188  10.037  11.971  0.0496 -0.1374 -0.1530
13132W        W29979  12.911   3.598  14.833 -0.1596  0.0638 -0.1845
13133W        W29980  12.422   5.404  14.511  0.2388 -0.0275 -0.2688
13134W        W29981   3.364  11.416  11.799 -0.2767  0.3053  0.0948
13135W        W29982   7.760   3.841  13.841 -0.2068  0.0438  0.2965
13136W        W29983  16.685   8.288  12.152  0.1450 -0.1105 -0.0017
13137W        W29984  11.883  13.697  11.558  0.1654 -0.3388 -0.2589
13138W        W29985   8.284  10.784  12.477 -0.1154 -0.0029 -0.0847
13139W        W29986   2.123   2.600   0.624  0.0928  0.1327  0.2472
13140W        W29987  16.480   5.659  10.623 -0.2014  0.0115  0.2184
13141W        W29988  14.181  12.742   0.933 -0.0377 -0.1632  0.0629
13142W        W29989   0.456  17.499   4.457  0.1789 -0.0874  0.0330
13143W        W29990   0.077  16.033  14.095 -0.0178  0.2839  0.3224
13144W        W29991   8.790   0.983  12.815 -0.0349 -0.3051  0.0626
13145W        W29992   7.521   1.158  14.689 -0.3339  0.2196  0.0858
13146W        W29993  10.284   4.812   0.977  0.0651  0.2213  0.1734
13147W        W29994  14.516   3.205  11.822  0.2926 -0.3048  0.1210
13148W        W29995  15.590   5.825   3.281 -0.2147  0.1705 -0.1254
13149W        W29996   5.275   2.656   1.814  0.1553  0.1785 -0.0044
13150W        W29997   3.948  17.476   2.308  0.1255 -0.2045 -0.2460
13151W        W29998   0.024   2.654   4.723  0.1317  0.1023 -0.0896
13152W        W29999   5.833   8.215  13.217 -0.0384 -0.0308  0.1480
13153W        W30000   8.076  12.606  13.975  0.0129  0.2240 -0.3649
13154W        W30001  13.407  13.711  12.993  0.0985 -0.0373  0.3314
13155W        W30002  15.985  12.532  15.153 -0.3215 -0.0235 -0.3558
13156W        W30003   3.648  13.949   0.571 -0.1521  0.0456  0.2526
13157W        W30004   8.593   6.787  15.334 -0.1188  0.0423 -0.1529
13158W        W30005   1.106   7.149   1.799  0.3200  0.1500  0.3736
13159W        W30006   2.591   7.627   1.545  0.2078  0.0762  0.1000
13160W        W30007   6.360  13.459  14.395  0.1527  0.2749  0.0966
13161W        W30008  16.998   1.122   0.899 -0.1141  0.5889 -0.2549
13162W        W30009  15.167  11.844  11.734 -0.0113 -0.1613 -0.1234
13163W        W30010  15.354   6.667   3.919  0.0880 -0.1360  0.1068
13164W        W30011   3.965  14.608   0.132 -0.0506  0.0108 -0.4334
13165W        W30012  10.563  14.893   3.773 -0.1278  0.2708 -0.0529
13166W        W30013   6.489  13.143  14.782 -0.3392  0.3681 -0.0320
13167W        W30014  18.316  15.175  15.785 -0.1635  0.1263 -0.0024
13168W        W30015   9.034  16.977   1.360 -0.0455 -0.2072  0.0760
13169W        W30016  11.386   9.687  13.109 -0.0738  0.1681 -0.0886
13170W        W30017   0.178  13.422   3.578  0.3613  0.0319  0.0487
13171W        W30018   0.318   9.196  16.156  0.2190 -0.1919  0.0279
13172W        W30019   8.165   4.209  13.391  0.0967  0.2947 -0.0072
13173W        W30020   3.590  10.823   4.183  0.1081 -0.2242 -0.0027
13174W        W30021   5.190   6.298   0.084 -0.2861 -0.3499 -0.0229
13175W        W30022  15.086   0.246   1.999  0.1957 -0.1420  0.1514
13176W        W30023  17.284  16.562   5.146  0.1209 -0.0569 -0.2331
13177W        W30024   0.686   3.365   1.310 -0.2338 -0.0510 -0.2438
13178W        W30025   3.001  13.566  13.808 -0.1480 -0.2692  0.1566
13179W        W30026   9.605   3.673   1.994  0.0871 -0.0618  0.1134
13180W        W30027  13.797   8.781  11.149 -0.0909 -0.3067  0.2286
13181W        W30028  10.535   9.961  12.025  0.1529 -0.1306  0.0014
13182W        W30029   8.690  13.745  12.935  0.3581  0.0124  0.0493
13183W        W30030  10.661  14.516  14.914 -0.1056  0.0714  0.0353
13184W        W30031  18.302  15.783   1.374  0.2171 -0.2114 -0.0336
13185W        W30032  17.457   4.130   5.526  0.2182 -0.2561  0.2299
13186W        W30033  14.371  17.512   2.481 -0.3206  0.0906  0.0395
13187W        W30034  15.245  15.291   1.593 -0.2431 -0.0013 -0.1404
13188W        W30035   2.398  14.691  12.705 -0.2136  0.3244 -0.1977
13189W        W30036   8.418  17.864  12.441 -0.2787 -0.2239  0.2334
13190W        W30037  12.481  17.201   3.654  0.0010 -0.2812  0.0962
13191W        W30038   3.107   2.341   4.611  0.2290 -0.4564 -0.0953
13192W        W30039   9.425  14.416  13.174  0.0037  0.0293 -0.2151
13193W        W30040   3.411  14.037   5.658 -0.1184 -0.0288  0.0480
13194W        W30041   3.778  10.163   2.977 -0.2099  0.1002  0.1160
13195W        W30042   0.627   7.912  13.335 -0.2134 -0.0534 -0.0226
13196W        W30043  11.759  11.931   2.003  0.0702 -0.1312  0.1732
13197W        W30044   1.776   1.867   3.687 -0.0125  0.0623 -0.1562
13198W        W30045  14.901   2.083   3.458  0.1035 -0.0099  0.0697
13199W        W30046  12.221  11.348   2.901  0.2258 -0.0026 -0.1055
13200W        W30047  13.248  10.164   2.862  0.0539 -0.0852  0.1622
13201W        W30048   0.834  10.471  12.653 -0.1268 -0.0025 -0.2047
13202W        W30049  11.522  13.774   3.067 -0.0461 -0.1018  0.0310
13203W        W30050   7.586   8.370  16.169 -0.0782 -0.0318  0.0363
13204W        W30051   3.809  16.668  16.187  0.2192  0.2488 -0.2029
13205W        W30052  15.871   2.264  12.529  0.1975  0.0371 -0.0235
13206W        W30053   6.157   6.697   4.144  0.4846  0.0190  0.3063
13207W        W30054   5.911  15.373   0.581 -0.1234 -0.2806  0.0783
13208W        W30055   0.542   6.732  15.291  0.0241  0.1740 -0.0754
13209W        W30056   4.721  14.549  14.686 -0.1229  0.1675  0.1647
13210W        W30057  11.933   5.447  13.366 -0.1412 -0.2016  0.2677
13211W        W30058   8.340  14.415  15.924 -0.0408 -0.0119  0.1606
13212W        W30059   0.342   5.929  15.981 -0.2136 -0.0052  0.0785
13213W        W30060  12.001  14.140  14.704  0.1398  0.0564  0.2030
13214W        W30061  13.188  13.684  12.085  0.1222 -0.0250  0.1700
13215W        W30062   7.055   2.410  13.785  0.3122  0.1215  0.0142
13216W        W30063   4.179   1.524  11.801  0.2682 -0.0565 -0.3044
13217W        W30064   1.787   3.701   2.183 -0.2138 -0.3340  0.0159
13218W        W30065   8.280  16.642  13.242  0.1002  0.1261  0.0847
13219W        W30066   3.927  18.216  15.548 -0.0953 -0.4568  0.0973
13220W        W30067   5.707  16.498  11.296 -0.1376 -0.1096  0.0296
13221W        W30068  11.110   6.530  13.636 -0.0431 -0.1168  0.0505
13222W        W30069   0.303   2.149   4.017 -0.3465  0.2466 -0.0879
13223W        W30070  12.098   3.206   2.425 -0.0048  0.3381  0.0282
13224W        W30071   8.567  13.854   5.682 -0.1024  0.0113  0.1442
13225W        W30072   1.418  10.029   3.269  0.0313  0.1891 -0.0864
13226W        W30073   1.040  14.501   1.850 -0.0078  0.0475  0.1076
13227W        W30074  12.627   5.794   5.224  0.4509 -0.0749  0.2844
13228W        W30075   8.025  10.043  15.194  0.0649  0.2098 -0.1520
13229W        W30076  13.829   9.463  14.389 -0.1192 -0.1405  0.2136
13230W        W30077   7.838  14.058   4.697 -0.3238 -0.4239 -0.1585
13231W        W30078  15.491  11.532   0.138 -0.0672  0.3739 -0.0073
13232W        W30079   7.743   1.200  13.172 -0.6249 -0.0008 -0.0452
13233W        W30080  16.930  13.293  11.951  0.0368 -0.0184  0.4431
13234W        W30081   0.872   2.854   4.180 -0.3967 -0.0710 -0.2525
13235W        W30082   2.682  10.294  14.506 -0.0411 -0.2201 -0.1888
13236W        W30083  16.858  17.469   2.036 -0.0213 -0.2007 -0.3179
13237W        W30084  10.928   8.123  15.408  0.1318  0.0584  0.0287
13238W        W30085   4.006   2.478  14.099  0.0096 -0.0618 -0.0142
13239W        W30086   9.445   5.918  13.831  0.0687  0.0498 -0.3222
13240W        W30087  12.155   1.908  13.431  0.0261 -0.1924  0.1196
13241W        W30088  17.645   0.833   3.045  0.4838  0.1465 -0.1654
13242W        W30089   2.259   9.041   3.023  0.5395 -0.0367 -0.1298
13243W        W30090   4.731   6.107  11.720  0.2267 -0.0597 -0.0751
13244W        W30091   7.202   6.323  12.996 -0.0099  0.0993 -0.0395
13245W        W30092   4.787  12.470  13.674  0.1540  0.0844  0.0539
13246W        W30093   3.026  15.351  13.315  0.4032  0.0693  0.3551
13247W        W30094  16.014  11.397  12.643  0.0812 -0.1554  0.2869
13248W        W30095   9.040   7.242  11.459  0.0655  0.1822  0.1287
13249W        W30096  15.360  15.647  14.113 -0.1251  0.0362  0.0433
13250W        W30097  12.477  16.853  14.735 -0.2996 -0.2813 -0.0204
13251W        W30098   8.489   7.680   5.315 -0.1135  0.1921  0.0924
13252W        W30099   7.653  16.160  13.407 -0.1018  0.0868 -0.2220
13253W        W30100   6.002  18.129  12.632 -0.2342  0.1187  0.1697
13254W        W30101   0.809  14.470   2.431  0.0349  0.3801  0.0570
13255W        W30102   3.974  16.429   3.754  0.1587  0.1049 -0.3734
13256W        W30103  16.279  15.597  11.282 -0.5102 -0.1114 -0.1569
13257W        W30104   5.169  10.690   1.244  0.0241  0.2256 -0.2859
13258W        W30105   1.265  12.230  11.630 -0.0532  0.2126 -0.1947
13259W        W30106   1.141  16.642   3.214 -0.0583 -0.0939 -0.0877
13260W        W30107   6.612  16.784  12.714 -0.0323 -0.2288  0.0455
13261W        W30108   2.779  15.156   4.433  0.0491 -0.1856  0.0294
13262W        W30109   0.270  15.058   1.183  0.0426 -0.1032  0.3264
13263W        W30110  15.522   2.287   1.484 -0.0329  0.1282  0.2670
13264W        W30111   6.819   2.966  13.173 -0.0585 -0.0695  0.1703
13265W        W30112  11.589   7.684   3.645 -0.0359 -0.2769  0.1916
13266W        W30113   4.307   9.732  11.181  0.1561 -0.2386 -0.2217
13267W        W30114  12.917  13.738  13.114  0.3847 -0.0705  0.2853
13268W        W30115  13.909  15.910   3.682  0.2450 -0.2889  0.2155
13269W        W30116   0.833   0.376   1.528 -0.1201 -0.0003  0.0796
13270W        W30117   7.592  15.340  13.537  0.1973  0.0019  0.0773
13271W        W30118   7.593  14.784   3.869 -0.0189 -0.1046 -0.5116
13272W        W30119   0.918   4.724   2.723 -0.2704 -0.2095  0.2276
13273W        W30120   0.682   5.341   5.176  0.3457  0.0827 -0.1025
13274W        W30121  16.101   0.320  14.402 -0.1247 -0.3896 -0.0560
13275W        W30122   9.072   2.852  13.138  0.0512 -0.2241  0.2328
13276W        W30123   4.741   9.947  14.334 -0.0167 -0.3077 -0.2655
13277W        W30124   3.241   7.618  15.824 -0.2371 -0.1023  0.1810
13278W        W30125  13.069  13.057  15.736 -0.1377 -0.3353  0.2722
13279W        W30126  10.015   6.244   0.844  0.3229 -0.0345  0.0667
13280W        W30127  13.124  15.578   4.212  0.1437  0.1942 -0.1246
13281W        W30128   5.922  16.751   0.586 -0.4172  0.2985  0.0249
13282W        W30129  16.019  11.987   1.792  0.0735 -0.0719 -0.1414
13283W        W30130   5.864   3.682  12.896  0.1425 -0.0358  0.4160
13284W        W30131   3.686  13.586   2.658 -0.0162 -0.0894  0.0194
13285W        W30132  16.303  13.908  13.222 -0.2024  0.3051  0.0198
13286W        W30133  14.830   7.513  13.094 -0.0918  0.3909 -0.2980
13287W        W30134   3.997  15.907  10.848  0.1410 -0.3272 -0.0339
13288W        W30135  17.098   5.324  11.863 -0.3347 -0.1409 -0.0939
13289W        W30136   0.391  13.394  13.563 -0.0511  0.4105  0.2095
13290W        W30137  15.210   1.698   4.223 -0.0129 -0.3737  0.1442
13291W        W30138  17.899  12.782   0.703 -0.1807 -0.0478  0.2058
13292W        W30139  15.190  17.108   0.594  0.3112 -0.0000 -0.0728
13293W        W30140  11.108  17.634   0.750  0.0973 -0.3462 -0.1111
13294W        W30141   4.898  12.291   1.387  0.1489  0.2484 -0.1206
13295W        W30142  14.084  14.347   3.348  0.2883 -0.0743 -0.1527
13296W        W30143   9.969   0.365   2.520 -0.0196  0.0430  0.2969
13297W        W30144  12.492  10.835  14.628 -0.2807  0.1637 -0.0589
13298W        W30145  10.525  15.499  13.443  0.3115 -0.0930  0.0752
13299W        W30146  13.264  16.560   4.276 -0.0828 -0.3970 -0.1497
13300W        W30147  16.579   5.365   2.372  0.3483  0.0764  0.1039
13301W        W30148   2.196  12.797  14.404  0.2432 -0.2416  0.0934
13302W        W30149   7.128  16.734   0.246  0.3012 -0.0517 -0.2870
13303W        W30150   6.341  11.201   3.947 -0.0437  0.0388 -0.2732
13304W        W30151  13.183   5.780  12.651  0.0933  0.1213  0.4263
13305W        W30152  15.317   6.920  11.378  0.0316 -0.0508  0.0659
13306W        W30153   0.871  17.621   5.550 -0.2826  0.2296  0.1170
13307W        W30154  12.132   9.331   2.287  0.3196  0.0362  0.3071
13308W        W30155  14.149   8.124   2.415  0.0968 -0.2010  0.2479
13309W        W30156   7.354   6.023   4.857  0.1851 -0.4947  0.0858
13310W        W30157  11.352   2.851  12.639  0.1436 -0.0498 -0.0363
13311W        W30158   0.164  10.491  13.110  0.1728  0.0623 -0.0684
13312W        W30159  10.259   0.512  14.952  0.0124 -0.0379  0.0206
13313W        W30160   5.235  11.971  12.100  0.2850 -0.0213  0.1099
13314W        W30161   1.996   5.934  15.183  0.0158 -0.1882 -0.4560
13315W        W30162  12.797  11.046  15.108 -0.0192  0.0642 -0.0237
13316W        W30163   4.507   0.971   4.932  0.1599 -0.3195 -0.1077
13317W        W30164   3.188  12.479   0.593  0.2762 -0.0695 -0.2878
13318W        W30165   8.245   5.783   1.229  0.0435  0.2726  0.1661
13319W        W30166   6.596  14.938   2.331 -0.2173 -0.3390  0.1394
13320W        W30167  14.327   5.034  14.817 -0.1975 -0.0683 -0.1086
13321W        W30168  12.238  10.824   4.093  0.1873  0.1327  0.0297
13322W        W30169   0.784  15.194  14.218  0.2807 -0.2254  0.0868
13323W        W30170  17.252  13.978  11.458  0.0581  0.0148  0.0061
13324W        W30171  15.151   6.902   1.710  0.4014  0.2209  0.2812
13325W        W30172   0.886  15.277  16.002  0.2166  0.0560  0.0698
13326W        W30173   6.534   4.498   4.501 -0.1961  0.0327  0.1407
13327W        W30174  14.142  15.445   4.474 -0.1648  0.1810 -0.1829
13328W        W30175  10.368  12.507   2.342  0.0729  0.0538  0.1034
13329W        W30176  17.821  11.943   4.162 -0.0354 -0.1350 -0.0043
13330W        W30177   1.683   8.623  15.292 -0.3060  0.1105 -0.0885
13331W        W30178  16.296   6.620  12.566 -0.0620 -0.1371  0.1817
13332W        W30179   6.154   3.870  10.451  0.2141 -0.2392  0.0872
13333W        W30180  11.784   1.679   1.403 -0.1812 -0.1119  0.1900
13334W        W30181  17.597   4.806  12.266  0.1642 -0.0791  0.1350
13335W        W30182  12.919  15.047   2.975  0.0016  0.1715  0.1799
13336W        W30183   8.422   1.268   1.270  0.0483 -0.2529 -0.0314
13337W        W30184   3.179   3.265   5.210  0.0120 -0.2611  0.0579
13338W        W30185  12.164   0.462   3.714 -0.1115  0.1715 -0.0039
13339W        W30186  16.449  17.362   2.393 -0.2039  0.0186  0.1623
13340W        W30187   2.048   4.962   1.109  0.0872  0.0439 -0.2911
13341W        W30188   1.937   1.215   4.099  0.0628  0.2512  0.1018
13342W        W30189   7.397   4.493   6.076  0.0348 -0.0417 -0.1612
13343W        W30190   2.720   8.092   1.516  0.0712 -0.1454  0.1003
13344W        W30191  12.387   1.744  15.330  0.1750 -0.0349 -0.1265
13345W        W30192   1.997   9.375   5.628  0.0528  0.1992  0.1947
13346W        W30193  11.420  13.586   5.704 -0.0679 -0.1935  0.3775
13347W        W30194   4.150  10.971   4.669 -0.1271  0.0236 -0.1253
13348W        W30195  12.354   7.320  13.950 -0.0699  0.1167 -0.0174
13349W        W30196   0.620   7.761  16.038  0.1438  0.3144  0.1293
13350W        W30197   6.359   9.917  15.598 -0.3597  0.2134 -0.0805
13351W        W30198  17.007  15.744  11.006  0.1745  0.1751  0.0930
13352W        W30199  18.094   0.994   2.889 -0.0137  0.3805  0.0750
13353W        W30200  17.507   8.621   1.295 -0.1386 -0.1098  0.0300
13354W        W30201   4.138   8.340  11.039  0.1108  0.1990 -0.3377
13355W        W30202   5.940   0.606   5.574  0.2151  0.3624 -0.2896
13356W        W30203  11.693   7.495  15.954  0.2160  0.2035 -0.1316
13357W        W30204  11.306   7.423   3.268 -0.2182  0.0992 -0.2092
13358W        W30205  17.878   5.284  11.203 -0.0364 -0.0860  0.1825
13359W        W30206   1.079   7.438   1.308  0.3080 -0.1452  0.1616
13360W        W30207  16.739  15.345  11.260 -0.1516 -0.0351 -0.0315
13361W        W30208   2.885   6.079  14.176 -0.0423  0.0331 -0.0173
13362W        W30209  15.691   5.153  10.782  0.2485 -0.2901 -0.1388
13363W        W30210   9.124  14.014   3.410 -0.1198  0.1442  0.3199
13364W        W30211   2.681   6.173   0.574 -0.3274  0.3669 -0.3342
13365W        W30212  11.238  15.342  15.205 -0.2990  0.2175 -0.2099
13366W        W30213   9.886   8.932  11.255  0.0831  0.0291  0.1098
13367W        W30214   5.256   1.142   0.716  0.0775  0.2370 -0.0914
13368W        W30215  16.002  12.539   5.389 -0.1655 -0.0370  0.1144
13369W        W30216   9.230   4.503  13.470  0.1436 -0.3188 -0.3499
13370W        W30217  18.192   1.205   3.320 -0.1399 -0.2227  0.2058
13371W        W30218   0.310  17.396   2.218 -0.1199 -0.1836 -0.1682
13372W        W30219  17.602   0.381  13.755 -0.0055 -0.2357 -0.1523
13373W        W30220   5.878  17.188   3.429  0.1609  0.1715  0.1676
13374W        W30221  17.855   2.127  13.093 -0.0441  0.2397  0.2286
13375W        W30222  11.555   8.508   2.521 -0.2387  0.0965  0.2134
13376W        W30223  17.045  14.699  13.952  0.0590  0.2216  0.0588
13377W        W30224   5.718   4.316   0.015 -0.1593 -0.0700  0.2348
13378W        W30225  14.248   5.270   3.720  0.0859 -0.0594 -0.0885
13379W        W30226   4.061  17.044   2.159  0.1209 -0.1309  0.1292
13380W        W30227   6.121   9.404   3.986  0.3215 -0.1040  0.1391
13381W        W30228  10.558  14.653   2.399  0.1819 -0.0967  0.0760
13382W        W30229   9.742  16.451   3.380 -0.0454 -0.2018 -0.2927
13383W        W30230   3.051  11.038  11.878  0.0529 -0.1705  0.2541
13384W        W30231   6.812   9.624   5.652 -0.0997 -0.2860 -0.0104
13385W        W30232   2.547   7.565  14.612  0.1451 -0.0975 -0.0734
13386W        W30233  14.495   2.241   4.813 -0.2050  0.0205  0.0945
13387W        W30234  11.259  18.243   2.646 -0.0117 -0.1673 -0.0111
13388W        W30235   7.168   8.493  13.495 -0.1792 -0.0349 -0.0102
13389W        W30236  12.749   7.386   3.153  0.4421 -0.4376 -0.1517
13390W        W30237   9.568  12.142   4.752  0.0305  0.2768 -0.0821
13391W        W30238   9.561   7.194   5.209 -0.3091 -0.1961 -0.0455
13392W        W30239  10.075  17.164   3.662  0.1010 -0.1329  0.2447
13393W        W30240  13.590   5.240  15.239  0.1214  0.0286 -0.1472
13394W        W30241   8.965   2.238  14.761  0.1849  0.0334  0.0563
13395W        W30242  15.989   1.969  14.302 -0.2383  0.1671  0.1766
13396W        W30243   4.280  17.789   5.477 -0.0206 -0.0338 -0.0461
13397W        W30244   9.760   0.422  12.664 -0.1055  0.0282 -0.1712
13398W        W30245  16.982   3.010  15.021 -0.0827  0.1944  0.0803
13399W        W30246   7.744  11.571   1.258  0.1414 -0.0801 -0.1545
13400W        W30247  16.040   9.944   3.933  0.0774 -0.3248 -0.0610
13401W        W30248  15.077   8.530  15.597  0.0169  0.0443 -0.1288
13402W        W30249   4.322  14.873   0.426  0.2593  0.5434 -0.1182
13403W        W30250  10.886  11.175   4.601  0.0260  0.1048 -0.2007
13404W        W30251  17.296  12.516   4.520  0.1950  0.1141  0.2395
13405W        W30252  18.057   6.846   1.483  0.1696 -0.1796  0.1353
13406W        W30253  10.254   1.125  15.184 -0.0409 -0.2345  0.0410
13407W        W30254  11.708   2.429  15.035  0.1686  0.2429 -0.2797
13408W        W30255   7.153   0.256  13.894  0.1754 -0.0186 -0.0434
13409W        W30256   5.335   9.509   0.800  0.1045 -0.1901  0.0651
13410W        W30257  11.071   8.595  16.128  0.1383 -0.1705  0.2253
13411W        W30258   3.561   9.183  14.307  0.0985 -0.0853 -0.2237
13412W        W30259  13.764  13.379   4.252  0.0837  0.0465  0.0125
13413W        W30260   3.310  17.831  13.166  0.1681 -0.1256  0.0773
13414W        W30261   6.718  16.252  15.814  0.0360  0.0232  0.0752
13415W        W30262  12.961  17.996   0.443  0.0095  0.0368 -0.1995
13416W        W30263   6.185   3.934  15.889 -0.2367 -0.1325 -0.0494
13417W        W30264  13.515  15.591  15.402  0.0526 -0.2794  0.0471
13418W        W30265   8.852   8.111  14.043 -0.2147  0.2226 -0.1254
13419W        W30266   9.788   0.709  14.236 -0.1050 -0.2450 -0.0163
13420W        W30267   0.643  13.698   0.365 -0.0162  0.1624  0.1210
13421W        W30268   6.572   3.004  10.927  0.2932 -0.1869  0.1951
13422W        W30269   6.673   0.881   0.248  0.2933  0.1204 -0.0639
13423W        W30270  15.789   8.370   0.891  0.1003 -0.2987 -0.0116
13424W        W30271   0.704  13.288   2.116  0.2373 -0.3243  0.1778
13425W        W30272  16.108   6.812   1.178  0.1141  0.0882  0.1868
13426W        W30273   8.924  16.549  12.244 -0.0045 -0.0577 -0.0702
13427W        W30274  15.467   8.723  11.665  0.0964  0.2898  0.1197
13428W        W30275  13.001  15.831   0.041 -0.0471 -0.2258  0.0659
13429W        W30276   9.473  11.610  15.577 -0.2207  0.2505 -0.0693
13430W        W30277   1.603   1.890  12.156  0.1689  0.2066 -0.3193
13431W        W30278   4.132   2.058   0.689 -0.0020  0.0968  0.3626
13432W        W30279   2.865  17.440  12.506  0.3493 -0.1347 -0.1264
13433W        W30280   6.437  13.956  14.556 -0.4273  0.0688  0.2058
13434W        W30281   9.522   6.869  12.731 -0.2453 -0.4800  0.0743
13435W        W30282  15.715   3.681  14.402 -0.1063  0.1157 -0.0770
13436W        W30283  15.563  10.674  12.365 -0.2354 -0.1858  0.0246
13437W        W30284  15.763   9.043  11.949 -0.0031 -0.0413  0.0981
13438W        W30285   4.366   9.253  15.673  0.1353 -0.0810 -0.2120
13439W        W30286   7.145  17.898  13.868 -0.0087  0.0522  0.0732
13440W        W30287   8.451   0.836  12.078 -0.1658  0.1118  0.1646
13441W        W30288   1.367   2.157  14.600  0.0940  0.0438 -0.0851
13442W        W30289   6.186   7.669  14.010  0.0652 -0.1403  0.2265
13443W        W30290   0.443   3.017   3.994  0.2833 -0.5317 -0.0533
13444W        W30291  17.978  14.762  15.596 -0.0546 -0.2313 -0.0373
13445W        W30292   6.703   6.142  12.159 -0.1148 -0.0307  0.0313
13446W        W30293   4.412  14.690   3.422 -0.0156 -0.0246 -0.2160
13447W        W30294   5.680   1.880   5.706 -0.0863  0.2030 -0.2829
13448W        W30295  13.503   5.736   0.426  0.1581 -0.2577  0.1772
13449W        W30296   7.792  17.772  16.180  0.0413  0.1139 -0.1659
13450W        W30297  11.625   7.366   4.034  0.0263  0.1705  0.0031
13451W        W30298  17.763  16.958   3.668  0.1612 -0.2070 -0.0743
13452W        W30299   9.163   2.281  14.310 -0.1367  0.1394 -0.1118
13453W        W30300  13.663   8.197   4.163 -0.2874  0.1859 -0.1439
13454W        W30301   7.519  16.815   1.577  0.1003 -0.0238  0.1149
13455W        W30302   4.942   8.525  15.360 -0.2018 -0.1663 -0.1927
13456W        W30303   1.826   8.070   1.553 -0.2599  0.0580  0.0133
13457W        W30304   6.975   0.230   0.891  0.1071  0.1443 -0.0326
13458W        W30305   1.076   4.045   2.546  0.1707  0.1815 -0.0012
13459W        W30306  10.419  15.824  15.813 -0.1586  0.0187 -0.2076
13460W        W30307   1.349   6.229  12.076  0.2015  0.3030 -0.0584
13461W        W30308  15.038   1.097   1.221  0.1248 -0.0398 -0.0672
13462W        W30309   1.346  11.128   5.597 -0.2148 -0.1870  0.1843
13463W        W30310  11.771  12.331   2.449 -0.0142  0.0568  0.1049
13464W        W30311   2.118  12.774   0.122  0.0586 -0.0734  0.0895
13465W        W30312  10.504  12.236  12.092  0.3474  0.0388  0.0624
13466W        W30313  15.233   6.091   1.381 -0.0299 -0.1950  0.0131
13467W        W30314  10.418   2.825   1.696  0.1508  0.1965 -0.2985
13468W        W30315   3.854   9.848   1.776 -0.0259 -0.1832  0.1648
13469W        W30316  13.433  13.982  15.843 -0.3323  0.1576  0.0126
13470W        W30317   4.998   0.724   3.787  0.1112 -0.0564  0.1158
13471W        W30318   4.088   8.734   5.177  0.1461  0.1252  0.3736
13472W        W30319  10.090  15.698   1.699  0.2094 -0.1784  0.0795
13473W        W30320   0.879  13.277   0.610  0.2070  0.0608 -0.1664
13474W        W30321  16.681  16.049   0.107  0.0636  0.0748  0.0771
13475W        W30322   0.742   8.286  15.310 -0.1888 -0.1982  0.1793
13476W        W30323  12.269   5.982  10.908  0.0714  0.1086  0.1141
13477W        W30324  16.592   9.616  14.556 -0.2243  0.1269  0.1995
13478W        W30325  17.156   8.845   0.390  0.0935 -0.1376  0.0798
13479W        W30326   3.129   6.764  13.068 -0.1030  0.2196  0.0158
13480W        W30327  17.623   4.300  12.248 -0.1113 -0.4955  0.0979
13481W        W30328   2.115  10.202  13.152 -0.1335  0.0571  0.1152
13482W        W30329  13.306  10.061  15.358  0.3411  0.2443 -0.0561
13483W        W30330  12.059   8.907   0.122  0.2270 -0.2564 -0.0959
13484W        W30331  14.382   4.432  15.820 -0.0104 -0.1655  0.0576
13485W        W30332   6.891  14.333   3.292  0.1685  0.0428  0.2284
13486W        W30333   2.787  12.142  13.382  0.1174 -0.0749  0.0852
13487W        W30334  15.929  10.238   1.000  0.1646  0.2214  0.2186
13488W        W30335  11.403   0.687   1.696  0.1621  0.1856  0.0100
13489W        W30336   0.576   8.338   2.306 -0.1154 -0.3561  0.0541
13490W        W30337   9.535   7.582  13.441 -0.0352  0.0438 -0.1778
13491W        W30338  15.294   4.021   3.948 -0.1043  0.0038 -0.1372
13492W        W30339  16.751  10.778  15.945 -0.0267  0.0809 -0.2501
13493W        W30340   1.567   0.847  11.466 -0.0553 -0.0733  0.0505
13494W        W30341   8.866   3.679   2.460 -0.1193 -0.1774 -0.0592
13495W        W30342   7.382   4.150   4.113  0.0079  0.0868 -0.1766
13496W        W30343   8.818  12.923   2.301  0.0483 -0.1005  0.0915
13497W        W30344   7.463   5.374  15.989  0.0460 -0.0581  0.1268
13498W        W30345  15.287  17.764  13.989 -0.1588 -0.1160 -0.0015
13499W        W30346   5.023  15.299  15.753 -0.0695 -0.0858 -0.1062
13500W        W30347  13.600  17.282   4.258  0.2300 -0.2501  0.0367
13501W        W30348   3.497  17.933  12.414  0.0190  0.2349 -0.0930
13502W        W30349  11.808   7.148  15.639  0.2362  0.0646  0.0514
13503W        W30350  17.706  15.220   3.892  0.2831 -0.0218 -0.0946
13504W        W30351   9.319   9.604   0.882  0.3865  0.4198 -0.0590
13505W        W30352  17.329  10.419  13.774  0.0066 -0.0287  0.1985
13506W        W30353   8.022  16.582   4.782  0.0042 -0.1475 -0.2418
13507W        W30354  14.868  12.863   4.258  0.2005  0.3202 -0.2420
13508W        W30355   7.917  12.890   1.542  0.0208  0.1148  0.1484
13509W        W30356   5.717   4.588  14.545  0.2952 -0.0310  0.3050
13510W        W30357   4.699  13.806   3.524  0.1365  0.1047  0.2344
13511W        W30358  10.940  11.572  14.145 -0.1045 -0.0858  0.0963
13512W        W30359   4.416  13.445  15.284 -0.0111 -0.1858 -0.0986
13513W        W30360  14.102  11.505  11.140 -0.0613  0.1021 -0.0390
13514W        W30361  16.014   8.832   0.833 -0.2616  0.2364 -0.1104
13515W        W30362   3.332   4.439   5.326  0.0213 -0.4003  0.0115
13516W        W30363  13.971   5.261  13.765  0.2108  0.0445  0.1778
13517W        W30364  13.860   2.768  11.033  0.0754 -0.1272  0.1125
13518W        W30365  12.916  10.489   3.810 -0.0458 -0.0724  0.2325
13519W        W30366   1.351   5.336   2.044 -0.2170  0.4445 -0.1898
13520W        W30367  17.420   1.872   4.254 -0.2303 -0.0676  0.1591
13521W        W30368  10.368   0.798   5.135 -0.1554 -0.2831 -0.5689
13522W        W30369  15.920   9.039  14.889  0.1152  0.1418 -0.0597
13523W        W30370   4.397   6.103   0.017  0.0331 -0.2205  0.0903
13524W        W30371  17.679   9.604   2.068 -0.2276  0.1695 -0.0440
13525W        W30372   3.299   7.435  12.038  0.0748 -0.1228  0.0971
13526W        W30373   6.782  17.169   2.055  0.1808 -0.2025  0.0263
13527W        W30374   3.107  16.735  13.559  0.2083 -0.0466 -0.0778
13528W        W30375   3.945  14.373  11.840  0.2138  0.2411 -0.0804
13529W        W30376  17.143  11.450  12.696  0.1290 -0.1027  0.0718
13530W        W30377   2.166   9.221   0.922 -0.0959  0.0031  0.0556
13531W        W30378  10.166  15.114   1.653  0.1612  0.0186 -0.1817
13532W        W30379  13.891  16.255  14.131  0.0411  0.0237 -0.1618
13533W        W30380   3.888  10.293  13.335  0.0346  0.0740  0.2970
13534W        W30381   1.829   9.049   3.988 -0.0222  0.2024  0.0020
13535W        W30382   9.648   0.693  10.358 -0.1219 -0.0338 -0.0122
13536W        W30383   4.688   0.491   4.067 -0.2296  0.4642 -0.0641
13537W        W30384   3.397   9.887   0.719 -0.0099  0.0955 -0.1717
13538W        W30385   6.054  10.113  13.024 -0.0972 -0.0079  0.0175
13539W        W30386   9.668   0.754   1.544  0.4006  0.0120  0.3560
13540W        W30387  13.933   7.087   5.273 -0.1499  0.1220  0.0749
13541W        W30388   9.109  16.337  16.156  0.3576 -0.3432 -0.0655
13542W        W30389   3.317   2.843  14.990 -0.2239  0.1667  0.3468
13543W        W30390   0.848   3.541  13.228  0.1372 -0.0641 -0.1250
13544W        W30391  16.067  12.300   6.072 -0.2577  0.1508  0.0828
13545W        W30392  14.568   6.773  11.965 -0.2865  0.2156  0.1405
13546W        W30393  12.157   4.959   0.736  0.3282  0.0957  0.3331
13547W        W30394   0.774   2.925   5.069  0.0461 -0.0535 -0.2183
13548W        W30395  10.260   9.370  12.566  0.1029  0.1199  0.0903
13549W        W30396  13.907  14.417   1.237 -0.0455 -0.0035  0.0916
13550W        W30397  16.310   4.895  15.934  0.1075  0.0400 -0.0137
13551W        W30398   9.691  13.331   4.322  0.1380 -0.0589  0.0440
13552W        W30399   2.278  15.595  13.891 -0.0457  0.1605 -0.4269
13553W        W30400   9.537   3.160   2.120 -0.1201 -0.1359  0.4364
13554W        W30401   4.124  15.652  12.265  0.1077 -0.1916  0.2233
13555W        W30402   6.003   0.748  12.921 -0.0982  0.0994 -0.2375
13556W        W30403   0.910   3.895  15.446  0.0369 -0.0718  0.0507
13557W        W30404  14.953   6.352  13.742 -0.0110  0.2326 -0.3627
13558W        W30405  10.469   2.973   4.177 -0.2758 -0.0382 -0.0894
13559W        W30406  14.411   5.580   1.520  0.3391  0.3960  0.0579
13560W        W30407   2.654   8.398   5.685 -0.2652  0.2096 -0.1768
13561W        W30408  12.669  13.829   0.174 -0.1504  0.0896  0.0850
13562W        W30409   3.542  11.305  13.850 -0.0254  0.0280  0.0339
13563W        W30410  10.924  10.945  13.914  0.0608 -0.0006  0.1086
13564W        W30411   2.967   4.604   3.206  0.0326 -0.3413 -0.0940
13565W        W30412  15.107  11.594   2.069 -0.0281 -0.0018 -0.0560
13566W        W30413   5.721  11.781  16.077  0.0415  0.0750 -0.2399
13567W        W30414   6.070   8.999   3.184 -0.1023 -0.0173  0.2075
13568W        W30415  12.737  17.784  11.376  0.1718 -0.2363  0.1308
13569W        W30416   8.534  17.959   4.982  0.3127  0.1253 -0.1998
13570W        W30417   3.369  16.712  15.971 -0.1160 -0.0351  0.2415
13571W        W30418  14.952   1.110  15.412 -0.1090 -0.0680  0.0753
13572W        W30419   8.712   5.131   2.184 -0.2910 -0.0287 -0.1329
13573W        W30420   3.791  17.953  11.459 -0.0879 -0.1413  0.0896
13574W        W30421   5.035   4.695   5.167  0.1174  0.0983  0.1676
13575W        W30422   0.045   2.203  11.013 -0.0036 -0.2312 -0.2117
13576W        W30423  11.406  16.248  12.725 -0.0806 -0.3507 -0.2792
13577W        W30424   3.317   2.020   3.754  0.2722  0.0739 -0.0947
13578W        W30425   0.258  15.527   2.695  0.0467 -0.3250  0.0113
13579W        W30426   1.598  12.988  14.556 -0.1231  0.2198 -0.0984
13580W        W30427   0.323   3.264   1.720 -0.0131 -0.1689 -0.3281
13581W        W30428   8.529  17.815  15.086  0.1147 -0.0414 -0.2226
13582W        W30429  11.384   4.046   1.631  0.1928  0.1221 -0.1393
13583W        W30430  15.217   2.389  13.715 -0.0542 -0.1819 -0.3834
13584W        W30431  15.929  14.723  15.370 -0.1367 -0.1940 -0.0773
13585W        W30432   9.229  16.953   5.307 -0.0817 -0.3216  0.1200
13586W        W30433  16.559   1.129   2.655 -0.0794 -0.1622 -0.2290
13587W        W30434   4.475   0.903   2.939  0.3357  0.0640  0.0202
13588W        W30435  15.426  17.264   1.776 -0.0122  0.1149 -0.1585
13589W        W30436   9.369   2.595   0.271  0.1157  0.2579  0.0812
13590W        W30437  17.660   7.155   5.461  0.1213 -0.0985 -0.0843
13591W        W30438   8.122   6.281   4.622 -0.2434  0.2857 -0.1731
13592W        W30439   1.183   3.248  11.110 -0.1226 -0.2245  0.0785
13593W        W30440   6.352   2.311   2.627 -0.0047  0.0571  0.0722
13594W        W30441  15.080   4.042   1.025 -0.0232  0.0265  0.0295
13595W        W30442  15.049   5.690  14.635  0.0091 -0.2394 -0.0908
13596W        W30443   9.681   5.360   2.282 -0.1164  0.0965 -0.4244
13597W        W30444   4.693   0.677  11.434  0.1840  0.0440  0.1920
13598W        W30445   3.799   6.616  14.204 -0.1688 -0.2321  0.3648
13599W        W30446   7.519  17.118  14.175  0.0595 -0.1101  0.1684
13600W        W30447   3.102  12.177  12.180  0.0786  0.2046  0.2042
13601W        W30448  12.779  14.463   0.363 -0.0965  0.0899  0.0114
13602W        W30449   5.311  14.527   5.100 -0.3935 -0.0623 -0.0026
13603W        W30450  15.692   6.602  13.174  0.1061  0.0110  0.0420
13604W        W30451   6.754   9.105  12.013  0.0469  0.0191  0.2635
13605W        W30452  16.034  14.203  12.603 -0.0510  0.2809 -0.2076
13606W        W30453  16.516   7.794   4.560  0.0583  0.2929  0.2647
13607W        W30454   3.075   0.264  12.975  0.3607  0.1815 -0.0242
13608W        W30455   0.873   1.488   0.750 -0.0314 -0.0442 -0.1222
13609W        W30456   9.004  12.332  13.241 -0.1022 -0.0439 -0.2165
13610W        W30457   3.771  12.740  16.125 -0.2167 -0.0177 -0.0351
13611W        W30458   2.503   4.273   2.316  0.1676 -0.0219  0.0281
13612W        W30459   3.833   2.796  13.643 -0.0931 -0.0549 -0.1128
13613W        W30460   4.117  10.601   2.084 -0.3636  0.1085 -0.0935
13614W        W30461  13.454   4.657  14.684  0.1002  0.0707  0.3305
13615W        W30462   6.929  18.263  15.583 -0.0108 -0.4433 -0.0560
13616W        W30463   4.905   0.967  11.744 -0.0908 -0.1292 -0.0236
13617W        W30464  12.874   3.346   0.449  0.0714  0.0559  0.1612
13618W        W30465  15.570   1.546  15.046  0.3238 -0.0896 -0.2567
13619W        W30466   5.246   4.947  12.431 -0.0109  0.0409  0.0455
13620W        W30467   7.666  13.023   1.954  0.1120  0.1074 -0.1401
13621W        W30468   2.469   9.123   3.668  0.0305 -0.0723  0.4369
13622W        W30469  12.134   0.483   2.089 -0.3870  0.1501 -0.2576
13623W        W30470   7.626  12.137  15.326  0.0233 -0.1749 -0.1177
13624W        W30471  17.779   1.881  14.843 -0.1404 -0.1621  0.0797
13625W        W30472   9.159  17.437  14.585  0.0778  0.0508 -0.0791
13626W        W30473  17.583   6.631   4.065  0.0776 -0.1407 -0.0419
13627W        W30474  17.810   1.416  11.119 -0.0476 -0.1374 -0.0881
13628W        W30475   8.079  14.984   4.653  0.0845 -0.2235 -0.4595
13629W        W30476   7.583   8.357   3.404  0.0026  0.3609 -0.0323
13630W        W30477  17.579  13.339  15.214 -0.1699 -0.0598 -0.2303
13631W        W30478   6.420  16.454  15.333 -0.1606  0.3003  0.1981
13632W        W30479   4.947   5.687  11.501 -0.0006 -0.1806  0.0552
13633W        W30480   9.146  11.942  12.875  0.2584  0.2638 -0.3164
13634W        W30481   0.530  11.201   5.464 -0.2648  0.0256 -0.1888
13635W        W30482  16.729   6.089  10.708  0.1620  0.1245 -0.1872
13636W        W30483   7.901  13.849  10.683 -0.1143 -0.0969  0.1760
13637W        W30484   2.809  11.674   0.480 -0.1178  0.2176  0.1784
13638W        W30485  12.984   4.355  13.127  0.0861  0.0961  0.0932
13639W        W30486   4.197  17.293   5.559 -0.0651 -0.4250 -0.0681
13640W        W30487  15.274  10.845  13.737  0.2070 -0.1104 -0.4224
13641W        W30488  10.772   8.093   3.789  0.1808 -0.0095  0.0338
13642W        W30489   2.628  10.621  15.306  0.1750 -0.0682 -0.3555
13643W        W30490  16.208   1.903  12.339  0.1683 -0.0122 -0.1812
13644W        W30491   2.418   3.653   0.996  0.0396  0.1646 -0.0160
13645W        W30492   0.118   5.451   4.337  0.2677  0.1259 -0.0131
13646W        W30493   9.649   8.496   3.662 -0.0893 -0.0874 -0.0616
13647W        W30494   9.813   5.680  11.181 -0.0920 -0.1506 -0.1135
13648W        W30495   7.010  13.638   0.367 -0.2783  0.0032 -0.0453
13649W        W30496  13.405  17.031  12.387 -0.2452 -0.0341  0.1797
13650W        W30497   5.508  14.553   5.640  0.0708  0.1472 -0.1008
13651W        W30498   9.658   4.414  13.297  0.0990 -0.1893  0.1040
13652W        W30499   2.643  15.078  12.347 -0.0605 -0.3614  0.0480
13653W        W30500   8.870   8.905  13.615 -0.1541 -0.3760 -0.2068
13654W        W30501  16.905   1.192   3.021 -0.2840 -0.0177  0.0447
13655W        W30502  12.877   9.033   3.793 -0.1179 -0.0902  0.0367
13656W        W30503   5.557  15.078  14.778 -0.1327  0.0499  0.1671
13657W        W30504   5.100   9.984  14.716 -0.0513  0.1508 -0.0181
13658W        W30505   5.001  15.841  14.191  0.0417  0.2061 -0.0627
13659W        W30506   3.315  17.981   3.452 -0.3115  0.1850 -0.0635
13660W        W30507   9.165  10.501  15.071  0.0496 -0.2133 -0.0998
13661W        W30508   7.988  16.239  12.936  0.2151  0.2083  0.2859
13662W        W30509   1.361  16.452   4.591 -0.1994  0.0464  0.2453
13663W        W30510   1.092  13.169   4.707  0.2826 -0.1007  0.1287
13664W        W30511   4.770  11.401  15.630  0.1066 -0.0633 -0.1101
13665W        W30512   9.757   4.130   1.712 -0.5648 -0.0388 -0.0505
13666W        W30513   5.328   5.376   1.571  0.1130 -0.1205 -0.0595
13667W        W30514   7.040   8.687   5.644 -0.0622  0.2714  0.0800
13668W        W30515  12.546   2.256  13.468  0.2145 -0.0755  0.2607
13669W        W30516  16.005  13.476  13.316  0.0006  0.1745  0.1586
13670W        W30517  13.549   4.459   1.730  0.1135  0.0677 -0.1597
13671W        W30518   5.755  11.602   4.516 -0.0055 -0.0111 -0.0388
13672W        W30519  17.964  16.106   3.478  0.1344 -0.1666  0.0167
13673W        W30520   3.545   4.187   4.921  0.0894 -0.0107 -0.0041
13674W        W30521  14.576  12.921   3.858 -0.0598  0.0128  0.0129
13675W        W30522  12.857  12.983  15.269  0.1337 -0.0521 -0.1246
13676W        W30523   1.381  13.835   2.165  0.0302 -0.0061  0.2955
13677W        W30524  10.611   3.193  15.516  0.1388  0.3752  0.0515
13678W        W30525   6.269   9.341  15.452  0.1439 -0.0503 -0.1293
13679W        W30526   1.649   3.839  13.099 -0.2150 -0.1372  0.0105
13680W        W30527   4.433   2.378   1.575  0.0987  0.1736  0.1288
13681W        W30528  10.803   3.302   2.772 -0.2136 -0.2664 -0.1607
13682W        W30529  17.961  15.988   4.744  0.2565  0.1763  0.1590
13683W        W30530   1.405  10.222   0.103 -0.0886 -0.1270  0.2212
13684W        W30531  13.492   6.751  15.231 -0.2288  0.1506  0.3039
13685W        W30532  12.563   6.534  11.220  0.2463 -0.0027 -0.2593
13686W        W30533  18.311   9.334  14.363 -0.1344 -0.0792 -0.2209
13687W        W30534   2.025   8.751  12.327 -0.0856  0.0342 -0.0121
13688W        W30535   5.049   2.730   4.057  0.0312  0.0087 -0.0294
13689W        W30536  14.380   1.978   0.224  0.0682 -0.2686 -0.0352
13690W        W30537  10.193  11.791  14.103 -0.0053  0.0208 -0.1710
13691W        W30538  12.992   8.623   4.503 -0.0171 -0.1628 -0.2543
13692W        W30539   9.653   2.779   4.740 -0.1872  0.1980  0.1637
13693W        W30540   5.296  14.431   1.965  0.2369 -0.2644  0.0510
13694W        W30541   5.255   9.288  15.551 -0.0303  0.1232  0.2946
13695W        W30542   3.815   4.219   2.238 -0.0431  0.2056 -0.1441
13696W        W30543   1.348  14.527  11.891  0.0528 -0.0841  0.1525
13697W        W30544  10.830   0.985  12.945  0.3257 -0.2706  0.0372
13698W        W30545   0.924  14.064   2.105  0.1296 -0.2207 -0.1674
13699W        W30546   0.089  16.033  10.976  0.1181  0.2514  0.3164
13700W        W30547  15.811  17.644  13.248  0.3806 -0.1175 -0.0194
13701W        W30548  14.197  17.320   0.601 -0.2634 -0.1983  0.0127
13702W        W30549   5.632   7.709   1.884 -0.0135  0.1657 -0.1315
13703W        W30550   9.142  15.445   4.171  0.1079  0.1348 -0.1278
13704W        W30551   4.102   8.783   3.250  0.4589 -0.0491 -0.0463
13705W        W30552   7.161   2.392   0.032  0.0089 -0.2246 -0.0263
13706W        W30553   6.978  15.321  12.988  0.2677  0.0140 -0.1284
13707W        W30554   7.748   3.409  15.372  0.1919  0.2518  0.1472
13708W        W30555   9.749  13.407  13.895 -0.0146  0.1048 -0.1235
13709W        W30556   9.160   3.903   4.045 -0.0703 -0.1438 -0.0077
13710W        W30557   8.949   7.544  15.297 -0.2480  0.1429  0.4697
13711W        W30558   6.842   5.687   5.172  0.0139  0.2381  0.1639
13712W        W30559   7.792  11.724  15.081  0.0619 -0.2252  0.0393
13713W        W30560  11.026  15.612  14.176 -0.1747  0.1428  0.1540
13714W        W30561  18.219  15.638  15.811 -0.0733  0.1678  0.0376
13715W        W30562  12.458  15.987   2.017 -0.0190 -0.1447 -0.1411
13716W        W30563   9.586  11.267   2.047  0.0742 -0.1508 -0.2458
13717W        W30564   0.737  17.420   2.470  0.0492 -0.1195 -0.1594
13718W        W30565   7.720   2.027   0.964  0.3285  0.0470  0.0321
13719W        W30566   2.608  10.401   1.926 -0.1541  0.2449 -0.0439
13720W        W30567  12.323  14.363  12.859 -0.1049  0.1165 -0.2324
13721W        W30568   7.692  10.502  15.075 -0.1518  0.1997  0.3324
13722W        W30569  10.763   3.499  15.875 -0.1882 -0.0192 -0.1878
13723W        W30570  12.496  15.524  11.888 -0.1183 -0.0086 -0.0429
13724W        W30571  14.085   3.443   0.298  0.0379 -0.2987  0.1204
13725W        W30572  10.524   1.816   1.938 -0.1880  0.3288 -0.1109
13726W        W30573   6.685  14.620  11.356 -0.3528  0.0148 -0.1426
13727W        W30574   6.785   1.416  12.273 -0.0657  0.0036  0.3673
13728W        W30575  10.761   3.282  14.642  0.0234  0.0414  0.2179
13729W        W30576  14.369   7.156   0.411 -0.1312  0.0779  0.0088
13730W        W30577   4.021   4.920  13.791  0.3278 -0.2048 -0.1319
13731W        W30578   9.779  16.247  13.602 -0.1134 -0.0626 -0.0253
13732W        W30579  16.877   6.792  14.930  0.1562 -0.2811  0.0648
13733W        W30580   1.888  17.655   0.088  0.0456  0.3001  0.0270
13734W        W30581   0.653   8.465   1.333  0.1288  0.2422  0.0436
13735W        W30582   1.969  14.052   5.274 -0.1061  0.0279 -0.2785
13736W        W30583  11.336   7.853  10.019  0.2196  0.3161  0.0043
13737W        W30584  15.244  13.368  12.787 -0.3041 -0.1747  0.1570
13738W        W30585   8.382  14.361   2.933 -0.1201 -0.2333 -0.2240
13739W        W30586  10.570  13.141  12.424  0.0720 -0.0053 -0.4400
13740W        W30587   5.683  18.207  13.064  0.0472 -0.1372 -0.0518
13741W        W30588  18.090  11.355   1.513 -0.1149 -0.0969  0.1939
13742W        W30589  14.927  12.672  12.061 -0.0357  0.1643  0.0380
13743W        W30590   5.170  17.973   4.272  0.0007 -0.0849  0.1597
13744W        W30591   5.710  13.610   5.678  0.1088  0.2300  0.2176
13745W        W30592   0.175   1.146   5.376 -0.1159  0.0550 -0.1901
13746W        W30593  17.784  11.783   4.643  0.0492 -0.2075  0.1581
13747W        W30594   4.639  11.966  11.583 -0.1999 -0.0604 -0.2711
13748W        W30595   4.923  16.889   1.650  0.1771 -0.0091 -0.0855
13749W        W30596   8.237  13.603  12.781  0.2972  0.0708 -0.0197
13750W        W30597   0.495  16.950   3.700 -0.0292  0.0972  0.1387
13751W        W30598   0.265   3.250  14.346 -0.1973  0.0392 -0.0798
13752W        W30599   3.165   3.068  13.895  0.0356  0.1749  0.2283
13753W        W30600   2.234   3.050   4.605 -0.2240  0.0524 -0.1044
13754W        W30601   8.231   0.689   0.055 -0.0331 -0.0934 -0.0817
13755W        W30602  12.013  16.659   4.390 -0.0589 -0.0216  0.3374
13756W        W30603   2.484  13.818  11.425 -0.4901 -0.2071  0.3843
13757W        W30604   1.161  14.998  12.074  0.0712  0.1540 -0.0152
13758W        W30605   5.310  17.479  12.901 -0.1602  0.0662  0.0917
13759W        W30606  15.050   4.375  14.336 -0.1189  0.0167 -0.0846
13760W        W30607  10.143   7.271  14.276  0.0659 -0.2036  0.0526
13761W        W30608   9.591  15.101   4.269 -0.0398  0.0134 -0.2766
13762W        W30609   2.492  13.661  10.899 -0.0823  0.2354 -0.0397
13763W        W30610  14.305  16.008   2.326 -0.0737  0.2192 -0.0702
13764W        W30611   8.585   5.311  12.854 -0.0729 -0.2455 -0.0649
13765W        W30612  13.631  13.512  15.036 -0.3149 -0.2133  0.0782
13766W        W30613  13.440   5.463   0.844  0.3129  0.1198  0.0389
13767W        W30614   3.485  18.247  15.282 -0.0743  0.1518  0.1016
13768W        W30615   6.196  12.970   4.166  0.0982 -0.0557  0.0003
13769W        W30616   2.706  13.924  14.189 -0.0223 -0.0153  0.2544
13770W        W30617   5.425  12.662  14.190 -0.5478  0.1744  0.0515
13771W        W30618  12.711   0.000   0.766 -0.1402  0.1413 -0.0805
13772W        W30619   6.184  15.498  12.531  0.4006 -0.0238  0.0777
13773W        W30620  17.163   3.980   3.561  0.2927  0.4739  0.0678
13774W        W30621   7.794   2.646   4.669 -0.2286 -0.4228  0.0095
13775W        W30622   1.085   8.770   3.953 -0.0481 -0.4118  0.0194
13776W        W30623   4.809  16.052   4.838 -0.1267  0.2251 -0.3319
13777W        W30624  16.560   4.192   0.095  0.0174 -0.1829  0.2654
13778W        W30625  11.321   6.998   1.304  0.1034  0.1633  0.1494
13779W        W30626  13.461  15.754   0.213 -0.0196  0.3019 -0.1643
13780W        W30627  11.120  17.639   4.973 -0.0086 -0.1132  0.1389
13781W        W30628   9.077  12.677   0.156 -0.0516  0.0642  0.0696
13782W        W30629   6.093  11.952  15.751 -0.1105  0.0988 -0.1545
13783W        W30630   8.738  12.950   3.196 -0.0887  0.1405  0.1295
13784W        W30631  17.949  11.790  15.826 -0.0017 -0.0475  0.1828
13785W        W30632  14.904   7.101  10.993 -0.1085 -0.0857 -0.0739
13786W        W30633  12.517  16.105  13.594  0.0126  0.0330  0.0314
13787W        W30634  15.361  16.889  13.438 -0.1337 -0.2419  0.1211
13788W        W30635  17.492   0.811  13.996  0.4915 -0.1431 -0.1509
13789W        W30636   7.102   1.388   3.417 -0.1670 -0.0571 -0.0022
13790W        W30637  11.896  15.053   0.232 -0.1396 -0.3130 -0.2084
13791W        W30638  15.941  15.089   6.036 -0.0440 -0.0032 -0.2900
13792W        W30639   0.784  12.552  15.510  0.1197  0.0309  0.1109
13793W        W30640   5.939   1.300   1.362 -0.0289 -0.1489 -0.1475
13794W        W30641  11.283  14.063   0.799  0.2640  0.3844  0.2391
13795W        W30642  12.029  12.400   0.249 -0.3113  0.0861 -0.0418
13796W        W30643   7.313  17.880   0.455  0.1323  0.2622  0.1612
13797W        W30644   9.419   7.550   4.019  0.1446 -0.3816  0.3378
13798W        W30645   9.102  18.073   0.175 -0.0103 -0.0466  0.0176
13799W        W30646   4.945  11.695  12.414  0.1073  0.1073  0.2685
13800W        W30647   9.798  12.121  13.339 -0.0854  0.0241 -0.1198
13801W        W30648  12.716   3.905  13.038  0.1832  0.0930 -0.1249
13802W        W30649   3.544   1.858   4.200 -0.1327  0.0926  0.0312
13803W        W30650  10.355   5.018   2.394 -0.4541  0.0508 -0.2373
13804W        W30651   5.725   8.154   1.648 -0.0542  0.0138  0.0204
13805W        W30652  18.159  17.352  16.123  0.0719  0.0933  0.1434
13806W        W30653  11.751  15.363   4.711 -0.0696  0.1441  0.1427
13807W        W30654   3.034   6.516   5.127 -0.2511  0.2060  0.2721
13808W        W30655  14.959   2.164   4.730  0.0705 -0.0475  0.0040
13809W        W30656   8.174  15.260  11.871  0.2505  0.1237 -0.2155
13810W        W30657   7.958  16.250   5.181 -0.2983  0.1890 -0.2686
13811W        W30658   8.213   8.134   3.972  0.0778  0.1050 -0.0995
13812W        W30659  15.207   0.259   3.082  0.0135  0.1021  0.1635
13813W        W30660   0.152   0.735  11.718 -0.3558 -0.1666  0.3895
13814W        W30661   4.072   2.680   1.757  0.0176  0.1798 -0.4320
13815W        W30662   2.437   9.942  14.106  0.1996  0.0073  0.0310
13816W        W30663  10.421  15.108  15.122  0.2602  0.2720 -0.0573
13817W        W30664   3.626   1.384   4.399  0.0589  0.1760  0.2427
13818W        W30665   5.311  12.972   0.773  0.0162  0.0073 -0.2052
13819W        W30666  12.932   7.603   1.714  0.0891 -0.1367  0.1704
13820W        W30667   1.125   1.744   1.695 -0.1969  0.1288 -0.1536
13821W        W30668   8.557   7.939  14.373  0.0358  0.0327 -0.5246
13822W        W30669  12.466  15.159  13.316 -0.1692 -0.0402 -0.1966
13823W        W30670  14.063   3.405  11.648 -0.1805  0.3036  0.2721
13824W        W30671   2.468   1.337   1.885  0.2512  0.0637  0.2778
13825W        W30672   7.977  17.988   4.710 -0.1191 -0.0773 -0.2734
13826W        W30673   8.400   7.353  15.489 -0.2747  0.0317 -0.1438
13827W        W30674   5.244  14.955   5.865  0.2764 -0.2948  0.2310
13828W        W30675   4.940   7.841  12.809 -0.1994 -0.1446 -0.2727
13829W        W30676   3.013  17.585   1.596 -0.2024 -0.0494 -0.0250
13830W        W30677   7.322  14.733  12.178 -0.0559  0.2192 -0.2391
13831W        W30678   5.161   8.448  15.843  0.2411  0.1520  0.0400
13832W        W30679   7.814  14.114  14.129 -0.0454  0.0935  0.2015
13833W        W30680   9.416  16.567   5.016 -0.0683  0.1451 -0.2628
13834W        W30681  16.330   3.999  15.071  0.1229  0.1112 -0.0534
13835W        W30682  15.066   1.669  15.311  0.0763 -0.0842  0.0389
13836W        W30683  15.146   5.513  13.270 -0.0143 -0.1076 -0.3003
13837W        W30684   2.905  12.019  11.599  0.2563 -0.2779 -0.3677
13838W        W30685  18.017  16.573  12.739 -0.0184  0.0475 -0.2297
13839W        W30686   7.207  16.000  13.663  0.1954  0.0325 -0.2139
13840W        W30687  11.003  17.401  13.726 -0.1552  0.0367  0.0203
13841W        W30688   1.024   6.388   5.232  0.3546 -0.0177 -0.1834
13842W        W30689  18.202  17.099   0.438  0.0999  0.3889 -0.1250
13843W        W30690  17.172  17.494  14.476  0.4087  0.0504  0.0385
13844W        W30691   5.620   4.821  15.383  0.0427  0.0907  0.1703
13845W        W30692  18.088   3.197   4.884  0.0787  0.3239 -0.1575
13846W        W30693  10.634  10.491  14.016 -0.0950  0.1817  0.0278
13847W        W30694   1.857  12.552   4.717  0.0894 -0.3906  0.0853
13848W        W30695   5.284   5.239   0.286  0.0887 -0.2355  0.2342
13849W        W30696  11.142  16.064  11.889  0.0147  0.1613 -0.0486
13850W        W30697  15.793   1.448   5.370 -0.0635 -0.0360 -0.1962
13851W        W30698   3.090  15.733  12.093  0.1976  0.0672  0.1292
13852W        W30699   9.902  15.344   2.498 -0.0083 -0.0951 -0.0380
13853W        W30700   1.761  16.299  11.096  0.1387  0.2046  0.1027
13854W        W30701   6.598   5.629  13.868 -0.0468  0.0073 -0.0788
13855W        W30702   4.651  18.268   0.122 -0.0690 -0.1432 -0.1043
13856W        W30703  15.420  10.203  14.677 -0.0590  0.1042 -0.3890
13857W        W30704  11.446   2.159   1.452  0.4145  0.3370  0.2857
13858W        W30705   1.065  13.804   0.011  0.2039 -0.1346  0.2381
13859W        W30706   6.900   0.044  14.988 -0.0276 -0.1697 -0.1884
13860W        W30707   8.577  13.941   0.898 -0.1209  0.2404  0.2575
13861W        W30708   8.927   6.585  12.597 -0.0105 -0.0279  0.0874
13862W        W30709   0.248   6.091  13.831 -0.3368  0.3996 -0.1672
13863W        W30710  18.229   4.479  11.492 -0.1963  0.1204 -0.1970
13864W        W30711   3.393   6.948   1.966  0.0580  0.1754  0.0102
13865W        W30712  13.255  17.275  13.335  0.3121  0.2068  0.0925
13866W        W30713   6.557  13.415   4.183 -0.0721 -0.1380 -0.1609
13867W        W30714   8.550   8.770   2.595 -0.0990  0.2331  0.0917
13868W        W30715  12.787   0.518   1.910  0.1409 -0.1984  0.1880
13869W        W30716  13.353  11.659   2.622 -0.2390  0.1159  0.2693
13870W        W30717   4.699   2.442   3.383 -0.1765  0.0244  0.1612
13871W        W30718   8.874   9.829   2.800  0.0733 -0.1439 -0.1494
13872W        W30719  16.401  11.458   1.954 -0.1049  0.0404 -0.0100
13873W        W30720   5.629  13.518  10.347 -0.3983 -0.5114  0.1241
13874W        W30721  10.082   3.964   4.333 -0.2752  0.2052 -0.3232
13875W        W30722  16.677   7.774   1.790  0.1101 -0.3122  0.0168
13876W        W30723  16.942  15.178  14.065 -0.2527  0.0694 -0.2228
13877W        W30724  17.552   3.615   0.385  0.0484 -0.0244 -0.2283
13878W        W30725   8.422   7.092   4.029 -0.0625  0.1589 -0.0128
13879W        W30726   2.318   5.165  14.487 -0.2648 -0.1358  0.1886
13880W        W30727   1.015  15.114  14.669  0.1193 -0.2015 -0.4074
13881W        W30728  12.769  16.977   4.053 -0.0415 -0.3967 -0.0203
13882W        W30729  16.843   5.354   1.054  0.0026 -0.1166  0.0555
13883W        W30730   0.349   3.540   2.202  0.0781  0.1949 -0.1022
13884W        W30731   5.466   3.169   2.797 -0.4135  0.0088  0.1631
13885W        W30732   2.355  15.937  15.207 -0.1286  0.0265 -0.2290
13886W        W30733  15.440   9.212  14.140 -0.2259 -0.0404  0.0534
13887W        W30734   9.845   1.253  11.791  0.0608  0.1433  0.1668
13888W        W30735  13.200  15.647  13.019 -0.1766  0.2143  0.2225
13889W        W30736  14.490   1.008  12.885 -0.2986 -0.1993  0.0004
13890W        W30737  15.294   0.905   0.703  0.0623 -0.1797 -0.0520
13891W        W30738   1.202  16.472   1.676  0.0060  0.1062  0.0630
13892W        W30739  11.791  11.235  14.750  0.1457 -0.0272  0.3037
13893W        W30740   7.740   8.483   4.732  0.1012  0.0877  0.2649
13894W        W30741  13.386  14.191   1.353 -0.1890  0.2725  0.1783
13895W        W30742  13.257   0.436   4.265  0.0313  0.5006  0.2158
13896W        W30743  17.488  16.674   1.977  0.2557  0.3610  0.1062
13897W        W30744   1.431   3.746   3.436  0.0135 -0.1338  0.0588
13898W        W30745   7.249   2.220  13.292 -0.1333  0.1141  0.1006
13899W        W30746   0.447   5.271  13.096  0.1285  0.2373  0.0501
13900W        W30747  17.207  11.152  13.230 -0.2642 -0.0427 -0.1341
13901W        W30748  14.212   8.807  13.834 -0.0203  0.0332 -0.0845
13902W        W30749  11.484  12.355   1.975 -0.0451 -0.3637 -0.2226
13903W        W30750   7.048  15.602   4.436 -0.1214  0.1761  0.0399
13904W        W30751   7.548   3.429  10.676  0.0435 -0.0064  0.0896
13905W        W30752  11.221   6.554  14.130 -0.2032  0.1303  0.0503
13906W        W30753  14.003   7.526  15.816  0.1254 -0.0073 -0.0470
13907W        W30754   9.037  17.901  15.018 -0.1378  0.3530  0.2987
13908W        W30755  11.251  10.843  16.143 -0.0219  0.3320 -0.3617
13909W        W30756  15.585  14.006   2.624  0.1090 -0.2625 -0.0225
13910W        W30757   8.491  13.519  11.600 -0.0676 -0.3323 -0.1479
13911W        W30758   0.889   7.078  13.609  0.1027 -0.0363  0.1476
13912W        W30759  16.986  16.105   3.073  0.0232 -0.1306  0.0489
13913W        W30760   1.489  15.995  14.868 -0.2394 -0.1130 -0.0669
13914W        W30761   4.438  13.429   2.185 -0.0098  0.2216 -0.0564
13915W        W30762   5.916   6.219  14.805 -0.0161  0.1782  0.1583
13916W        W30763  12.350   4.195   3.989  0.2003 -0.0522  0.0131
13917W        W30764   1.774  16.741  13.296  0.1314  0.1250 -0.1869
13918W        W30765   2.655   8.299  14.989  0.1063 -0.0679  0.0723
13919W        W30766  13.353   8.161  14.046 -0.1701  0.1422  0.4066
13920W        W30767   3.165   7.323   4.842 -0.1999  0.0588  0.0569
13921W        W30768   9.878  13.808   0.394 -0.0224 -0.0472  0.4016
13922W        W30769  14.830   5.490   0.012  0.0502  0.0548 -0.2569
13923W        W30770   9.489   8.769  11.870  0.2358  0.4656  0.0006
13924W        W30771   3.706   1.902   5.207 -0.0868  0.0624  0.2014
13925W        W30772   8.576   4.284   1.176  0.2193  0.2866  0.0273
13926W        W30773   6.381  16.634  15.811 -0.0756 -0.1079  0.1936
13927W        W30774   0.100   7.194   1.546  0.1083 -0.0779 -0.1008
13928W        W30775   3.779   6.173  13.942  0.2977  0.1265 -0.4602
13929W        W30776   9.816   5.249   1.179  0.3348 -0.0544  0.1228
13930W        W30777  17.878   0.077  14.716  0.1357  0.1618  0.0029
13931W        W30778   3.715   6.232  14.571  0.0413  0.2117  0.0019
13932W        W30779   9.257   5.948   1.546 -0.0853 -0.1012 -0.0801
13933W        W30780   7.442  12.642  15.376 -0.1479 -0.1602 -0.0996
13934W        W30781  13.484   5.472  12.019  0.4171 -0.0499  0.1860
13935W        W30782   0.276  11.143   1.772  0.2926 -0.0460 -0.0082
13936W        W30783  12.362   7.033  12.242  0.2244 -0.0303 -0.1363
13937W        W30784  17.491  15.397  15.260 -0.1546 -0.1045 -0.1072
13938W        W30785   2.365   2.585   2.850  0.0738  0.1242 -0.0183
13939W        W30786  15.059  12.623  15.121  0.1668 -0.1070  0.0845
13940W        W30787   1.077  11.075  15.268  0.0592  0.1187 -0.0729
13941W        W30788   1.834  12.353   0.802  0.0372 -0.0570  0.2712
13942W        W30789  18.286  12.108   0.920 -0.1425  0.2233 -0.2826
13943W        W30790  10.502  17.382   3.690  0.0835 -0.0219  0.3489
13944W        W30791  14.890   8.803   5.398  0.0054  0.0598 -0.0310
13945W        W30792   4.566   7.425   0.059 -0.0312  0.2320 -0.0150
13946W        W30793  17.735  15.079  12.113  0.0219 -0.3592  0.0097
13947W        W30794   5.026  12.264   1.904  0.2947 -0.0325 -0.1337
13948W        W30795  13.294  12.996   1.097 -0.2183 -0.0550  0.1269
13949W        W30796   2.778   2.650  11.495  0.3674  0.0706  0.2790
13950W        W30797  17.613   5.540   4.672 -0.0619  0.3204 -0.1929
13951W        W30798  13.711  10.222  11.301 -0.1500 -0.0201  0.2144
13952W        W30799  12.707  17.759   5.838  0.0824  0.2840 -0.3125
13953W        W30800  17.373  12.794  15.618  0.0128  0.1471 -0.1210
13954W        W30801   9.133   5.707  15.792  0.0668  0.2114  0.3328
13955W        W30802   9.806  17.349  11.487 -0.2910 -0.1128  0.2621
13956W        W30803   0.082  13.772  12.637 -0.2181  0.0995 -0.1971
13957W        W30804   5.325   6.823  14.527  0.1142  0.1898  0.1656
13958W        W30805   3.593   5.753  11.528  0.0630 -0.2153 -0.0388
13959W        W30806  14.063   0.954  13.956 -0.0796  0.0101  0.3762
13960W        W30807  10.143   8.995   4.267  0.0430 -0.3828  0.1068
13961W        W30808  15.842  12.242  12.311 -0.0456  0.3013 -0.3419
13962W        W30809  17.277   7.586  13.515  0.0088  0.3799 -0.2050
13963W        W30810  14.494   1.976  12.173 -0.0717  0.3187 -0.0550
13964W        W30811   6.584   3.237  13.512 -0.1605  0.0502 -0.0870
13965W        W30812   8.728   6.606  10.997  0.0709 -0.1233  0.0100
13966W        W30813   9.313   6.729   2.600  0.0135  0.0656  0.0279
13967W        W30814   1.202  15.183   1.087  0.0453 -0.0214 -0.3965
13968W        W30815  11.090  12.156  11.909  0.0219  0.1256  0.2824
13969W        W30816  15.723  12.151   2.282  0.0040  0.0040 -0.1243
13970W        W30817  14.637  17.021  15.581 -0.2377 -0.0015  0.0550
13971W        W30818  15.708   6.090  11.607 -0.0221 -0.1175 -0.2874
13972W        W30819   9.268   5.356   5.279 -0.0147  0.0374 -0.0796
13973W        W30820   2.179  10.255   2.089  0.0954  0.1143  0.0467
13974W        W30821   7.788  10.158  13.810 -0.0368  0.2086  0.0738
13975W        W30822  15.819   8.647   1.764 -0.2341  0.2563 -0.1095
13976W        W30823   2.173  16.060   1.888  0.0760 -0.3288 -0.1041
13977W        W30824   6.922   7.122  14.251 -0.0677  0.1462  0.1204
13978W        W30825   8.893   2.224   1.655  0.1308 -0.1136 -0.0205
13979W        W30826   5.136  12.131  15.501 -0.1364 -0.0378  0.1666
13980W        W30827  11.057   0.143  11.645 -0.1553 -0.1424 -0.1086
13981W        W30828  14.739   3.868   1.811 -0.0402 -0.2385  0.1445
13982W        W30829   8.696  14.586   2.615 -0.0251  0.1083 -0.0080
13983W        W30830   2.185  13.194  15.244 -0.2432  0.3419  0.0055
13984W        W30831   2.823  11.647   4.781 -0.1113 -0.2177 -0.0953
13985W        W30832  16.831   1.320   4.039 -0.2050  0.0465 -0.1859
13986W        W30833  13.936   7.938   3.841 -0.2556 -0.1584  0.0619
13987W        W30834  16.817   0.222  13.177 -0.3348 -0.2056 -0.0714
13988W        W30835  13.982  10.962  11.935 -0.2758 -0.1087 -0.0224
13989W        W30836   1.338   1.857  13.154 -0.0086  0.0835  0.2038
13990W        W30837   7.028  16.085   4.564 -0.0732 -0.1797  0.0922
13991W        W30838   1.288  12.140   3.514  0.1517  0.3073 -0.0623
13992W        W30839   8.164   7.785   0.160 -0.1406  0.0480  0.0466
13993W        W30840   8.951   8.352   1.263 -0.0668  0.1260  0.0510
13994W        W30841  17.770   7.217  12.788 -0.2475 -0.1846  0.1421
13995W        W30842   5.077   9.742  12.045  0.1179 -0.2809 -0.1257
13996W        W30843   6.815   9.949   2.304  0.0428  0.0596 -0.2251
13997W        W30844  11.872   6.764  15.309 -0.0250 -0.0039  0.0364
13998W        W30845   6.896   6.234   3.645 -0.0810 -0.1040 -0.2197
13999W        W30846  15.526  10.557  15.084 -0.1093 -0.2380  0.0783
14000W        W30847  12.919   4.668  13.621 -0.3077 -0.1608 -0.2929
14001W        W30848  18.018  12.596   3.480  0.0873  0.0290  0.0117
14002W        W30849  13.318   9.356   4.303  0.0537  0.1232  0.2933
14003W        W30850  17.994  13.911  12.163  0.1495  0.1826 -0.2030
14004W        W30851  18.172   4.278   0.119 -0.0749  0.0262  0.1290
14005W        W30852   5.720   6.877   4.057 -0.0670  0.1969  0.0730
14006W        W30853  13.440  15.749  14.479 -0.1637  0.1904  0.0069
14007W        W30854   4.162   5.792  13.865  0.0846  0.0995  0.2248
14008W        W30855  16.694  13.630   2.053 -0.2213 -0.1107 -0.1858
14009W        W30856  12.816   9.650  14.368  0.1179 -0.0879  0.2674
14010W        W30857  13.271   6.975  16.159  0.0081  0.0774  0.4308
14011W        W30858   5.396   8.312  14.029  0.1026 -0.0705 -0.4971
14012W        W30859  10.211  14.301   4.404 -0.3342  0.2419 -0.0475
14013W        W30860   9.837   4.863  12.315  0.0901  0.1876  0.0218
14014W        W30861   9.848   6.779  12.376  0.3014 -0.3198  0.1176
14015W        W30862   5.206  18.292  10.413 -0.0023 -0.0193  0.2087
14016W        W30863   6.400   4.729   3.275 -0.0685  0.3725  0.0125
14017W        W30864   5.207  10.908   0.040 -0.1994  0.1172  0.0385
14018W        W30865  15.920  10.787  12.712 -0.1147  0.0287  0.1302
14019W        W30866   6.546   6.424   3.202  0.2013  0.0499  0.0189
14020W        W30867   2.346   9.599  11.781 -0.0840  0.3623  0.0577
14021W        W30868   1.410   2.721  11.782  0.0114 -0.1347 -0.1472
14022W        W30869  10.015   5.893  15.436  0.0534 -0.3159 -0.1026
14023W        W30870   5.357   2.191  12.958  0.0421  0.0172 -0.0017
14024W        W30871  17.897  15.198   5.276  0.1855 -0.1545 -0.0837
14025W        W30872   9.385  16.144  13.091  0.0783  0.3232  0.1690
14026W        W30873  17.825  13.132  15.563 -0.0652  0.1293  0.1671
14027W        W30874  16.167   9.507  12.068 -0.2630 -0.2574 -0.0857
14028W        W30875   8.587  12.093  12.295  0.2299 -0.4350 -0.3122
14029W        W30876  14.931   9.652   4.179 -0.1722  0.1491  0.1742
14030W        W30877  17.874  13.059  13.315 -0.0369 -0.3948 -0.2820
14031W        W30878   5.797  14.536  15.557 -0.0023 -0.1632  0.0645
14032W        W30879  10.678   6.275  15.868 -0.0003  0.1782 -0.0031
14033W        W30880  16.164  10.930   1.993 -0.0439  0.0267  0.1917
14034W        W30881  15.293   3.410  14.489  0.3586 -0.3606 -0.1946
14035W        W30882   0.237   0.004   0.943 -0.0722 -0.2506 -0.2545
14036W        W30883  13.752   3.946  13.371 -0.0025 -0.0089 -0.0028
14037W        W30884   5.387   1.666  11.532  0.2171 -0.1921  0.1471
14038W        W30885   1.800  15.167  14.263 -0.1779  0.3610  0.1142
14039W        W30886   9.891  11.907   0.417 -0.2074 -0.0642 -0.1748
14040W        W30887  12.452  16.657   3.627  0.1240 -0.3105 -0.2629
14041W        W30888  15.801   6.369   4.908 -0.3192 -0.0271  0.1962
14042W        W30889   0.705  10.790  15.475 -0.0459  0.0029 -0.0428
14043W        W30890   9.814   3.456  12.511 -0.1098 -0.1432 -0.1416
14044W        W30891   7.093  10.571   0.617 -0.0274 -0.0090  0.0597
14045W        W30892   6.915  15.540   2.878  0.0406 -0.0880 -0.2419
14046W        W30893   2.135   8.924   4.473 -0.1050  0.4366  0.0913
14047W        W30894   8.574   0.684  13.708 -0.1282  0.2712  0.3731
14048W        W30895  10.452   6.017  13.860  0.1488 -0.0551 -0.0157
14049W        W30896   4.437   6.674  12.508  0.0823  0.3130  0.1940
14050W        W30897   9.884  14.408  15.276 -0.1239 -0.0759 -0.1399
14051W        W30898   7.552   2.482  13.647  0.2410  0.1587  0.0572
14052W        W30899   4.324  13.788  14.184 -0.0422  0.2029  0.1640
14053W        W30900   1.836   2.439  13.322  0.1037 -0.1395  0.5362
14054W        W30901   2.159  16.789  12.308 -0.0145 -0.0995 -0.0809
14055W        W30902   8.616   6.876   4.950  0.0758  0.4669  0.0163
14056W        W30903  16.701   7.278   5.307 -0.2719 -0.1257 -0.2945
14057W        W30904  15.088  16.821   5.372 -0.0725  0.0292  0.0316
14058W        W30905  10.095   5.860  14.762 -0.1050  0.1750  0.1505
14059W        W30906   3.657   7.246   5.053 -0.0405  0.1338  0.2149
14060W        W30907  17.028   0.290  15.501  0.1300  0.1134 -0.3212
14061W        W30908   4.419  16.408   1.737 -0.1170  0.0123  0.0596
14062W        W30909   2.185   6.127  11.996  0.0374  0.1384  0.2284
14063W        W30910  13.574   0.448  14.624 -0.0429  0.1357  0.1926
14064W        W30911  10.219   4.240  14.756  0.1354 -0.1014  0.1227
14065W        W30912   7.395   8.845   1.981 -0.1092  0.0194  0.1405
14066W        W30913  14.367  10.142  15.392 -0.0804  0.2444 -0.0417
14067W        W30914   6.903  10.877  15.482  0.2758 -0.2325  0.1219
14068W        W30915   6.950   2.214   0.456  0.0442  0.0101 -0.1223
14069W        W30916   9.923  12.081   5.108 -0.1036  0.4580  0.1468
14070W        W30917   8.755  17.784   2.263  0.2007  0.4216 -0.0188
14071W        W30918  16.822   6.015   1.979 -0.1584  0.2254 -0.3172
14072W        W30919   0.997  11.406  12.560  0.0983  0.2793 -0.1998
14073W        W30920  11.885   5.349   3.391 -0.1548 -0.1468 -0.2959
14074W        W30921   6.345   2.786  13.639  0.1313  0.2924 -0.1858
14075W        W30922   1.918   4.447  12.718 -0.4540  0.2534  0.2022
14076W        W30923   9.175  15.938   4.078 -0.0587 -0.1669  0.2962
14077W        W30924   6.512  17.580   0.691  0.1196  0.0446 -0.1932
14078W        W30925  11.474   2.694   1.800 -0.0713  0.1383  0.3904
14079W        W30926   1.168   2.139   4.424 -0.1404  0.2714 -0.0313
14080W        W30927   2.256  17.069   2.623 -0.1804 -0.1193 -0.1007
14081W        W30928  10.807   8.479   4.104  0.2084  0.0431 -0.2995
14082W        W30929  17.133   6.201  15.488 -0.1583  0.0204 -0.1577
14083W        W30930   7.511   7.330   3.700 -0.0813 -0.0767  0.2172
14084W        W30931   3.795  12.187  11.787  0.0122 -0.2342  0.2561
14085W        W30932   9.568  12.028   1.664 -0.0938  0.3598 -0.0954
14086W        W30933   1.426   8.208   0.228  0.0053  0.1891  0.0884
14087W        W30934   8.929   1.030  12.155  0.0302  0.1024  0.1251
14088W        W30935  17.635  16.985  14.030  0.0796 -0.0741  0.0843
14089W        W30936   5.042  17.789   5.721  0.0504 -0.0512 -0.0617
14090W        W30937   9.135   8.904  12.159 -0.1870  0.0929 -0.0688
14091W        W30938   7.334  10.646  14.625 -0.1084  0.1038 -0.0893
14092W        W30939   6.145   7.209  12.609  0.0777  0.2251 -0.1562
14093W        W30940   3.680  10.874  11.579 -0.0141  0.1457  0.0028
14094W        W30941  17.086   5.150  11.381  0.0207 -0.0999  0.1315
14095W        W30942   6.176   9.904   2.915  0.0717 -0.2539 -0.0693
14096W        W30943  15.876  11.636  15.961 -0.2288 -0.2729 -0.0673
14097W        W30944   3.194   7.557   2.099  0.1176  0.0213  0.2639
14098W        W30945  16.610  15.790   5.088 -0.2449 -0.3263  0.0077
14099W        W30946   7.306  13.597   0.794 -0.1008 -0.2687  0.2479
14100W        W30947  15.703  12.680   3.061  0.1646  0.0085  0.2140
14101W        W30948  14.544   2.701  11.562  0.0295  0.0250 -0.0130
14102W        W30949   8.102  17.756  10.949 -0.1384 -0.0722  0.0583
14103W        W30950   4.914   6.978  14.884  0.2858  0.1394  0.4915
14104W        W30951   9.637  13.299   3.361  0.2459 -0.0572  0.0983
14105W        W30952   2.284   1.580   2.256  0.3312 -0.2049 -0.0274
14106W        W30953  14.749   2.328  13.418 -0.1194  0.1946 -0.1533
14107W        W30954  17.049   7.414  11.548  0.1603  0.0219 -0.1958
14108W        W30955   1.361   1.564   0.718  0.1133 -0.2814  0.2045
14109W        W30956  15.735   4.813  15.318  0.2710 -0.4140 -0.2767
14110W        W30957   6.250   0.122   1.973  0.0541 -0.0138 -0.0223
14111W        W30958  17.803   5.788   0.758 -0.2124  0.1176  0.0349
14112W        W30959   9.886   6.451  16.087  0.1591 -0.0234  0.0717
14113W        W30960  18.067   5.230   4.541  0.0078 -0.0575 -0.2139
14114W        W30961   6.913   4.617  13.621  0.0609  0.0466  0.1684
14115W        W30962  12.559  15.490   2.912  0.2611 -0.0364  0.3258
14116W        W30963  11.401  15.286  13.976 -0.1768  0.1059  0.2061
14117W        W30964  15.119   0.169  15.567  0.1585 -0.0243  0.1757
14118W        W30965  15.858   5.319   1.586 -0.1295 -0.1830 -0.1374
14119W        W30966  15.065  16.487  13.031 -0.0519  0.0220  0.2893
14120W        W30967  11.249   5.156   2.340  0.0375  0.2791  0.0407
14121W        W30968  12.248   6.732  11.907  0.0635  0.0598  0.2802
14122W        W30969  12.474  14.213   4.568 -0.0026 -0.2772 -0.0366
14123W        W30970   9.839   3.916  13.184  0.0239 -0.2881 -0.1433
14124W        W30971  16.733  16.753  12.416 -0.4354 -0.4255  0.0203
14125W        W30972  15.458  15.218   0.652  0.0364 -0.1024 -0.0500
14126W        W30973  10.872   2.408  13.213 -0.1876 -0.1865  0.1257
14127W        W30974   7.734  16.355  12.055  0.1958  0.0231  0.1543
14128W        W30975  17.035  10.195   3.546  0.0787  0.5332 -0.0596
14129W        W30976  11.727  17.921  15.777  0.0399  0.1447 -0.1292
14130W        W30977   6.617  10.759   4.107 -0.2796 -0.0961  0.1929
14131W        W30978   1.080  11.859   2.284  0.2983 -0.0725  0.0684
14132W        W30979   1.886   0.843  15.989 -0.0721  0.2745  0.1849
14133W        W30980   5.344  14.145  15.110  0.0749 -0.2274  0.1224
14134W        W30981   7.325   1.339   5.420 -0.2700  0.2606  0.0008
14135W        W30982  16.976  15.467  13.466 -0.2999  0.1054  0.0352
14136W        W30983  13.680   9.001  13.152  0.0421 -0.0414  0.0602
14137W        W30984   6.540   4.228   2.259  0.1301  0.4774  0.0250
14138W        W30985  11.937   2.689   4.884  0.1228 -0.2831  0.1345
14139W        W30986  14.241   8.683  11.979 -0.0278 -0.0592 -0.1246
14140W        W30987   6.095  16.848  15.498  0.2741 -0.2224  0.3352
14141W        W30988   7.636  14.886   5.362 -0.0612  0.0672  0.2323
14142W        W30989   9.327   6.870  14.935 -0.1155 -0.2411 -0.0811
14143W        W30990  11.676  13.430   5.239  0.0938  0.1228 -0.1461
14144W        W30991  15.714   3.343  13.646 -0.2030 -0.0099 -0.0634
14145W        W30992  13.235   4.249  13.536 -0.3148 -0.1070 -0.0247
14146W        W30993   6.220  11.794  13.178 -0.2926  0.3656  0.1966
14147W        W30994  16.690  15.839  15.142  0.0182 -0.1321  0.0352
14148W        W30995   1.689  15.896  15.789  0.1971 -0.0265 -0.0420
14149W        W30996   2.263  15.234   3.120 -0.1299 -0.0706 -0.1872
14150W        W30997  11.500   8.636  11.975  0.1164  0.0045  0.2257
14151W        W30998   6.882   5.248   1.669  0.1720 -0.2705  0.1296
14152W        W30999   0.185  11.323   1.192 -0.2727  0.2355  0.0630
14153W        W31000   9.819  17.519   1.548  0.0837 -0.0198  0.0623
14154W        W31001   9.106   8.444   2.381 -0.1443  0.2339  0.1285
14155W        W31002   7.972  13.498  11.639 -0.1309 -0.3357 -0.1178
14156W        W31003   2.105   0.613  15.336 -0.2561  0.2060 -0.1423
14157W        W31004  15.083   3.618   2.223 -0.2740  0.2026 -0.0610
14158W        W31005   4.475   5.940  15.695  0.2534  0.3267 -0.0571
14159W        W31006  14.236   1.252  15.996  0.0367 -0.0307 -0.2578
14160W        W31007   0.891  14.523  15.258 -0.2168  0.0824  0.0440
14161W        W31008  17.238   6.260   1.393  0.2662  0.4900 -0.1161
14162W        W31009  11.615   2.420  10.641 -0.0071  0.0424  0.0109
14163W        W31010  16.990   7.427   2.608 -0.2855 -0.1512  0.0255
14164W        W31011  14.323  12.573   3.453  0.3977  0.1973 -0.1589
14165W        W31012  11.458  13.612  15.305  0.0640 -0.4025 -0.2134
14166W        W31013  17.202  10.918   1.251 -0.3687 -0.0713 -0.2729
14167W        W31014  18.263   9.343  12.582  0.2746 -0.0488  0.1469
14168W        W31015  16.581  10.584   5.123  0.0489 -0.2675 -0.0768
14169W        W31016   7.114   7.370  11.517  0.0582 -0.0097 -0.0369
14170W        W31017   4.436   7.709   5.508 -0.3240  0.3559 -0.1895
14171W        W31018  10.765  17.085   4.390  0.4214  0.3591 -0.3167
14172W        W31019  18.230  16.379   2.606  0.2713 -0.0572  0.0535
14173W        W31020  14.307   8.502  14.675 -0.0253  0.1309 -0.0095
14174W        W31021  10.003  13.037   4.057 -0.2569  0.3413  0.2020
14175W        W31022   4.169  10.074  14.265  0.0521 -0.0489  0.1652
14176W        W31023  12.659   4.486  14.008 -0.0390 -0.3131 -0.3299
14177W        W31024   7.015   3.218   4.575 -0.0270  0.0721 -0.1982
14178W        W31025   9.581   3.338  10.614 -0.1156  0.2986  0.0009
14179W        W31026  11.105   2.049   0.122 -0.2000 -0.2392 -0.1593
14180W        W31027  10.001  17.161  15.144  0.0434 -0.0276 -0.1270
14181W        W31028  16.069  10.879  13.495 -0.0591 -0.0329  0.0346
14182W        W31029   8.681  13.011   3.982  0.0327  0.3024  0.1408
14183W        W31030   5.811   5.473   1.230 -0.1594  0.1170 -0.0414
14184W        W31031  11.391   5.929  11.310  0.1158  0.0597  0.0406
14185W        W31032  16.472   4.117   4.843 -0.0244  0.1668 -0.1765
14186W        W31033   6.331  14.553   1.488  0.2946 -0.0420  0.1960
14187W        W31034  12.827   8.513   0.577 -0.0498  0.0272 -0.1016
14188W        W31035  12.644   4.258   4.672 -0.2950  0.0796 -0.0279
14189W        W31036  14.023   4.500   1.974 -0.1348  0.3417 -0.1655
14190W        W31037  11.827   0.414  16.173  0.0144  0.0522 -0.3404
14191W        W31038   4.028  11.872  14.232 -0.2226  0.1666  0.0387
14192W        W31039   3.947   4.139   0.094  0.3147 -0.0232 -0.2343
14193W        W31040  15.715   2.902   2.864  0.0287  0.0716 -0.0704
14194W        W31041  12.487   4.865   1.518 -0.3642 -0.0849 -0.0422
14195W        W31042  16.797   7.059   2.890  0.0820  0.0389 -0.0467
14196W        W31043  10.637  17.728   5.048 -0.3254 -0.2376 -0.1941
14197W        W31044   9.219  13.136  16.148  0.0319  0.1950 -0.0943
14198W        W31045   0.737   0.593  14.169 -0.0584  0.1503 -0.0581
14199W        W31046   1.895   7.119   0.106 -0.0539  0.0861 -0.0165
14200W        W31047  10.075  17.781  11.483  0.2020 -0.3294  0.3193
14201W        W31048  15.951  13.217  12.064 -0.2517  0.1905  0.0158
14202W        W31049  17.016   8.850   2.847  0.2608 -0.1447  0.0758
14203W        W31050   5.272   5.248  15.485 -0.6061  0.0486  0.3719
14204W        W31051   9.276  10.640  12.325  0.1794 -0.1589  0.0208
14205W        W31052  16.595   4.023   3.555  0.0028 -0.3915 -0.0994
14206W        W31053  12.751   9.971   4.783  0.1816  0.1060 -0.2441
14207W        W31054   4.276   6.763   5.966 -0.1139 -0.1195  0.3183
14208W        W31055  15.072   2.606   3.556  0.0515 -0.0708 -0.1790
14209W        W31056  17.488   4.760   1.111 -0.1703 -0.0082 -0.1874
14210W        W31057   4.994  15.699   2.253  0.2352  0.0632 -0.0918
14211W        W31058   9.664  14.106  14.484 -0.0541 -0.0845  0.0051
14212W        W31059  13.600   7.405   2.676 -0.1683 -0.0040  0.1814
14213W        W31060   6.591   9.007  13.960  0.3196 -0.0235 -0.0852
14214W        W31061   4.447   4.853  11.503  0.1701 -0.1237 -0.2634
14215W        W31062   7.888   6.581  10.226  0.3093  0.0630  0.1007
14216W        W31063  12.225   9.633  12.820 -0.0939 -0.0190 -0.1717
14217W        W31064  10.589  16.890  10.476  0.0061  0.2287 -0.2656
14218W        W31065   3.059  12.001  13.894  0.0479  0.0651 -0.0153
14219W        W31066  13.075   8.382  12.003  0.0083 -0.0494 -0.3255
14220W        W31067   8.473  14.312  13.603  0.1925  0.5393  0.0749
14221W        W31068   6.589   9.239   0.448 -0.0158 -0.1885 -0.0841
14222W        W31069  14.226   6.787  12.467 -0.2037  0.3514  0.2398
14223W        W31070   0.498  15.448   0.827  0.2370  0.1671  0.4039
14224W        W31071  13.939   6.881  11.199 -0.1283 -0.1474  0.0580
14225W        W31072   2.757  16.645  13.074  0.0208 -0.1858  0.1123
14226W        W31073  16.716   6.809  13.704  0.2902  0.1167 -0.2295
14227W        W31074   8.145  11.367  15.495  0.0428  0.2001  0.1544
14228W        W31075   1.733  11.146  15.374 -0.0541 -0.1067  0.1740
14229W        W31076   3.530   6.268   0.192 -0.3572  0.2222 -0.0608
14230W        W31077  14.005   4.298  12.955  0.0206 -0.0405 -0.0436
14231W        W31078   3.356  12.083   2.422 -0.0650 -0.1204  0.0232
14232W        W31079  13.080   5.657  11.669 -0.2790 -0.0110  0.1818
14233W        W31080  10.191   2.354   0.564  0.4205 -0.3496 -0.0422
14234W        W31081   5.457   2.674  11.934 -0.1079  0.0606 -0.0113
14235W        W31082  15.321   4.608  14.732  0.0236 -0.2611  0.0979
14236W        W31083   9.872   9.046   0.406 -0.2089  0.0179 -0.0418
14237W        W31084   1.322  13.797   0.424 -0.1659 -0.0059 -0.1668
14238W        W31085   7.269  12.545  11.686  0.0446 -0.1456 -0.0257
14239W        W31086  14.190   5.159  12.474  0.0119 -0.2911 -0.0786
14240W        W31087   9.505   0.376  13.999  0.0379  0.0520 -0.0387
14241W        W31088  10.841  17.377  14.528 -0.2775  0.1535  0.0066
14242W        W31089   3.050   6.409   2.616  0.1332  0.0129  0.1720
14243W        W31090  15.803  13.722  13.845 -0.2961 -0.1265 -0.1313
14244W        W31091  13.689  16.577   5.153 -0.1723  0.1603 -0.1467
14245W        W31092  13.718   5.071   1.144  0.5583 -0.3697 -0.1791
14246W        W31093  12.005   5.217   2.385 -0.0682 -0.2371  0.0550
14247W        W31094   5.122  17.860  14.135  0.1351  0.0471  0.0435
14248W        W31095   6.942  10.316   1.040  0.0819  0.0213 -0.1110
14249W        W31096   5.218  15.637   1.784  0.1641  0.0166 -0.1413
14250W        W31097   8.293   6.076   0.075 -0.1264 -0.3106 -0.0393
14251W        W31098   1.230  16.155   2.500  0.1317 -0.2935  0.2234
14252W        W31099  14.877  12.505   3.486 -0.1147 -0.2438  0.0554
14253W        W31100   4.135  13.775  16.100  0.0512 -0.0972 -0.1599
14254W        W31101   8.787  11.924   2.196  0.1353  0.3023 -0.0370
14255W        W31102   5.857   1.823   4.512  0.0474 -0.0887  0.1366
14256W        W31103   8.037  11.214  14.229  0.1532  0.0877 -0.1185
14257W        W31104   8.579  10.674  16.064  0.0730  0.0039  0.3774
14258W        W31105  15.131   6.616   1.263  0.0547  0.1423 -0.2210
14259W        W31106   1.403   7.865  10.477 -0.1487  0.0082 -0.0366
14260W        W31107   5.580   4.832   0.126  0.0396  0.0713  0.0394
14261W        W31108  14.465   8.713   1.716 -0.0148  0.1975  0.1133
14262W        W31109  15.537   1.672   3.460 -0.3918 -0.0371 -0.1443
14263W        W31110   1.417   4.345  12.900  0.0810 -0.2280 -0.0420
14264W        W31111   6.760   2.908   2.991 -0.2366  0.2188 -0.2195
14265W        W31112   1.588  14.528   5.545 -0.2555  0.2298 -0.0327
14266W        W31113   8.216  12.933  12.684  0.1697  0.1239  0.0413
14267W        W31114   9.251  10.415   2.963  0.0996 -0.1371 -0.0473
14268W        W31115   4.926  14.541   0.319  0.1964  0.1607  0.2482
14269W        W31116  10.101  18.217   2.574 -0.0068 -0.0689 -0.0057
14270W        W31117   4.640   3.128   5.656 -0.0451  0.4354  0.2592
14271W        W31118  13.852   5.200   0.090  0.1558  0.0422  0.1994
14272W        W31119  10.879  10.145  13.688  0.0825 -0.1147 -0.1989
14273W        W31120  17.002  17.100   2.678 -0.2885  0.1524  0.0995
14274W        W31121   0.817  17.245  14.158  0.0279 -0.2185 -0.0264
14275W        W31122  10.660   0.138   3.688 -0.1111  0.2387  0.1319
14276W        W31123  12.635   4.487   5.129  0.0802 -0.2061  0.1377
14277W        W31124   2.514  18.188  13.762  0.2243  0.1576 -0.0338
14278W        W31125   0.732   6.920  12.987  0.0198 -0.0226 -0.3207
14279W        W31126   8.167   0.499  12.522 -0.0321  0.0055  0.0802
14280W        W31127  13.363   7.554   0.927  0.0140 -0.0924  0.1851
14281W        W31128   7.004  16.447   2.658 -0.0531 -0.0578  0.1026
14282W        W31129  12.616   5.222   0.065  0.0100 -0.3103 -0.0031
14283W        W31130  11.233   3.827   1.117 -0.2924 -0.2692 -0.2383
14284W        W31131   6.346   2.873   0.542 -0.0928 -0.1873  0.1579
14285W        W31132   1.787   5.990  12.367 -0.1371  0.3234 -0.0319
14286W        W31133  10.390  18.316   4.837 -0.4458  0.4300  0.1405
14287W        W31134  11.790  11.978  11.387 -0.0281  0.1454  0.0784
14288W        W31135   2.583  12.591   2.272 -0.1238 -0.2731 -0.3145
14289W        W31136   9.599  13.644  14.772  0.0000 -0.1675 -0.0136
14290W        W31137   8.089   2.485  13.476  0.2650 -0.2320 -0.2833
14291W        W31138   6.099  12.415   5.455 -0.0456 -0.3383 -0.0669
14292W        W31139   5.491   5.663   2.928 -0.3683  0.0303  0.3866
14293W        W31140  16.078  17.514   4.612 -0.0073  0.0839  0.1442
14294W        W31141   7.201   8.888   0.429  0.0820  0.2354  0.0055
14295W        W31142  10.227   5.709   3.870 -0.2392 -0.2357 -0.2229
14296W        W31143   6.951  13.349  12.167 -0.1021  0.0039  0.3127
14297W        W31144  15.549   2.485  12.771 -0.0702 -0.2401 -0.0419
14298W        W31145  10.427  14.497  11.522 -0.2189 -0.3844  0.1404
14299W        W31146  17.891  13.917   4.055 -0.0653  0.0425  0.0308
14300W        W31147   9.725  14.135  10.911  0.3991 -0.1658 -0.2259
14301W        W31148  13.015   9.187  13.633  0.1154 -0.1277 -0.2511
14302W        W31149  10.707  11.966  14.900  0.0249 -0.1742 -0.1388
14303W        W31150   2.133  17.799  15.344 -0.1095 -0.1741  0.5093
14304W        W31151   8.749   4.689   0.882  0.0251 -0.1058 -0.0638
14305W        W31152  16.075  15.641  13.604  0.0475 -0.1745  0.0083
14306W        W31153   0.941  10.460   0.588 -0.0750 -0.0857 -0.3874
14307W        W31154   4.894  14.422   0.908  0.0396 -0.4146 -0.0403
14308W        W31155   8.124  12.740  14.874  0.0617 -0.0705 -0.1652
14309W        W31156   3.860   7.167  14.657 -0.0313 -0.2968 -0.2638
14310W        W31157  17.068   8.166   3.792  0.0660 -0.2442 -0.1029
14311W        W31158  18.119  14.550  11.665  0.0044  0.0161  0.1238
14312W        W31159  10.374  13.916   2.207  0.1237 -0.1773 -0.4465
14313W        W31160   9.025   3.454   2.878  0.0276  0.0091 -0.1804
14314W        W31161   4.599   7.312   4.568  0.1578  0.0132  0.0083
14315W        W31162   9.312  10.082   1.009  0.2345 -0.2123  0.0569
14316W        W31163   5.501   9.621  12.329 -0.1513 -0.1055  0.0236
14317W        W31164   1.429   2.633   3.368  0.1563  0.0764 -0.1584
14318W        W31165  15.780   9.943   2.228  0.1273 -0.0073  0.1428
14319W        W31166  14.662  11.030   1.336  0.2501  0.1807  0.0486
14320W        W31167   3.849  11.583  12.427  0.4534  0.1300 -0.1795
14321W        W31168  13.252  17.473  15.683  0.1434  0.3461  0.1162
14322W        W31169  14.091  17.179   2.189  0.0956 -0.1174  0.0754
14323W        W31170   9.941   8.678  15.099 -0.1137  0.0377 -0.1475
14324W        W31171  10.393   6.693  15.952  0.0084  0.1736  0.0987
14325W        W31172   5.228  13.890  13.053 -0.1229 -0.1777 -0.0892
14326W        W31173  16.485  14.415   0.603  0.0088 -0.1105  0.0601
14327W        W31174   7.781  17.133  12.665  0.1527 -0.2512  0.1797
14328W        W31175  13.999   8.336  12.287 -0.0526  0.0429  0.3985
14329W        W31176   7.868   0.562   1.042 -0.1820  0.1860  0.0791
14330W        W31177   7.159   3.448   1.346 -0.0514  0.2011 -0.0575
14331W        W31178  16.851  16.066   1.091 -0.0610  0.1154  0.0044
14332W        W31179   0.331  16.361   5.248 -0.0549  0.0394 -0.1917
14333W        W31180   0.746   6.158  14.144  0.0673 -0.0493 -0.0969
14334W        W31181   1.252   1.938  11.175  0.0979  0.1014 -0.1677
14335W        W31182  13.896  17.489  11.306 -0.3283 -0.0912  0.0846
14336W        W31183  17.890  14.562  13.005  0.0497 -0.1897 -0.2301
14337W        W31184   0.179   7.410  14.356  0.0383 -0.0179  0.2696
14338W        W31185  16.681  17.856   9.869  0.3801  0.5462  0.3781
14339W        W31186  16.238  18.274  14.936  0.0971 -0.2011 -0.2351
14340W        W31187  17.585  18.219  13.268  0.0717 -0.2498  0.0813
14341W        W31188   0.024  10.568  14.157 -0.0045 -0.1038 -0.0185
14342W        W31189   1.327   0.367  13.538  0.2105  0.0825  0.0194
14343W        W31190   8.186   7.952  11.521 -0.1037 -0.0145  0.1967
14344W        W31191   3.390   9.163   4.133 -0.0311  0.0699  0.0223
14345W        W31192   8.976   7.055   4.045  0.2030  0.2314  0.0034
14346W        W31193   9.086   5.539  15.231 -0.0317  0.2969 -0.0775
14347W        W31194  18.237   4.574   4.778 -0.0200  0.2330 -0.0093
14348W        W31195  14.065   1.766  14.452 -0.1052 -0.0883  0.4922
14349W        W31196  16.300   2.715   0.382  0.2166  0.0198 -0.2726
14350W        W31197  17.680  14.723   1.865 -0.0657  0.2842 -0.0328
14351W        W31198   7.227  12.929  12.055  0.0547 -0.1994 -0.1029
14352W        W31199  17.945   7.415  14.320 -0.1563 -0.1066 -0.0621
14353W        W31200   8.904   6.975   1.845  0.1001 -0.1115 -0.0151
14354W        W31201  16.165   2.535  15.600  0.3334  0.0940  0.0917
14355W        W31202  16.635   6.295  13.093  0.2122  0.0722  0.1225
14356W        W31203   4.221  15.257  15.219 -0.3332 -0.0337  0.4116
14357W        W31204  17.606   9.051  13.279 -0.1990 -0.0824  0.0685
14358W        W31205   8.594   6.020   3.283 -0.1166 -0.0906 -0.1115
14359W        W31206  15.432  11.437  10.487  0.0170  0.1655 -0.1471
14360W        W31207   0.587  11.554  13.285  0.1562  0.1895 -0.1279
14361W        W31208  10.527   3.010  12.000 -0.0575  0.1706  0.2509
14362W        W31209   1.503  18.331  12.822  0.1390 -0.1279 -0.0421
14363W        W31210   6.617  16.003  13.014  0.0920  0.1627 -0.0354
14364W        W31211   0.832  11.141   3.641  0.2755 -0.0192  0.0319
14365W        W31212  12.559   2.285  12.129 -0.1747  0.0414  0.0351
14366W        W31213  14.924   4.086  13.940  0.2456  0.0112 -0.0230
14367W        W31214  17.284   1.949   3.275  0.2087  0.1030  0.0606
14368W        W31215   8.116  15.152   0.864 -0.2071  0.0519  0.1792
14369W        W31216   3.925   1.413  13.449 -0.3925  0.0479 -0.4061
14370W        W31217   5.739   9.308   1.649  0.1011 -0.0583 -0.0108
14371W        W31218  12.732  17.341   1.039  0.3456  0.1835  0.2416
14372W        W31219   7.531   6.653   2.609  0.1415  0.2299  0.3743
14373W        W31220  16.316  17.912   4.886  0.1103 -0.0939 -0.2237
14374W        W31221  13.129  10.279  14.851  0.2049 -0.3164 -0.0645
14375W        W31222  10.815  14.168  12.456 -0.0086 -0.0182 -0.1111
14376W        W31223   8.757  11.599   1.703  0.0465 -0.2994  0.0982
14377W        W31224   4.059  17.274  12.083 -0.1206  0.2451  0.0829
14378W        W31225  17.156  13.635   3.746  0.0376  0.1319 -0.0286
14379W        W31226  11.141  16.460   1.170 -0.0873 -0.1334 -0.1464
14380W        W31227   6.028   7.253  11.544 -0.0271  0.1706  0.0883
14381W        W31228  12.646  15.612   4.370 -0.0508  0.2029  0.0309
14382W        W31229  17.729  16.896   0.172 -0.2858  0.1523 -0.1910
14383W        W31230   4.281  18.103  12.384 -0.0154  0.4443  0.1862
14384W        W31231  13.669  12.991   2.837 -0.2743  0.2483  0.4618
14385W        W31232   4.530   6.292   5.878 -0.0177  0.0514 -0.1911
14386W        W31233   8.354  12.395   3.394  0.0026 -0.1358 -0.1509
14387W        W31234  16.516  10.497   2.298 -0.1856  0.0737  0.0825
14388W        W31235  13.317  11.929   0.103 -0.1604  0.0448  0.2179
14389W        W31236  13.784  11.728  13.441 -0.1685  0.3899  0.1403
14390W        W31237  12.987   4.913   1.822  0.0265  0.0413 -0.2268
14391W        W31238   4.719   1.717   1.461 -0.3594 -0.0266  0.1260
14392W        W31239   3.991  14.165  12.397  0.1367  0.0009  0.1195
14393W        W31240  17.929  15.665   1.045 -0.1120 -0.0230 -0.0286
14394W        W31241  12.024  13.380  12.248 -0.2690 -0.4770 -0.2449
14395W        W31242   6.677   7.615  13.903 -0.2044 -0.3591 -0.0322
14396W        W31243  16.532   5.930  12.745  0.3919  0.3028  0.0476
14397W        W31244  11.870  12.015  14.256 -0.0194 -0.1115  0.1524
14398W        W31245  13.732  10.451   2.260  0.0940  0.1480  0.0676
14399W        W31246   1.471  18.318  13.830 -0.1546  0.0780 -0.1032
14400W        W31247   2.630   9.893   3.126  0.1573 -0.0074  0.2700
14401W        W31248   2.452  16.699   5.192 -0.2145  0.0678  0.0004
14402W        W31249  17.889   7.495   0.636  0.1828 -0.1751 -0.2264
14403W        W31250   6.267   1.570  12.190 -0.1236 -0.3767  0.1362
14404W        W31251  13.251   9.005   4.637 -0.0629 -0.1654  0.2658
14405W        W31252   6.268  15.377   5.019  0.0416  0.1027 -0.0003
14406W        W31253   2.729  13.919   0.272 -0.2811 -0.1344  0.1695
14407W        W31254  11.082   8.837   0.427  0.1536 -0.1021  0.1492
14408W        W31255   6.710  16.949   9.671  0.1037  0.0416  0.1256
14409W        W31256   8.512   5.255   5.186 -0.0353 -0.0054 -0.1191
14410W        W31257   4.406   2.110  14.587 -0.1058 -0.1021  0.2393
14411W        W31258  18.144  10.849  15.570 -0.0701 -0.0843 -0.2693
14412W        W31259  10.832  13.441   4.238  0.0321 -0.0129 -0.1021
14413W        W31260  11.527  14.613   1.972  0.1937 -0.1812 -0.1696
14414W        W31261   5.509  13.476   1.623  0.1541  0.1092 -0.2689
14415W        W31262  16.475  13.099   4.227  0.0434 -0.0591  0.0403
14416W        W31263  11.915   9.032  15.851  0.1343  0.5338  0.0750
14417W        W31264   4.758  13.191   5.894 -0.6324 -0.0396 -0.0649
14418W        W31265   3.035   7.204  13.848  0.2992 -0.0194  0.3768
14419W        W31266  17.794   0.651   4.989 -0.0695 -0.1625 -0.1336
14420W        W31267   7.912   3.680   3.502  0.0333  0.1263  0.2692
14421W        W31268   9.018   3.206  14.117  0.5178  0.1999 -0.2525
14422W        W31269   9.204  11.949  14.199 -0.2817 -0.0099 -0.0219
14423W        W31270   7.807   4.197   3.333 -0.0024 -0.1787  0.3649
14424W        W31271   5.935   9.576   4.404  0.2748 -0.0645  0.2601
14425W        W31272  13.729  12.675  15.632 -0.0331  0.0017  0.3204
14426W        W31273   6.022   6.614   2.664 -0.0235 -0.1279  0.2040
14427W        W31274   1.524  14.729   3.809 -0.1139  0.4123  0.1387
14428W        W31275  16.189   6.522  14.570 -0.0314 -0.1925  0.1307
14429W        W31276   3.703   2.517   3.086  0.1872  0.1906 -0.2710
14430W        W31277   0.143   4.925   3.342 -0.0992 -0.1646 -0.0118
14431W        W31278   1.490   7.199  15.771  0.0076  0.0204 -0.1810
14432W        W31279   5.008   0.308  15.156 -0.0952 -0.0232  0.0166
14433W        W31280   9.845  17.009   6.021  0.1265 -0.1879  0.1824
14434W        W31281   0.004   3.630  13.918  0.0196  0.1361  0.1647
14435W        W31282  14.108  13.878   4.933 -0.0196 -0.0023  0.0033
14436W        W31283  13.214   9.428  11.144  0.1785 -0.1208 -0.1896
14437W        W31284   2.758   9.049  12.573 -0.1449  0.1207 -0.3045
14438W        W31285  13.176   0.214   2.050  0.3182  0.3937  0.3174
14439W        W31286  15.743   7.159  10.451 -0.1141  0.0456 -0.1807
14440W        W31287   2.901  17.256   3.305  0.1640  0.1367  0.0823
14441W        W31288  14.522   3.631   5.113  0.2707  0.0960 -0.1283
14442W        W31289   8.092  16.917   1.563 -0.0991  0.1814 -0.0533
14443W        W31290   4.826  11.694   4.320 -0.0482  0.0834 -0.0183
14444W        W31291   5.270   0.676   0.455 -0.4020  0.1735  0.2331
14445W        W31292  15.219   3.141   5.560 -0.1566 -0.1542 -0.4550
14446W        W31293   5.890   2.498  12.154 -0.0776 -0.2750  0.0864
14447W        W31294  15.642   8.848  14.545  0.0714  0.4387 -0.4326
14448W        W31295   7.873  16.357  14.099  0.0373 -0.1549 -0.3757
14449W        W31296  10.257  10.726   5.222 -0.1884  0.0026  0.0319
14450W        W31297   1.475   6.388   2.288 -0.1507  0.0186  0.1156
14451W        W31298   6.724  14.303   4.276 -0.0100 -0.0310 -0.0761
14452W        W31299   2.355   7.910   0.535  0.0588 -0.0866 -0.0160
14453W        W31300   9.600   5.866   3.629  0.2312  0.2816  0.0442
14454W        W31301   5.198  15.589  16.148  0.0667 -0.3045 -0.0883
14455W        W31302  14.398   8.605  13.429 -0.1044 -0.0044  0.3850
14456W        W31303   4.696  10.172  12.700  0.2209 -0.3349 -0.1554
14457W        W31304   7.551   7.086  15.294 -0.1852  0.1112  0.0198
14458W        W31305  16.969  18.220  10.904  0.0084 -0.0487 -0.2892
14459W        W31306  16.688   8.259   1.579  0.1007 -0.0924 -0.1629
14460W        W31307   2.050   4.314   3.908  0.1241 -0.3772  0.2905
14461W        W31308   3.587  12.547  12.087 -0.4285 -0.1200  0.1562
14462W        W31309   2.551   0.067  12.957 -0.1145 -0.3671 -0.1355
14463W        W31310  10.426   4.452  14.347 -0.3265  0.3563  0.0286
14464W        W31311   9.380   4.232  12.907  0.1475  0.0293 -0.2544
14465W        W31312   1.327  15.914  14.399  0.0534  0.0935  0.2055
14466W        W31313  12.270   9.324  12.432  0.0162  0.5159  0.0690
14467W        W31314   6.289  10.458  11.904  0.0174  0.4196  0.1374
14468W        W31315   9.717  15.849  15.447  0.2741  0.1888 -0.2056
14469W        W31316   0.147   6.105   5.732 -0.3238 -0.0595  0.3995
14470W        W31317  10.734  14.353   4.434 -0.1766  0.0096 -0.2614
14471W        W31318   4.637   1.131  16.114 -0.2885  0.0612 -0.1447
14472W        W31319  15.865  11.462  13.796  0.0148 -0.1821  0.0540
14473W        W31320   0.162  17.971  12.272 -0.1561  0.1351 -0.2036
14474W        W31321  17.990  12.096  12.607  0.3213  0.2507  0.0286
14475W        W31322  18.036  11.517  13.285 -0.1063 -0.2162  0.0904
14476W        W31323  17.966   8.907   2.373 -0.0561  0.1522  0.0677
14477W        W31324   8.159  14.029  12.446 -0.2292  0.2363  0.0900
14478W        W31325   7.986  11.815  12.062  0.3102 -0.1409 -0.0012
14479W        W31326   9.014   4.974  15.174 -0.1443 -0.1405 -0.0856
14480W        W31327  17.553   1.173  15.004 -0.0798  0.1341  0.1049
14481W        W31328   3.627   7.193  10.460  0.0939 -0.3000  0.0160
14482W        W31329   9.697  18.251   2.943 -0.0812  0.3246  0.0584
14483W        W31330   9.899   0.200   0.173 -0.2485  0.3216 -0.3758
14484W        W31331   3.275   1.068  12.932 -0.0988 -0.0011  0.2471
14485W        W31332   9.284  15.607  13.242  0.3458  0.0841  0.0305
14486W        W31333   6.841  17.793  13.469  0.3027 -0.2474 -0.0284
14487W        W31334   9.816   1.727  12.609 -0.1413  0.1751 -0.1070
14488W        W31335   3.461  10.972  15.521  0.1338 -0.3358  0.2793
14489W        W31336   3.388   9.030  15.204 -0.0970 -0.0927  0.0566
14490W        W31337   0.411   4.298  12.721  0.3514 -0.0255  0.1610
14491W        W31338   1.232   4.634  10.616 -0.1039  0.0409 -0.4288
14492W        W31339   6.109  13.121   1.710  0.1437 -0.0210  0.0261
14493W        W31340  12.046   0.621   1.161 -0.1936  0.0853 -0.0892
14494W        W31341   1.958  11.258  12.365  0.3781  0.1649  0.3056
14495W        W31342  18.003  18.056  12.261  0.2965  0.1675  0.1910
14496W        W31343  15.548  15.467   1.149 -0.0952  0.1949 -0.2472
14497W        W31344   3.309   9.134  16.159 -0.3741 -0.0309  0.2512
14498W        W31345  11.971  17.351  15.294 -0.0506  0.1388 -0.2685
14499W        W31346  18.259   7.848  15.882  0.0178 -0.3141 -0.2512
14500W        W31347   7.610   2.342  12.680  0.1276 -0.0377  0.0362
14501W        W31348   0.497  10.683   0.532  0.4192 -0.3037  0.1002
14502W        W31349  10.249  17.614   1.820 -0.0027 -0.0932  0.0624
14503W        W31350   0.382   9.354  11.535  0.1433 -0.1977  0.1487
14504W        W31351  17.657  16.087  12.214 -0.0987  0.2932 -0.2808
14505W        W31352  17.836   4.001   0.559 -0.0975  0.1004  0.2608
14506W        W31353  10.587   2.321   3.866  0.1963  0.1827  0.0326
14507W        W31354   7.372   9.474  14.121 -0.0956  0.0850  0.1983
14508W        W31355  17.279   6.458   0.423 -0.1048 -0.0640  0.1142
14509W        W31356   9.354   8.792  13.749  0.0765 -0.1769  0.0036
14510W        W31357   0.043  15.425   0.945  0.1455  0.0127  0.0773
14511W        W31358  18.227  15.314   3.013  0.1065 -0.2249 -0.1436
14512W        W31359  10.520   6.052   3.651 -0.2638 -0.0230  0.2311
14513W        W31360   0.856   5.543   1.392 -0.0022 -0.4559 -0.1246
14514W        W31361   6.758   6.344   0.877 -0.1285  0.2025 -0.1181
14515W        W31362  15.221  16.086  14.865 -0.1500  0.0416  0.2020
14516W        W31363   6.529   3.661  11.532 -0.0762 -0.1188  0.2007
14517W        W31364  13.299  13.215   0.012  0.1011 -0.2131  0.2372
14518W        W31365   8.633  11.237  12.381  0.3053 -0.1987 -0.0138
14519W        W31366   6.635  16.597   0.053 -0.0287  0.0446  0.0766
14520W        W31367   6.222   9.082  14.975  0.0402  0.3689 -0.0862
14521W        W31368   4.597  13.994  11.643 -0.2704 -0.1305  0.1766
14522W        W31369  12.895  18.113   2.130  0.1313 -0.0712  0.1919
14523W        W31370   3.952   7.513   0.898  0.1209 -0.0387 -0.2925
14524W        W31371  11.354  15.806  15.393 -0.1177 -0.2222  0.1728
14525W        W31372  11.065   2.379   2.559 -0.2780 -0.0814 -0.3526
14526W        W31373   8.390   2.599   1.769  0.0604  0.3636 -0.0458
14527W        W31374  13.546   5.379   4.011 -0.0181  0.1362  0.2210
14528W        W31375  15.633  16.584   6.270  0.2940 -0.1843 -0.1574
14529W        W31376   9.964   4.332  14.150  0.1379  0.0513  0.0229
14530W        W31377  12.359   4.539   4.364  0.1558  0.0384 -0.0940
14531W        W31378   8.510   7.851  15.302  0.0747  0.0292  0.1605
14532W        W31379  12.206   2.469  11.718  0.2036 -0.0445  0.1278
14533W        W31380   8.740   3.154  15.355 -0.1075 -0.1696 -0.0091
14534W        W31381   0.043  12.347  12.866 -0.0863  0.0608  0.0936
14535W        W31382   5.442  15.361   1.423 -0.0336 -0.1848 -0.1528
14536W        W31383   2.447   5.223  13.181  0.0399 -0.2696  0.1005
14537W        W31384  14.597   2.729  14.387 -0.2265  0.5488 -0.3356
14538W        W31385   4.026   4.941   3.837  0.2485  0.2490  0.7461
14539W        W31386   9.412   2.307   3.949 -0.1493  0.2550 -0.2452
14540W        W31387   7.458   7.461  15.982 -0.0414 -0.1028  0.0236
14541W        W31388   9.390  16.293   0.459 -0.0029  0.1613 -0.1018
14542W        W31389  11.460  13.365   1.235 -0.1317  0.1488  0.1670
14543W        W31390   5.635  11.687   1.467 -0.3450 -0.2728 -0.1904
14544W        W31391  14.147   3.072  11.261  0.0750 -0.0280  0.0664
14545W        W31392  10.503   2.878  14.601 -0.0287 -0.1749  0.0479
14546W        W31393  15.439   2.948  12.147 -0.0493  0.1570 -0.1427
14547W        W31394  14.153   1.435  12.208 -0.0627  0.1452  0.0517
14548W        W31395   7.507   6.996  15.777  0.1772  0.0456 -0.1715
14549W        W31396   1.183   4.610  13.266  0.1130  0.1001  0.3925
14550W        W31397   7.924  15.696  13.400  0.2196  0.5855  0.0613
14551W        W31398  17.863  12.879  12.848  0.0799 -0.1982 -0.0264
14552W        W31399   9.869   6.253   5.584  0.1670 -0.0766 -0.1978
14553W        W31400   5.718   0.575   2.689  0.0891 -0.1740 -0.0134
14554W        W31401   2.642  18.172  11.936  0.1096 -0.1058 -0.0393
14555W        W31402  17.523  13.298   3.512  0.1676 -0.0393  0.3354
14556W        W31403   0.033  10.011   0.699 -0.0523  0.3549 -0.1781
14557W        W31404  16.861   0.557  14.645 -0.0438 -0.1635 -0.1941
14558W        W31405   2.467  17.513  11.763  0.0045  0.1459  0.0548
14559W        W31406   2.329   1.394   3.312 -0.0771  0.1240 -0.1146
14560W        W31407  10.775  16.689   5.770  0.0650 -0.2564  0.1187
14561W        W31408  12.264   6.926   2.091  0.1192 -0.1765  0.1478
14562W        W31409   8.034  18.279   1.683 -0.0033 -0.0017 -0.1963
14563W        W31410  14.819   1.913  10.721 -0.3850  0.0645  0.0734
14564W        W31411  13.289   7.989  15.554  0.1283 -0.4385 -0.2003
14565W        W31412  17.236   2.685  15.425  0.3568  0.1466 -0.1596
14566W        W31413  12.502  17.874   2.321  0.1633 -0.6195  0.0999
14567W        W31414  10.127  14.609  12.801  0.0149 -0.2588 -0.1535
14568W        W31415  15.702   2.776   1.451  0.3484 -0.0870 -0.1273
14569W        W31416  14.619   9.565  12.381 -0.1451 -0.0126  0.3300
14570W        W31417  13.847  12.186   2.028 -0.0163 -0.0288 -0.1288
14571W        W31418   3.867   3.682  16.029 -0.1066 -0.0873 -0.2864
14572W        W31419   1.417   0.556   5.949 -0.2909  0.1315 -0.1649
14573W        W31420   3.086   7.364   2.560  0.0028 -0.3059  0.1083
14574W        W31421   0.546  14.370  13.631  0.0729  0.3291 -0.2855
14575W        W31422  17.066  14.784  15.914  0.1461 -0.0144  0.0240
14576W        W31423   5.681   1.452  14.630 -0.2017  0.2569 -0.2288
14577W        W31424  15.511   7.932  15.351  0.2446 -0.2103  0.3087
14578W        W31425  12.577  18.132  15.584  0.0256  0.0314 -0.0449
14579W        W31426  14.857   4.440  12.294  0.0028 -0.1590 -0.0631
14580W        W31427  14.082  16.421  14.902  0.0384 -0.0643  0.2087
14581W        W31428   7.399   5.948  13.480 -0.0633  0.2807  0.0300
14582W        W31429  11.867   9.092   1.576 -0.3983 -0.0624 -0.1165
14583W        W31430   4.432  10.501  12.422  0.0054 -0.0560  0.0648
14584W        W31431   4.343   2.636   4.956 -0.2150  0.1401  0.3225
14585W        W31432   4.985   9.864   0.626  0.0007  0.3225 -0.1251
14586W        W31433  15.527   5.090  12.441  0.2379  0.0978  0.1427
14587W        W31434  12.433   8.822   5.333 -0.0679  0.1913  0.2895
14588W        W31435   5.908  10.041   1.165  0.3826  0.0741 -0.0841
14589W        W31436  11.446   1.640   3.087 -0.0174 -0.2447 -0.0017
14590W        W31437   7.074   4.672   1.586  0.1176  0.1303 -0.0451
14591W        W31438   9.593  17.641  14.443 -0.0028  0.1341  0.0130
14592W        W31439   6.043  16.819  13.437  0.0954  0.0092 -0.0506
14593W        W31440   9.044  10.540   0.604 -0.1315 -0.0489 -0.2182
14594W        W31441  15.760  15.125  16.083  0.1350 -0.0420  0.0644
14595W        W31442  17.102   5.807   0.093 -0.0101  0.0821  0.1950
14596W        W31443   1.019  13.647   1.888  0.3947  0.3781 -0.1225
14597W        W31444   8.399  14.339  14.858  0.2354 -0.1799 -0.1306
14598W        W31445  14.920   4.721  14.004 -0.2919  0.1305  0.1658
14599W        W31446  17.398  15.476  13.984 -0.2910  0.1884 -0.0790
14600W        W31447  14.328   5.825  11.990 -0.0121 -0.2755 -0.0140
14601W        W31448   0.394   3.435  10.945  0.1433  0.0705  0.0165
14602W        W31449  17.158   1.272   1.414 -0.2737  0.1418 -0.0474
14603W        W31450   7.106   7.765   5.490 -0.1518  0.0978  0.1367
14604W        W31451   0.293  13.881  13.088  0.3026 -0.3885  0.1731
14605W        W31452  12.034   5.146  11.586 -0.3023  0.0185 -0.0977
14606W        W31453  14.300   8.747   3.312 -0.0064  0.2307 -0.0388
14607W        W31454   8.301  15.450   3.800 -0.2156  0.1542  0.0413
14608W        W31455  10.700   8.752  14.806 -0.2808  0.2072 -0.2936
14609W        W31456  18.023  12.210   2.088  0.1006  0.0495  0.3031
14610W        W31457  10.912  12.044  13.378  0.0006 -0.0294  0.0478
14611W        W31458  12.789   9.036  15.880 -0.0237 -0.0721  0.0829
14612W        W31459  12.436  10.420  12.260 -0.0716  0.1517 -0.2321
14613W        W31460  11.526   0.820   5.539 -0.0509  0.1519 -0.2951
14614W        W31461  11.440  14.509   1.507  0.1267 -0.3322 -0.0796
14615W        W31462   5.152  12.024  13.387 -0.0450 -0.3073 -0.0339
14616W        W31463   8.152   7.505  11.729 -0.1504 -0.1000  0.1073
14617W        W31464  11.255   4.993  12.893  0.4101 -0.1714 -0.2055
14618W        W31465   6.158  16.563   3.875 -0.0007 -0.0577 -0.0193
14619W        W31466   3.463   5.319  14.394  0.3032 -0.0817  0.2004
14620W        W31467   2.314   7.075   5.008 -0.1595  0.2674  0.0325
14621W        W31468  14.359   7.001   3.226  0.1090 -0.1023  0.1690
14622W        W31469  12.172   8.220   1.231  0.0797 -0.1700 -0.3911
14623W        W31470  12.075   1.114   4.411 -0.0779 -0.2355  0.2783
14624W        W31471   6.846   2.833   4.240  0.0103 -0.2284 -0.0771
14625W        W31472  16.147  12.755  13.127 -0.1502 -0.2379  0.2626
14626W        W31473   3.374  14.131  13.029 -0.1153 -0.4027 -0.1012
14627W        W31474  11.156   8.260  13.999 -0.0058 -0.0804  0.0651
14628W        W31475  15.245  10.472   1.537 -0.1156 -0.3007  0.1283
14629W        W31476  10.726  12.739   0.309 -0.0132 -0.1066  0.1265
14630W        W31477   0.206   0.122  14.115 -0.3650  0.0435 -0.1098
14631W        W31478  16.927  18.101  15.672  0.1551  0.0365 -0.1172
14632W        W31479   9.425   4.310   4.172 -0.1699 -0.3370 -0.1562
14633W        W31480  16.974   2.294  16.070 -0.2142 -0.0130  0.0398
14634W        W31481   0.609  18.232   2.247 -0.4066 -0.1355  0.2049
14635W        W31482   4.479   6.321   0.506 -0.2708  0.1734  0.0039
14636W        W31483  15.677   7.295  15.219 -0.1775  0.0161  0.3251
14637W        W31484   2.417   6.632  14.889  0.0584 -0.0940  0.1373
14638W        W31485   1.571  13.301   5.082 -0.0986 -0.4338  0.2122
14639W        W31486  15.309   9.430  13.668 -0.0907  0.1197  0.4007
14640W        W31487  12.911  11.184   1.574 -0.0518 -0.0282 -0.2167
14641W        W31488  11.676  15.786  11.789  0.1243 -0.0720 -0.0981
14642W        W31489   7.961   5.582  14.313 -0.0534 -0.1347  0.1923
14643W        W31490   8.419   6.700  14.405 -0.0501 -0.0348  0.0854
14644W        W31491   0.573   9.573   4.137  0.0834  0.0035  0.0689
14645W        W31492  16.001   0.523  10.434  0.0413 -0.1248  0.1252
14646W        W31493  17.516   9.303   0.181 -0.0612 -0.1553  0.1028
14647W        W31494  15.288   6.884   3.037 -0.2110  0.2599  0.0231
14648W        W31495   3.613  10.389  14.141 -0.0918 -0.3849  0.0076
14649W        W31496   4.712  13.193   4.136  0.1027  0.3229  0.0773
14650W        W31497  12.714  13.739  14.046  0.1903 -0.1134 -0.2356
14651W        W31498  18.055   5.828   1.316  0.1260  0.1032  0.3599
14652W        W31499  14.879  15.452  15.762  0.1316  0.0101 -0.1736
14653W        W31500   9.400  10.561   5.688 -0.0526  0.0288  0.0846
14654W        W31501  11.975  10.152  12.947 -0.0238 -0.2485 -0.2141
14655W        W31502   1.395   0.606   4.965  0.1965 -0.2552  0.0541
14656W        W31503  15.559   1.076   1.190 -0.0065  0.0178 -0.0958
14657W        W31504   0.503  15.041  14.625 -0.4215 -0.0314  0.1473
14658W        W31505  17.715   3.183   3.142 -0.0285  0.1213  0.0707
14659W        W31506   6.807   8.020  13.628  0.1511 -0.0979  0.1389
14660W        W31507   7.621   3.267   1.255 -0.0723 -0.3083  0.0408
14661W        W31508   2.980   8.803   0.038 -0.2992  0.3353  0.1409
14662W        W31509   6.756   0.910  12.405  0.0615 -0.1780 -0.1364
14663W        W31510   3.993  15.498  15.620 -0.1469  0.3141  0.2597
14664W        W31511  11.457  11.743   0.781  0.3313  0.0889  0.1736
14665W        W31512   5.434   8.443   1.439  0.0840 -0.0371  0.1118
14666W        W31513   7.176  10.586  11.826 -0.3375 -0.1294  0.2309
14667W        W31514   7.406   3.121  15.099 -0.0595 -0.0484 -0.1193
14668W        W31515   4.383   3.570  11.385 -0.0788 -0.3550 -0.0919
14669W        W31516   3.393   9.440   0.930 -0.0647  0.1084  0.0284
14670W        W31517   3.068   3.904   1.020  0.0839  0.1011 -0.0564
14671W        W31518  14.037   7.381   2.882  0.1031 -0.0989  0.4371
14672W        W31519  12.881  18.062  14.179  0.2047 -0.4270 -0.1338
14673W        W31520   5.692  14.135   0.835  0.0968 -0.1486 -0.2037
14674W        W31521   5.937   7.246   1.642 -0.3494  0.1870  0.0654
14675W        W31522   4.272   7.336   3.644  0.3511  0.1019 -0.3231
14676W        W31523  13.729  16.220  14.634  0.0595 -0.1433 -0.0600
14677W        W31524  12.877   5.266   0.527  0.4737  0.1086  0.0586
14678W        W31525   1.435   4.620   5.101 -0.2397  0.1472 -0.0494
14679W        W31526   4.477  15.119   1.237 -0.1569 -0.1496 -0.0522
14680W        W31527   4.937  15.017   4.213 -0.2039 -0.0372 -0.1546
14681W        W31528  15.664   7.064  13.364 -0.1576 -0.0663 -0.1425
14682W        W31529  13.334   8.499   0.621 -0.0454  0.1001  0.0001
14683W        W31530  16.518   6.742  13.231 -0.1099 -0.0718  0.1341
14684W        W31531  15.245   2.851   5.097 -0.0491 -0.2638  0.0273
14685W        W31532   7.578  16.546   5.104  0.0216 -0.0267 -0.0341
14686W        W31533  10.188  15.437  12.633 -0.0837 -0.0032  0.0653
14687W        W31534   2.886   4.408   5.547  0.2885 -0.1092  0.0663
14688W        W31535   4.576   2.807  15.699  0.1574 -0.0318 -0.0246
14689W        W31536   0.879   5.188  14.180 -0.1150 -0.0762 -0.0043
14690W        W31537  16.181  16.652  12.425 -0.1973 -0.1780  0.3238
14691W        W31538  17.126  15.569  12.997 -0.2094  0.1625 -0.1705
14692W        W31539  15.468   0.243  13.534  0.2441  0.1097  0.1899
14693W        W31540   7.805  17.318  10.861 -0.0499 -0.2660  0.3301
14694W        W31541  17.826   1.605  14.327  0.2101 -0.1348  0.0246
14695W        W31542   6.371   8.732   5.212  0.0729 -0.0737  0.2626
14696W        W31543  11.628  15.395   3.379 -0.2163  0.0123 -0.0148
14697W        W31544   0.101   7.052   3.238 -0.1940 -0.1347 -0.3150
14698W        W31545  13.132   9.023  12.796  0.4717  0.0457 -0.1700
14699W        W31546   8.093   6.795   1.236  0.1736  0.1074 -0.1837
14700W        W31547   0.510  14.519   1.402 -0.0985  0.0676 -0.0999
14701W        W31548   6.406   4.093  13.482 -0.1140  0.2199 -0.1192
14702W        W31549   9.137  14.362   3.052  0.1490 -0.2702 -0.1089
14703W        W31550  15.077   1.894  14.667 -0.1615  0.0810  0.1923
14704W        W31551   3.495   6.750   4.346 -0.1785  0.0263  0.1064
14705W        W31552   6.277  16.161  14.951  0.0093 -0.3226 -0.1548
14706W        W31553   6.442   4.732  11.213  0.2855  0.1855 -0.0756
14707W        W31554   3.475  14.271   5.248 -0.1799 -0.0051 -0.1049
14708W        W31555   3.804   4.426   5.302  0.2516  0.0761 -0.2818
14709W        W31556   0.004   0.185  12.931 -0.0154 -0.1323 -0.0257
14710W        W31557   6.221   7.453   3.451 -0.0388  0.0349 -0.0418
14711W        W31558   6.503   3.154  14.886  0.0090 -0.0160  0.0053
14712W        W31559   7.137   1.212   0.880 -0.0415 -0.1585 -0.0005
14713W        W31560  13.990  18.292  13.790  0.2148  0.1258 -0.0628
14714W        W31561  14.295  11.795  13.743 -0.3343  0.0032  0.1114
14715W        W31562  15.158   6.531  12.490  0.0111  0.0081  0.0089
14716W        W31563   3.346   8.603   2.101 -0.0375  0.1790  0.1115
14717W        W31564  12.719   5.687   4.388  0.3250  0.1244 -0.0651
14718W        W31565   1.718   6.426  14.240  0.1213 -0.2037 -0.0896
14719W        W31566  13.136  12.900   5.869  0.0672  0.1153  0.1463
14720W        W31567  17.069   8.629  12.287  0.0647 -0.1382  0.3654
14721W        W31568   2.861   6.332   4.045 -0.1968 -0.2730  0.1015
14722W        W31569  12.478   5.012  11.338 -0.0518 -0.1099 -0.1283
14723W        W31570  17.680   2.735  10.623 -0.1042 -0.4630  0.5774
14724W        W31571  12.372   8.367  13.776 -0.3353  0.1200 -0.2369
14725W        W31572   4.100   5.234   1.041 -0.1344  0.0980  0.0400
14726W        W31573   1.679   0.634  14.429 -0.1398  0.0677  0.0014
14727W        W31574  15.631  11.197   4.986 -0.0487 -0.1333  0.0084
14728W        W31575   5.384   2.091  15.520 -0.0579  0.1891 -0.1879
14729W        W31576   0.906   5.125   3.124  0.0186 -0.0398 -0.0657
14730W        W31577   5.012   9.659   2.670 -0.0189 -0.0027 -0.1568
14731W        W31578  14.911   5.171  12.953 -0.0501  0.0285  0.3301
14732W        W31579   7.119   7.825  12.277 -0.1353  0.1544 -0.2939
14733W        W31580  14.008   7.368   1.613 -0.2383  0.1377 -0.2722
14734W        W31581  14.877  18.153  12.094  0.0192  0.2953  0.2057
14735W        W31582  16.616   7.432   4.145  0.2344  0.0707  0.0900
14736W        W31583  17.175   4.277   1.912 -0.1437  0.2008 -0.0622
14737W        W31584  17.580   2.683   0.562 -0.1658  0.0474  0.1300
14738W        W31585  14.695   6.436  14.998  0.0008 -0.0966  0.3182
14739W        W31586   5.083   1.026   3.415 -0.1168  0.0299  0.0021
14740W        W31587   3.768   8.690   0.719  0.0926  0.2872 -0.0366
14741W        W31588   5.742   7.945   4.874  0.0147 -0.1723  0.3113
14742W        W31589   7.188  10.417   1.534  0.0394 -0.0089 -0.1061
14743W        W31590   7.573  10.962  14.249  0.3993  0.0286  0.2422
14744W        W31591   0.075  14.689  15.838  0.0329 -0.2432 -0.0655
14745W        W31592  18.200   3.046  16.168  0.0899  0.1328  0.1963
14746W        W31593   1.604   7.966  13.209  0.1581 -0.0023 -0.2479
14747W        W31594  17.642   3.179  11.546  0.2611 -0.0553  0.0241
14748W        W31595  14.688  17.390  14.522 -0.3314 -0.1646  0.2758
14749W        W31596  14.278   0.647   2.768 -0.1336 -0.1173  0.0890
14750W        W31597  14.412   8.301  14.245 -0.3334 -0.1702 -0.0132
14751W        W31598   4.314   3.033   1.480  0.0690  0.0982  0.2780
14752W        W31599  12.604  14.246  11.851  0.0388 -0.0718 -0.1410
14753W        W31600  14.380   2.181  11.671 -0.0575 -0.0199 -0.1001
14754W        W31601   1.428  15.189   5.145 -0.0186 -0.0941 -0.0094
14755W        W31602  16.042   2.266   4.565  0.2223 -0.1438 -0.1935
14756W        W31603  14.664  15.522   0.851  0.1959 -0.1123  0.1602
14757W        W31604  14.386  10.958   1.834  0.0110 -0.2903 -0.3324
14758W        W31605   3.996   2.215   1.575  0.1120  0.2417 -0.0156
14759W        W31606   5.264   4.307   0.905 -0.0606 -0.0156  0.0152
14760W        W31607   1.788  16.749  11.312  0.2660 -0.2124  0.0593
14761W        W31608   9.793  13.317  15.148 -0.3328 -0.1759  0.0432
14762W        W31609   7.328   4.989   4.739 -0.0167 -0.1919 -0.1052
14763W        W31610  14.387   9.273   2.977 -0.0867 -0.1220 -0.2453
14764W        W31611   2.073   2.177   2.955 -0.2232 -0.0417 -0.0967
14765W        W31612  13.215  14.780  15.129 -0.1201  0.0063  0.0105
14766W        W31613   1.279   9.944  13.993  0.0669  0.2001 -0.4368
14767W        W31614  11.204   4.092  16.107 -0.0223 -0.3647 -0.2738
14768W        W31615   1.621   0.362  13.154  0.1052 -0.0210  0.2069
14769W        W31616  11.358  18.093  14.335  0.0856  0.0016  0.0016
14770W        W31617  17.861   9.030  13.883 -0.0728 -0.0427  0.3592
14771W        W31618  11.051   7.422   1.497  0.1827 -0.0729 -0.0080
14772W        W31619  18.303  10.615   4.155 -0.1873 -0.2098 -0.1354
14773W        W31620  14.332  17.073  14.689  0.1561  0.0011  0.0986
14774W        W31621  14.304  14.709   0.004  0.1158 -0.0810  0.0925
14775W        W31622   7.768   9.974  12.029 -0.2353 -0.1353  0.0978
14776W        W31623  11.758  15.136   1.950  0.1618 -0.1698 -0.5238
14777W        W31624   0.206  11.382  13.619  0.2693  0.1220  0.3689
14778W        W31625   4.061  11.345  13.931 -0.1874 -0.2146  0.4559
14779W        W31626   4.571   8.666   1.550  0.0496 -0.0563 -0.0597
14780W        W31627   2.385   2.170   5.012  0.0061  0.2895 -0.2491
14781W        W31628  12.742  11.775  13.739  0.2869 -0.2331 -0.0936
14782W        W31629   5.919  16.903  11.528 -0.0702  0.0543 -0.2444
14783W        W31630   5.311   5.007  14.380 -0.0556 -0.0385 -0.1633
14784W        W31631   3.244   4.284  15.314 -0.1136 -0.1632  0.2914
14785W        W31632   5.206   9.733  14.161 -0.0494 -0.1305 -0.0274
14786W        W31633  13.381   9.724   3.974  0.0291 -0.2344 -0.2852
14787W        W31634   2.004   8.362   4.649  0.1279 -0.2352  0.0638
14788W        W31635  13.935   5.037  14.225  0.1553 -0.2457  0.3436
14789W        W31636   0.573   6.772   1.413 -0.0833 -0.1650  0.1176
14790W        W31637  17.703   4.128  11.777  0.0053  0.1457  0.0053
14791W        W31638  17.975   8.059   2.588  0.2578 -0.2277 -0.1865
14792W        W31639  17.479  16.367   0.399  0.0121  0.0860 -0.0802
14793W        W31640   1.172  17.774  14.983 -0.4310 -0.0627  0.0690
14794W        W31641   7.199   8.406  14.904  0.0520  0.0319 -0.4290
14795W        W31642  11.142   3.457  14.261 -0.1497  0.2617  0.1500
14796W        W31643  13.563   8.953  14.423  0.1194  0.2477 -0.4208
14797W        W31644   4.801  15.113  13.689 -0.3055  0.3095 -0.0480
14798W        W31645   8.542   0.540   0.408  0.0317 -0.0554 -0.1130
14799W        W31646  12.162   8.443   4.664 -0.0686 -0.0734  0.0894
14800W        W31647  15.888   2.694  13.137 -0.2761  0.1946  0.0200
14801W        W31648   5.677  12.919  12.556  0.0461 -0.1191 -0.5602
14802W        W31649   3.791   2.831  11.610  0.5378 -0.0455 -0.1583
14803W        W31650  14.478  10.903   2.617  0.0507  0.0240  0.2278
14804W        W31651   9.187  10.170  12.111  0.0758 -0.0353 -0.0832
14805W        W31652  14.780   4.227  15.455  0.3047 -0.1002  0.0495
14806W        W31653   6.101   9.519   0.234  0.0179 -0.0449  0.1939
14807W        W31654   7.003   8.578   1.749  0.0867 -0.2457 -0.4112
14808W        W31655  10.334  11.677  13.145 -0.0716 -0.0276  0.0865
14809W        W31656  15.657   1.804  11.816  0.1896  0.4822 -0.1923
14810W        W31657   8.761   7.449   1.515  0.2180  0.1748  0.2410
14811W        W31658  10.806  17.846  15.371 -0.3463  0.0299  0.1039
14812W        W31659   0.128  11.787  13.185 -0.2517 -0.2903 -0.0012
14813W        W31660  12.066  16.818   4.850 -0.2436  0.1687 -0.0633
14814W        W31661   1.212   8.616   2.164 -0.0682 -0.3414 -0.4549
14815W        W31662   0.089   1.834  12.654 -0.2093 -0.0024 -0.0550
14816W        W31663   9.613  13.997  12.383  0.1513  0.1542 -0.1415
14817W        W31664   3.543  17.299  12.550 -0.3808 -0.2180  0.1681
14818W        W31665  13.490   5.391  13.902 -0.0223 -0.2154  0.0710
14819W        W31666   9.998  11.949  12.881 -0.0836 -0.0320 -0.1254
14820W        W31667   1.259   1.193  12.639  0.1831  0.2526  0.3035
14821W        W31668   0.932  10.730   4.865  0.0180 -0.1890  0.1668
14822W        W31669  14.198   1.609  15.614  0.0304 -0.1301  0.0627
14823W        W31670  17.344  16.036   2.180  0.1918  0.0823  0.0642
14824W        W31671   5.189   4.800   1.122 -0.0183  0.1388  0.1051
14825W        W31672   4.140  16.286  16.051  0.0725  0.0042 -0.1356
14826W        W31673   3.256   1.731   4.674 -0.0360 -0.0610  0.0606
14827W        W31674  15.612   8.106  12.191 -0.1882  0.1979 -0.1160
14828W        W31675  11.991   0.284  13.170  0.0668  0.0354  0.1480
14829W        W31676   8.132  11.079  11.552 -0.2150  0.0870  0.1317
14830W        W31677   6.254   8.248  12.949 -0.0441 -0.2083 -0.0371
14831W        W31678  11.775   2.689  16.044  0.4220 -0.0883 -0.3331
14832W        W31679  15.886   7.868   4.555 -0.0672 -0.0913  0.1849
14833W        W31680  13.697   9.211  12.628  0.2444 -0.2255  0.0119
14834W        W31681   7.041  10.957  14.261 -0.0527 -0.1396  0.0060
14835W        W31682  12.611   2.423   4.142 -0.1342 -0.0461  0.3505
14836W        W31683  11.258   3.143   1.546  0.5404  0.0318 -0.1983
14837W        W31684  13.862  16.813  12.819  0.2069  0.0859 -0.0448
14838W        W31685   7.775  17.741   5.474  0.1717  0.1364  0.1609
14839W        W31686  13.228   4.991  15.493  0.2612  0.0332  0.1563
14840W        W31687  10.546  14.576  14.003  0.3590  0.1111 -0.2036
14841W        W31688  11.730   9.242  11.095  0.2494  0.2927  0.0373
14842W        W31689   5.984   2.547   4.235 -0.0466  0.3759 -0.0931
14843W        W31690   0.729  10.541   0.145 -0.1717  0.3092 -0.0272
14844W        W31691   2.950   0.228   1.042  0.0475  0.0692  0.0261
14845W        W31692   4.129  16.861   4.025  0.0373 -0.4453 -0.1865
14846W        W31693  16.429  15.284  14.774  0.0025  0.0255 -0.4795
14847W        W31694  17.046  16.562  15.053 -0.1690 -0.1267  0.1414
14848W        W31695  14.334  13.597  12.530 -0.0712 -0.2536 -0.1196
14849W        W31696  16.685  12.708   0.968 -0.0430  0.3514 -0.0075
14850W        W31697  18.008   4.969  12.925 -0.1765 -0.0602  0.4480
14851W        W31698   8.780   2.584   2.054  0.1728  0.1702 -0.2223
14852W        W31699  12.106  14.184   4.275 -0.0161 -0.0283  0.1353
14853W        W31700   0.143  12.104   2.634 -0.0704  0.1735 -0.1291
14854W        W31701  15.149  10.007  14.182  0.0926 -0.4097 -0.1106
14855W        W31702  12.865  10.366   5.105  0.1088 -0.4014  0.2300
14856W        W31703   6.316  15.674  13.330 -0.2494 -0.2214  0.2250
14857W        W31704   7.557  10.794   1.576 -0.0711  0.0990  0.0254
14858W        W31705  17.623   7.913  11.260 -0.0101 -0.3213 -0.1741
14859W        W31706  14.444  15.919  13.089 -0.1321 -0.0002 -0.0023
14860W        W31707   1.438  13.949   1.274 -0.2551 -0.5364  0.1487
14861W        W31708  17.448   9.923   2.408  0.2174 -0.0531  0.0266
14862W        W31709   9.075   9.465   0.373 -0.0135 -0.1455 -0.0547
14863W        W31710   1.037   7.252   2.373  0.1396 -0.2323  0.0107
14864W        W31711   5.255  13.533   0.654  0.3248 -0.1793  0.2919
14865W        W31712   8.519  17.137   1.017  0.0846  0.0186 -0.1382
14866W        W31713  14.199   1.464  14.091 -0.0143 -0.3372 -0.3831
14867W        W31714   5.788  10.695   0.617  0.1457 -0.4062  0.0823
14868W        W31715   6.232  10.768  16.064  0.1460  0.0826 -0.0901
14869W        W31716   4.300   4.959  14.551 -0.0323 -0.2541  0.0759
14870W        W31717  11.319  14.395  11.262  0.1422  0.1923  0.0560
14871W        W31718   4.892   8.124   2.306 -0.0411 -0.1140 -0.0277
14872W        W31719  10.334   2.647   0.115  0.4313 -0.0040 -0.2501
14873W        W31720  12.484   1.743   3.316  0.2452  0.2145  0.1342
14874W        W31721   0.953   6.435  13.245 -0.0627  0.0140 -0.2773
14875W        W31722  14.684   3.171  13.577 -0.0738 -0.2557 -0.0301
14876W        W31723   6.948   4.838   4.454  0.2166 -0.4390  0.3586
14877W        W31724   2.252  11.279   2.499 -0.3200  0.0306 -0.2593
14878W        W31725   9.187   2.271   2.113  0.0473  0.0256 -0.2295
14879W        W31726  12.624  12.482   0.162 -0.0904  0.1284  0.0386
14880W        W31727   7.324  15.001   1.818  0.2744 -0.1312  0.0729
14881W        W31728   2.968  17.934  12.278  0.2236 -0.0477  0.0986
14882W        W31729   3.161  11.007  12.801  0.0810  0.0542 -0.0749
14883W        W31730  16.962   3.162  16.032  0.1393  0.0031 -0.1290
14884W        W31731   2.845   5.617  13.784 -0.1150  0.1493 -0.2661
14885W        W31732   7.441   9.971   4.187 -0.0445  0.0801  0.2426
14886W        W31733  15.438  17.955   1.088  0.0607 -0.0178 -0.1721
14887W        W31734  15.782   6.895  14.730 -0.1851  0.2899 -0.0523
14888W        W31735   4.302  14.072  12.971 -0.0574 -0.1585  0.1122
14889W        W31736   3.323  12.558  15.992 -0.1073  0.0751 -0.0507
14890W        W31737   1.330   9.620  15.554  0.3244  0.0750 -0.0212
14891W        W31738   6.105   0.150  13.345  0.5525 -0.1494 -0.0144
14892W        W31739  14.709   9.293  16.003  0.2714  0.1022 -0.2457
14893W        W31740   2.143   5.871   4.393 -0.0177  0.1220 -0.3041
14894W        W31741  11.022  15.745   0.433 -0.1134  0.1553  0.0832
14895W        W31742  13.725  12.507  12.199  0.0175  0.1283 -0.0280
14896W        W31743   3.921   9.764  15.199  0.0815 -0.1929 -0.2041
14897W        W31744   1.490  17.758  14.036 -0.6376  0.1895 -0.0249
14898W        W31745  16.024  15.831  12.750  0.0656  0.0850 -0.2511
14899W        W31746  14.621   6.304   4.500 -0.0251 -0.1131 -0.2155
14900W        W31747   4.952  14.748  16.009  0.2000 -0.3793 -0.2015
14901W        W31748  10.661  17.852  15.877  0.0647  0.0674 -0.0247
14902W        W31749   4.063   5.745  14.421  0.0049  0.0937  0.0045
14903W        W31750  10.416  17.323   5.332 -0.3235  0.1804 -0.3159
14904W        W31751   1.956  15.339   1.168  0.2678 -0.0791  0.0910
14905W        W31752  13.586   0.450   2.356 -0.0548  0.2097  0.0812
14906W        W31753   3.874   6.221   1.398  0.0673  0.1144 -0.0439
14907W        W31754  12.412   4.196   0.182 -0.0265 -0.0852 -0.0080
14908W        W31755  13.789   1.974   3.889  0.1994  0.2384 -0.1343
14909W        W31756   0.719  15.993   3.728  0.0007  0.4502  0.0347
14910W        W31757  17.916   2.497  11.070  0.1561 -0.1514  0.0757
14911W        W31758   5.095   1.619  14.780  0.1001 -0.2636  0.1161
14912W        W31759  14.813   8.344  13.379  0.2507 -0.3536 -0.0717
14913W        W31760   6.975  12.656   4.445 -0.3926 -0.0074  0.0882
14914W        W31761   3.905  16.559  11.958 -0.0797 -0.1869 -0.0197
14915W        W31762  14.546   9.340   1.886 -0.0558  0.1278  0.2237
14916W        W31763  11.095  10.265   4.091 -0.0159 -0.1886 -0.1284
14917W        W31764  13.910   4.248   4.931  0.0522  0.1800  0.0097
14918W        W31765  14.498  12.587  12.533 -0.1361  0.2382 -0.1575
14919W        W31766   5.491   1.798  14.359  0.1692  0.4539 -0.1392
14920W        W31767   9.573   6.349   1.649  0.2348  0.0387  0.1049
14921W        W31768  15.977   0.116  13.544 -0.0836  0.2033 -0.2669
14922W        W31769   6.505  15.439  12.935  0.2469  0.2273  0.0141
14923W        W31770  17.186   4.570  12.360  0.0881 -0.0904  0.1008
14924W        W31771   9.906   6.046   0.311 -0.1542 -0.3544  0.0092
14925W        W31772   4.277  11.625   4.963 -0.2948 -0.0115  0.3387
14926W        W31773   6.976   1.785  13.188 -0.1536  0.1922  0.1649
14927W        W31774  12.688  11.682   0.623  0.3664  0.0899 -0.0658
14928W        W31775  11.353   5.503   4.635 -0.0483  0.1988 -0.0297
14929W        W31776   4.691   8.173  15.607 -0.3228 -0.2571 -0.2296
14930W        W31777   2.625   8.070  14.401  0.1782  0.2705 -0.0278
14931W        W31778   8.594   3.544  13.087 -0.0231  0.1757  0.0287
14932W        W31779   9.131   6.556  15.285  0.2352  0.1160  0.1708
14933W        W31780   3.289   3.964   5.305 -0.3088  0.0958 -0.3993
14934W        W31781   5.411  12.894   1.241 -0.0137  0.1316 -0.1852
14935W        W31782   4.572   9.089  13.092  0.2418  0.1118  0.0249
14936W        W31783  11.126  11.839   4.550 -0.1499 -0.0764 -0.1455
14937W        W31784   6.798  12.376  15.331  0.2907  0.1467  0.3076
14938W        W31785  15.549   5.351   1.969 -0.1583  0.2209 -0.0916
14939W        W31786   6.985   7.178  16.029  0.0297 -0.0523  0.1360
14940W        W31787   2.263  15.265  12.022  0.4117  0.1074 -0.1126
14941W        W31788   2.258  16.433   4.254  0.0776 -0.0145 -0.2431
14942W        W31789  12.559  10.384   5.549 -0.0826  0.1104  0.0353
14943W        W31790  14.253  17.187   1.197  0.3990  0.0899  0.0811
14944W        W31791   6.197   0.892  14.511 -0.1446  0.0289  0.0765
14945W        W31792  14.278   5.582   0.680 -0.1006  0.0673 -0.1488
14946W        W31793  17.786  12.283   4.536 -0.1226 -0.0357  0.2756
14947W        W31794  11.554   4.716  13.316 -0.2119  0.0528  0.1420
14948W        W31795   5.259   1.134   3.968  0.2512  0.0117 -0.2714
14949W        W31796   1.555  16.767   0.308 -0.0683 -0.0207 -0.0624
14950W        W31797   4.182   6.010  14.847 -0.1925  0.1754  0.1375
14951W        W31798   7.775   3.126   0.219  0.2055 -0.3938 -0.2178
14952W        W31799   4.505   7.727  15.390 -0.0789  0.2698  0.5637
14953W        W31800   5.969   2.786  12.664 -0.2718  0.1400  0.0726
14954W        W31801   3.257   1.200   3.790  0.0755  0.0942 -0.1478
14955W        W31802   2.970   3.969   0.535 -0.1900  0.0502 -0.0850
14956W        W31803   6.818  17.338  14.605  0.1208 -0.3034  0.2080
14957W        W31804   9.681   3.817  11.575 -0.1008  0.0194  0.1394
14958W        W31805  15.029   1.217  11.521 -0.1597 -0.1303  0.0395
14959W        W31806  13.311   6.004   1.913 -0.3789 -0.0457 -0.2548
14960W        W31807   5.017   0.078   3.997 -0.0877 -0.1868  0.0956
14961W        W31808   5.656   4.474   2.653  0.1464  0.1863  0.0028
14962W        W31809   2.517  17.007   0.808 -0.0662 -0.0072  0.2725
14963W        W31810   6.684   0.569   2.466  0.2283 -0.2395  0.0846
14964W        W31811  14.862  17.585  12.096 -0.3263  0.1490 -0.1103
14965W        W31812  12.104   5.757  15.204 -0.0326  0.3073 -0.0522
14966W        W31813   8.686   2.948  12.814 -0.0823  0.0295 -0.0963
14967W        W31814  11.341  13.929  11.464  0.0359 -0.1484  0.1081
14968W        W31815   6.540   7.876   4.316 -0.0334  0.1622 -0.2501
14969W        W31816  10.247   4.434   5.375 -0.0632  0.0571  0.0861
14970W        W31817  11.645   8.439   4.691 -0.1143 -0.3588 -0.2045
14971W        W31818   9.553  17.973  14.055 -0.1103  0.2426  0.1202
14972W        W31819   1.460   4.085   5.776 -0.0145  0.0854 -0.1951
14973W        W31820  12.713  11.481   3.635  0.0933 -0.0637 -0.0071
14974W        W31821   9.650   5.982   2.933 -0.2163 -0.1698  0.0216
14975W        W31822  13.219   1.426  14.309  0.1937 -0.3654 -0.2373
14976W        W31823   6.070  14.648   2.363 -0.2023 -0.1446  0.0972
14977W        W31824  17.137   1.575  10.356 -0.1686 -0.2485  0.0268
14978W        W31825   0.671   2.346  15.336  0.1574 -0.0028 -0.1547
14979W        W31826   1.825  10.102  13.954 -0.1306 -0.1881 -0.1146
14980W        W31827   0.749   2.628   0.279 -0.1409 -0.0274  0.1405
14981W        W31828  15.066   8.319   2.652  0.0703  0.0379  0.1658
14982W        W31829  10.535  16.168   4.447 -0.1516  0.0272 -0.2333
14983W        W31830  18.187  11.758   3.115 -0.1773 -0.0925  0.0450
14984W        W31831   0.178   4.512  14.118 -0.1722 -0.1969  0.1190
14985W        W31832  13.624   7.760   5.783 -0.4322 -0.0833  0.0553
14986W        W31833  13.306   4.948   4.620 -0.0924 -0.1412  0.2104
14987W        W31834  13.022  13.041  14.764 -0.3411  0.3125 -0.5713
14988W        W31835  10.177   2.484  15.339  0.0501  0.0492  0.2727
14989W        W31836  11.002   2.573   1.594  0.0272  0.0921 -0.0196
14990W        W31837   2.521  16.378  12.386  0.1222 -0.3970  0.0072
14991W        W31838   9.353  18.170  13.312  0.4082  0.0597  0.0437
14992W        W31839   3.177  13.415   5.186  0.2411 -0.2993 -0.1043
14993W        W31840   2.198   8.572   5.903  0.1565 -0.0757 -0.0087
14994W        W31841   1.911   3.415   1.769 -0.1480 -0.1777  0.2816
14995W        W31842  10.309   1.349  11.242  0.0492  0.0377  0.0080
14996W        W31843   4.405   4.316   1.010  0.1911 -0.1506  0.0345
14997W        W31844   0.380  14.938   4.277  0.2873  0.0171  0.1723
14998W        W31845   4.618  15.891  11.054 -0.4308 -0.0499 -0.1220
14999W        W31846  12.669   2.563   2.168 -0.3132 -0.1392  0.0520
15000W        W31847   5.114  17.528  14.561  0.0492  0.0348 -0.0604
15001W        W31848   8.118   9.928  13.527 -0.2355  0.0348  0.1267
15002W        W31849  14.334   6.414  15.755 -0.1282  0.2523  0.2141
15003W        W31850  12.749   8.143   3.970  0.3634  0.2250  0.2456
15004W        W31851   2.555   1.739   0.985  0.2223 -0.1694  0.1334
15005W        W31852   2.646  15.266   2.450 -0.0190 -0.1204  0.2155
15006W        W31853   4.959   4.759   3.711  0.2213 -0.0073  0.3004
15007W        W31854  18.102   6.146   3.019  0.1122  0.3214 -0.3645
15008W        W31855  12.248   6.439  10.759  0.2187 -0.1060  0.0128
15009W        W31856   5.551   8.621  16.111 -0.0761  0.0308 -0.0418
15010W        W31857  13.328   4.509  12.146  0.0529 -0.1101  0.0932
15011W        W31858   6.068   0.579  15.039 -0.0251 -0.3371  0.3810
15012W        W31859   2.396  12.748  10.431  0.0953  0.0452  0.0068
15013W        W31860  16.242   1.663   1.226 -0.2964  0.1426 -0.0109
15014W        W31861   6.675  12.115   2.652 -0.1512 -0.1978 -0.1958
15015W        W31862  13.409  11.570   3.119 -0.2821 -0.0793  0.1884
15016W        W31863  14.132  10.064   2.406  0.1300 -0.2119 -0.3374
15017W        W31864  14.107   3.949   0.318  0.1473  0.0802 -0.0115
15018W        W31865  16.481   0.533   4.466 -0.1503 -0.1437  0.1348
15019W        W31866  14.486   7.083  13.738 -0.4222  0.2406  0.0517
15020W        W31867   9.541   4.564   4.896 -0.1401 -0.1534 -0.1879
15021W        W31868   3.276   9.213  11.567  0.0808  0.0010  0.0508
15022W        W31869   0.625  11.091  13.922 -0.1880  0.2188  0.1558
15023W        W31870   7.985   1.663  13.063 -0.1686 -0.2257  0.1017
15024W        W31871  14.509   1.549   2.348  0.2207 -0.0093  0.0725
15025W        W31872  11.841  13.124  15.232 -0.0890 -0.0551  0.1592
15026W        W31873   5.209  11.092  13.535  0.2295 -0.0844  0.1083
15027W        W31874   5.494   5.927   0.314  0.0692 -0.0473  0.1340
15028W        W31875  14.354   2.067   3.450  0.0978 -0.0570 -0.3461
15029W        W31876  14.637   3.920   3.487 -0.1841 -0.0588  0.3086
15030W        W31877  13.337   5.272  11.494 -0.1437  0.1582 -0.1081
15031W        W31878  15.611   8.476  13.747 -0.1302 -0.0683  0.1308
15032W        W31879  17.208   4.516  16.076 -0.0450  0.3566  0.3354
15033W        W31880   2.818  14.076  13.165  0.0830 -0.0800 -0.2007
15034W        W31881   9.548   4.191  14.385 -0.2147 -0.2651 -0.0463
15035W        W31882  14.398   9.388   3.955  0.0539  0.1352  0.1503
15036W        W31883   5.750  14.308   2.320  0.1076  0.0289 -0.0938
15037W        W31884   1.163   5.105   2.493  0.0816  0.2130 -0.1122
15038W        W31885   4.591  15.256   4.839 -0.0447 -0.2007  0.3665
15039W        W31886  11.804   6.260   4.286  0.0293 -0.0660 -0.1579
15040W        W31887  16.646   6.433  14.629 -0.2481  0.1678 -0.0309
15041W        W31888   3.364  15.340  11.163  0.1092 -0.1027  0.1399
15042W        W31889   4.320  16.002   1.144  0.3755  0.5125  0.1133
15043W        W31890   8.027   3.004   1.016  0.0063  0.1429  0.1794
15044W        W31891  12.192   2.662  14.209 -0.1895  0.0737  0.0816
15045W        W31892   4.238  17.978   0.066 -0.2118 -0.0223  0.0448
15046W        W31893  17.327  15.011   4.169  0.2632 -0.4628  0.1389
15047W        W31894   8.387   3.706  11.611 -0.1956  0.3590 -0.2076
15048W        W31895  10.439   9.117  11.499  0.0024  0.1650  0.1944
15049W        W31896  12.787   4.226   0.498 -0.2054 -0.2440  0.0958
15050W        W31897  11.678   4.284  14.148  0.0281  0.1417 -0.0801
15051W        W31898  12.373  10.321  15.295 -0.2246 -0.0336  0.1122
15052W        W31899   5.641   2.044  14.766 -0.0649  0.0023 -0.0439
15053W        W31900   2.234   0.261   4.107 -0.0193  0.0947 -0.0157
15054W        W31901  11.198  16.384   5.441  0.1580  0.2875 -0.0548
15055W        W31902   7.472  12.947   4.147  0.0176  0.2447 -0.0436
15056W        W31903   6.182  13.525   2.802  0.0709 -0.1052  0.0019
15057W        W31904  15.916   2.300   0.144 -0.0330  0.1724 -0.0323
15058W        W31905   7.464   6.436   5.254 -0.0791  0.3680 -0.1730
15059W        W31906   3.991   1.702   4.170 -0.2318 -0.1721  0.0431
15060W        W31907   3.865   8.786  15.147 -0.0525  0.1551 -0.1434
15061W        W31908  13.848   5.443   2.960  0.1190 -0.0777 -0.1887
15062W        W31909   6.454   1.436   1.342 -0.2838  0.1653  0.1171
15063W        W31910  17.780  12.627   2.065 -0.0304  0.2111  0.1518
15064W        W31911   8.586  13.225  15.583 -0.1848  0.0058 -0.1181
15065W        W31912   2.295   6.053   4.917 -0.0013 -0.0502 -0.1117
15066W        W31913  16.134   9.286  15.318  0.2412  0.0157 -0.0499
15067W        W31914   7.818   0.232  11.723 -0.2793  0.0752  0.0986
15068W        W31915  12.115  16.075   2.577  0.2721 -0.1711 -0.3101
15069W        W31916  11.594  11.430   4.236 -0.3782  0.0129 -0.1623
15070W        W31917  16.262   2.227  11.554  0.4504 -0.0077  0.2967
15071W        W31918   9.358   4.924  12.034  0.3027  0.3976 -0.1416
15072W        W31919   1.883   2.014  15.456 -0.1673 -0.2274  0.2257
15073W        W31920  13.646  17.012   1.842  0.0445 -0.0047  0.1544
15074W        W31921   8.384   6.668   4.440  0.1520  0.0262 -0.0935
15075W        W31922   6.407  13.644  15.621  0.0808  0.0267 -0.0860
15076W        W31923  11.777  10.230  14.158  0.2577 -0.0106 -0.1520
15077W        W31924   8.617   7.620  13.964  0.0924  0.0033  0.0862
15078W        W31925   7.005  15.865  12.728 -0.0456 -0.0611  0.1721
15079W        W31926   6.727   0.301   3.288 -0.1547  0.0914  0.2154
15080W        W31927  15.485   3.948  12.882  0.3647  0.0373  0.3002
15081W        W31928  13.535  18.256  15.294 -0.0383 -0.3699  0.1444
15082W        W31929   1.753   6.471  12.185 -0.0952 -0.2094 -0.0269
15083W        W31930   6.462   8.154  14.997 -0.1880  0.0802  0.0218
15084W        W31931  13.086  18.240   5.330 -0.0848  0.0965  0.3033
15085W        W31932   7.337   5.761   4.384 -0.0567  0.1395  0.0581
15086W        W31933   6.909   8.229  12.019 -0.0133  0.2133  0.0676
15087W        W31934  16.176   6.954   4.685 -0.2861 -0.1943  0.1187
15088W        W31935  10.462   4.380   3.270 -0.0814  0.0404 -0.0841
15089W        W31936  13.109  14.190  11.794 -0.3946  0.3008 -0.3086
15090W        W31937   9.207  14.331   0.883  0.0436 -0.1393 -0.0535
15091W        W31938  10.935   1.125  12.477  0.2210 -0.0166 -0.2273
15092W        W31939   6.838   1.426   6.141 -0.1394  0.0178  0.0552
15093W        W31940   5.584  17.692   0.319 -0.0861  0.2317 -0.3566
15094W        W31941  15.991   1.366   2.191  0.1064 -0.0955  0.0364
15095W        W31942   7.458   0.182   2.279  0.0275 -0.0656  0.3030
15096W        W31943   6.275  15.956   5.281  0.1039 -0.0720 -0.0644
15097W        W31944   0.094   9.655   2.340 -0.3378  0.2242  0.2761
15098W        W31945  12.843  13.999  14.727  0.1425 -0.2133  0.0225
15099W        W31946  12.406   0.914   1.023  0.0755  0.1649  0.0097
15100W        W31947  17.135   6.951   2.551  0.0506 -0.1862  0.0414
15101W        W31948   3.614  12.052  12.296 -0.0428  0.2753 -0.0131
15102W        W31949   9.644   2.303   2.514 -0.1837  0.1638 -0.1321
15103W        W31950   7.159   3.527  14.440  0.1018 -0.2655 -0.0828
15104W        W31951  12.503   4.642   2.967  0.0087  0.1016  0.1371
15105W        W31952  16.055  10.391   3.631 -0.2178  0.0926  0.2616
15106W        W31953  16.288  10.611  15.918  0.0376 -0.2168  0.0048
15107W        W31954  11.009   7.400  16.183 -0.0379  0.0701  0.0696
15108W        W31955   5.396  10.909  15.068 -0.1954  0.1353  0.1403
15109W        W31956  15.118  14.335  14.907  0.1041 -0.0067  0.1128
15110W        W31957  11.105  14.667   4.253 -0.0878 -0.1748  0.1800
15111W        W31958   7.688  12.168   2.148 -0.0761  0.1359  0.2998
15112W        W31959   7.887   4.318   6.175 -0.1062 -0.2918 -0.0586
15113W        W31960   5.145   6.473   3.475 -0.1131  0.1944  0.0633
15114W        W31961   2.203   8.097   5.515 -0.2554 -0.1175 -0.1169
15115W        W31962  13.763   3.976  14.372 -0.1916 -0.2295 -0.0041
15116W        W31963   7.122   6.459   1.416  0.1015 -0.0277 -0.0229
15117W        W31964   5.676   2.366  11.168  0.0593 -0.0125  0.0216
15118W        W31965  15.352   8.768  11.165 -0.1457  0.1697  0.1271
15119W        W31966  12.037  14.170  15.257  0.1511 -0.0947 -0.0600
15120W        W31967  15.575  10.980  11.908  0.0551  0.0134  0.0545
15121W        W31968   7.983  16.881  14.007  0.0231  0.3367 -0.1174
15122W        W31969   2.495   4.338  14.604 -0.5518 -0.0492  0.1389
15123W        W31970   0.353  12.911   2.281  0.0369  0.0577  0.0970
15124W        W31971  14.231   9.666   2.711  0.0369  0.1974  0.0268
15125W        W31972  14.064  10.644   3.870  0.0325 -0.4508  0.1371
15126W        W31973  16.030  12.221   3.975  0.0700 -0.2283  0.0984
15127W        W31974  12.672  15.177   2.497  0.0028  0.1334  0.0868
15128W        W31975  14.879  13.806  13.246  0.2066  0.0585 -0.2515
15129W        W31976  13.785   7.076   0.829 -0.1211 -0.0797 -0.3344
15130W        W31977   3.062   8.333  14.660  0.0008 -0.1472  0.1843
15131W        W31978   7.117   8.016  15.287 -0.0763  0.1437  0.2059
15132W        W31979   2.709  12.879  15.205  0.0641  0.2051 -0.2599
15133W        W31980  10.844   3.799  14.420 -0.1486  0.2527 -0.0766
15134W        W31981   1.974  14.781   4.529  0.0425  0.0247  0.3001
15135W        W31982  12.014  11.195   3.318  0.1611  0.1777  0.0117
15136W        W31983   5.941  16.709  10.946  0.0068  0.4918 -0.0289
15137W        W31984   7.715  10.701   5.676 -0.2238  0.1646 -0.2450
15138W        W31985  12.212   8.390   3.563  0.2308 -0.0446 -0.1054
15139W        W31986   5.951  17.190   2.888 -0.0721  0.1947 -0.2314
15140W        W31987   9.207  15.532  11.839  0.1045 -0.1978 -0.2305
15141W        W31988   2.444  12.436   2.735 -0.3939  0.0312 -0.0290
15142W        W31989   8.769  10.786  14.916  0.1433  0.1283 -0.0079
15143W        W31990  10.462   6.268  15.394 -0.1579 -0.2510  0.1265
15144W        W31991  12.080   7.372   0.047  0.1204  0.3813  0.0480
15145W        W31992   9.899   3.466  13.019 -0.1085  0.3513  0.0176
15146W        W31993   6.201  10.404  14.950 -0.0120 -0.0019  0.3511
15147W        W31994   7.902  15.855   5.593  0.0034 -0.1748  0.1870
15148W        W31995  13.966  14.882   1.271 -0.0669 -0.2296  0.4088
15149W        W31996  10.079   8.517   1.042  0.0536 -0.2264  0.0938
15150W        W31997  16.551  14.526  15.986  0.1476  0.2235 -0.1858
15151W        W31998   8.012   8.296   3.095 -0.0648 -0.2492 -0.2125
15152W        W31999  13.913   1.588   4.132  0.0878  0.0640  0.2431
15153W        W32000  10.106  17.594  14.311 -0.0429 -0.1819  0.0038
15154W        W32001   5.805   0.669  10.327  0.0250  0.4073  0.0626
15155W        W32002   3.925  13.708  12.290  0.1123  0.2961  0.2030
15156W        W32003  14.841  15.449   6.082  0.0166 -0.1055 -0.1318
15157W        W32004   2.027  17.760  14.428  0.0959 -0.3049  0.0586
15158W        W32005   6.637  14.480  12.840  0.2402 -0.0788 -0.2022
15159W        W32006   7.672   5.022   4.378 -0.1260 -0.1655  0.1776
15160W        W32007   7.858   7.257  13.602  0.0677 -0.0363 -0.0442
15161W        W32008  14.022   6.831  12.028 -0.0843 -0.0652 -0.1391
15162W        W32009   4.104  15.313   5.427 -0.0874 -0.0764  0.0859
15163W        W32010   7.046   9.186   1.177  0.4224 -0.0523 -0.1882
15164W        W32011   5.713  12.878  13.169 -0.2254  0.1471 -0.0752
15165W        W32012  13.050   8.329  15.875 -0.1960  0.2831 -0.0773
15166W        W32013  12.380  15.932   5.503 -0.0750  0.1152  0.1520
15167W        W32014   2.679   4.822  14.548 -0.2418  0.0053  0.2102
15168W        W32015  16.078   5.291  13.783 -0.1174 -0.0083  0.1543
15169W        W32016   6.684   2.700  14.736  0.0247 -0.2997 -0.2096
15170W        W32017  14.632   5.226   3.394  0.2123  0.1561 -0.2305
15171W        W32018  13.130   6.602  13.069 -0.1240  0.1735 -0.1125
15172W        W32019   6.274  10.368  15.531 -0.0171 -0.1823  0.1708
15173W        W32020  17.491   8.077  13.122 -0.3244 -0.1547  0.1072
15174W        W32021  13.281  14.501  12.265 -0.1499  0.1920  0.0210
15175W        W32022   9.073  13.760   0.767  0.1296 -0.0250  0.0361
15176W        W32023   9.302   0.675  13.553 -0.2044 -0.2898  0.1083
15177W        W32024   7.323  11.238  13.844  0.0417  0.0546 -0.0396
15178W        W32025  15.459  10.292   0.836 -0.1361  0.3411 -0.1547
15179W        W32026  16.215  15.523   5.412 -0.0702  0.3569  0.0016
15180W        W32027   0.783   7.343   0.810 -0.1269 -0.1517 -0.2075
15181W        W32028  15.561  16.958  11.848 -0.1355 -0.0098 -0.0105
15182W        W32029  16.968   2.521   2.542 -0.2767 -0.0100  0.1102
15183W        W32030  14.630  17.994   4.173  0.0292  0.4251  0.0907
15184W        W32031   0.182   6.194   2.694 -0.3785 -0.0662 -0.1070
15185W        W32032   7.689  15.877  12.232  0.0087 -0.3715 -0.0745
15186W        W32033   0.443   7.731   5.747  0.1025  0.0928  0.0662
15187W        W32034   8.603   3.121  13.349  0.0760 -0.2627 -0.2229
15188W        W32035  13.779   8.497  14.794 -0.1135 -0.2783  0.0675
15189W        W32036   7.474  16.768  12.276 -0.0977  0.1362  0.0799
15190W        W32037   4.179  11.603   0.334  0.0973  0.0563 -0.3741
15191W        W32038  10.183   7.928  15.947  0.3555  0.0213  0.1012
15192W        W32039   9.217   1.337   3.723  0.0306  0.0665 -0.0350
15193W        W32040  16.503   8.050  13.621 -0.2552 -0.2243 -0.0262
15194W        W32041   6.265  13.004  12.956 -0.2129  0.0966 -0.3518
15195W        W32042   3.911  12.604   0.481 -0.1082  0.3395 -0.1372
15196W        W32043  16.301   5.683  14.958 -0.1180 -0.1110 -0.1824
15197W        W32044  10.586   6.250   2.713 -0.4187  0.1311  0.0036
15198W        W32045  18.300   3.573  12.059 -0.0573  0.2062  0.1691
15199W        W32046   7.729  13.933  11.571  0.0898 -0.0996 -0.0712
15200W        W32047   5.803   5.812   6.025 -0.1852  0.1755 -0.2386
15201W        W32048   8.916   4.792   4.622  0.0077  0.1298  0.0212
15202W        W32049  16.594   8.599   3.601 -0.0364 -0.0354 -0.1859
15203W        W32050  11.276   3.714   2.073 -0.0005 -0.0063 -0.1753
15204W        W32051   8.939   2.664   4.811 -0.2383  0.0974 -0.1792
15205W        W32052  14.777  12.355   5.242 -0.0343 -0.1859  0.3933
15206W        W32053   0.296  12.213   0.060 -0.1393 -0.0552 -0.2186
15207W        W32054   4.045  10.644  11.274 -0.1449 -0.0313  0.2396
15208W        W32055   5.278  13.116   3.936  0.1779  0.0343  0.0165
15209W        W32056  15.254   0.942  11.960 -0.2609  0.0101 -0.0025
15210W        W32057  14.266   3.145  16.051 -0.1444  0.0603 -0.0664
15211W        W32058   6.487  13.318   1.880  0.2486 -0.0290  0.4244
15212W        W32059  18.251  14.358   5.396  0.2781  0.0417 -0.0240
15213W        W32060   8.347   3.247  12.232 -0.2971  0.0043  0.2409
15214W        W32061   9.417   7.333  11.784 -0.1691 -0.1959 -0.1091
15215W        W32062   1.806   9.416   2.812 -0.1378  0.1664  0.0890
15216W        W32063  10.687   8.409  14.439 -0.1836 -0.0372 -0.0361
15217W        W32064   8.895  16.702  11.318  0.0324 -0.2728 -0.0091
15218W        W32065  11.156   9.053  14.317  0.1144  0.2020  0.0073
15219W        W32066   3.080   5.706   5.701 -0.0227 -0.1194 -0.1069
15220W        W32067  13.468   3.027   1.124  0.1007 -0.0209  0.0406
15221W        W32068  15.174  14.500   1.094 -0.2203 -0.0510 -0.0930
15222W        W32069   3.447  17.300   1.336 -0.2985 -0.2481 -0.0022
15223W        W32070   7.384  16.580   0.825  0.0657  0.2979  0.0895
15224W        W32071  11.099   4.658  14.984  0.2731  0.0220 -0.4473
15225W        W32072   2.181  12.576   3.727 -0.1754 -0.2596  0.1118
15226W        W32073   3.415   5.439   4.332  0.3345  0.1559  0.0628
15227W        W32074  10.038  10.683   3.382 -0.0867 -0.2746  0.1415
15228W        W32075   0.935   5.148   0.004 -0.0225  0.0652 -0.0761
15229W        W32076   3.131   5.853   4.359  0.2622  0.1935  0.0327
15230W        W32077   8.759  10.182  15.876 -0.0520 -0.0566  0.0637
15231W        W32078  17.742  10.956  16.172 -0.2013  0.2207  0.1322
15232W        W32079  15.189  14.213   0.544 -0.0724  0.2108  0.2311
15233W        W32080  17.625   8.305   4.440  0.0650  0.1775  0.2143
15234W        W32081  14.223   8.300   4.883  0.2639 -0.1954  0.1925
15235W        W32082   1.969   4.069  15.059 -0.2469 -0.2539 -0.2843
15236W        W32083  12.759  17.201  12.067 -0.1787 -0.1177  0.0109
15237W        W32084  15.819   6.107   1.585 -0.1111 -0.0237  0.1136
15238W        W32085  17.394  15.801   4.570  0.2215 -0.0843 -0.3067
15239W        W32086   8.460   3.255  13.985 -0.3381 -0.1587 -0.0440
15240W        W32087  15.043   2.772  13.380 -0.2519 -0.0954  0.2361
15241W        W32088   0.670   1.074   3.186  0.1763 -0.0502  0.0581
15242W        W32089   2.034   6.586   3.103  0.1267  0.1007 -0.1001
15243W        W32090   0.261   8.546  15.481 -0.1245  0.1590 -0.1661
15244W        W32091  15.922  14.680  11.750  0.0639  0.1697 -0.1855
15245W        W32092   1.118  17.124   2.272  0.2940 -0.1197  0.1254
15246W        W32093   8.892  16.454   3.752  0.0971  0.2051 -0.1518
15247W        W32094  15.870  13.415   3.280 -0.3033 -0.0150 -0.1015
15248W        W32095  12.804  17.592   3.617  0.0975  0.2639 -0.1569
15249W        W32096  17.853   3.502   2.775  0.0010  0.1247 -0.2127
15250W        W32097  17.573   2.016  12.166 -0.1514  0.1620 -0.0873
15251W        W32098  12.998  16.697   1.726 -0.0835  0.0865 -0.0587
15252W        W32099  13.165   2.207   1.043 -0.0853 -0.0659  0.1775
15253W        W32100  12.845  14.999   1.266 -0.2140  0.2929 -0.0295
15254W        W32101   7.131  15.869   3.545 -0.0792  0.1208  0.1187
15255W        W32102  16.673   4.935  11.620  0.0887  0.2813 -0.0347
15256W        W32103   1.073  15.393  12.365 -0.0816 -0.1840  0.1410
15257W        W32104  17.305   3.554  16.123 -0.0255 -0.0157 -0.1428
15258W        W32105  18.156   8.084   4.666 -0.2898  0.0494 -0.1721
15259W        W32106  16.972   7.248  13.229 -0.0178 -0.1891 -0.0202
15260W        W32107   7.800   1.450  14.408 -0.0413  0.0493 -0.0960
15261W        W32108   0.400   5.237   1.766  0.1044  0.1044 -0.0101
15262W        W32109   5.092  12.308  14.174  0.1481 -0.1269  0.2205
15263W        W32110  13.157  12.440   0.151 -0.0426  0.2707  0.4352
15264W        W32111   7.415   8.228  11.996 -0.1002  0.1270  0.1888
15265W        W32112   3.005  17.281   4.815 -0.0272 -0.2656 -0.2823
15266W        W32113   4.691  11.789  11.087  0.0042 -0.0612 -0.1901
15267W        W32114  16.108   6.665   2.455 -0.0272 -0.0043  0.0571
15268W        W32115   1.284   2.673   1.762  0.1016  0.1486  0.3638
15269W        W32116  16.667   7.816  15.501 -0.0628 -0.0378  0.0828
15270W        W32117  14.150   4.248  14.028 -0.3403  0.1697 -0.0509
15271W        W32118   1.336   7.763   0.495 -0.1219  0.0819  0.3949
15272W        W32119   0.695   3.386  15.598  0.1554  0.1308  0.0564
15273W        W32120  14.088   7.200   2.434  0.0269  0.3074 -0.0499
15274W        W32121   2.416  13.435   4.853  0.2103 -0.2332  0.1473
15275W        W32122  16.408   1.187   1.798 -0.1830 -0.1482 -0.0657
15276W        W32123   9.227   1.216  14.334 -0.1523  0.3617  0.1099
15277W        W32124  13.771   4.374   0.640 -0.0456  0.1314 -0.1500
15278W        W32125   6.960   6.625   0.199 -0.3067 -0.0396  0.1420
15279W        W32126  15.136  10.936  15.304  0.0467 -0.1355 -0.0928
15280W        W32127   5.714   5.320   4.808 -0.3820 -0.3525  0.0570
15281W        W32128   2.281   9.795   4.330  0.0380  0.2366  0.0207
15282W        W32129   7.060   1.426   4.367 -0.0661 -0.1674  0.2598
15283W        W32130  17.004   0.191  14.304 -0.0742  0.3804 -0.1057
15284W        W32131   7.955  17.319   5.316  0.0984  0.1267 -0.3247
15285W        W32132   4.872  10.735  12.604 -0.1092  0.0431 -0.1927
15286W        W32133   4.991  16.759   0.441  0.0154 -0.1921  0.0451
15287W        W32134  11.525   7.860  14.186 -0.0568  0.0559  0.1108
15288W        W32135   7.938  11.632   5.765  0.1864  0.0172 -0.2469
15289W        W32136   3.950   0.995   4.821  0.2306  0.0093 -0.0673
15290W        W32137  15.298  13.775  13.544  0.1342  0.1418  0.0000
15291W        W32138   4.603   6.640   2.788  0.1676 -0.1622 -0.2108
15292W        W32139   9.305   0.554   1.808  0.1292  0.0034  0.3252
15293W        W32140   6.766  15.891   5.360 -0.2905 -0.0234 -0.2304
15294W        W32141   8.707   8.354   2.830 -0.0296  0.1536  0.0702
15295W        W32142  13.477   5.479   1.770 -0.0645  0.1826  0.2376
15296W        W32143   2.095   9.134  11.965 -0.0135 -0.0123  0.0342
15297W        W32144  17.192  17.955   5.347  0.1352 -0.2527  0.0694
15298W        W32145   5.913   9.616  11.708 -0.1793 -0.1738  0.0621
15299W        W32146  15.472   8.584  12.183  0.1578  0.1314 -0.2423
15300W        W32147  16.541  10.393   3.374  0.2430 -0.0411  0.4100
15301W        W32148  16.559   5.948   0.238 -0.3436 -0.0115  0.0768
15302W        W32149   2.263   9.026  14.575  0.2664  0.0339  0.2176
15303W        W32150  12.451   1.966  13.824  0.0405  0.0743  0.1622
15304W        W32151  14.494   3.142   5.052  0.0479 -0.1227  0.0394
15305W        W32152   0.638  16.255   3.289 -0.3620  0.0334  0.1846
15306W        W32153   7.418   2.933   2.132  0.0519 -0.0480 -0.0359
15307W        W32154   3.885   7.624   1.470  0.1273  0.0750 -0.1647
15308W        W32155   0.977   5.252   3.840  0.2836 -0.2059 -0.3097
15309W        W32156   2.528  11.284  14.240  0.1818  0.3649 -0.4262
15310W        W32157  10.246   3.560   0.099  0.1402 -0.0787  0.2253
15311W        W32158   7.860  15.540  11.488 -0.3057 -0.0638 -0.0763
15312W        W32159   6.771   8.616  12.270  0.2695 -0.1416  0.2225
15313W        W32160  10.435   1.646  14.259 -0.0322 -0.0873  0.1343
15314W        W32161  11.344   0.139   4.449 -0.1089  0.1592  0.0664
15315W        W32162  12.329   6.577   3.109 -0.2380  0.0467  0.2109
15316W        W32163   9.051   8.064  12.589 -0.0048 -0.1193 -0.1250
15317W        W32164  17.792   5.892  15.321  0.1748  0.2860  0.0708
15318W        W32165   7.416  15.534  15.864 -0.0872  0.4022 -0.3875
15319W        W32166  10.843   5.527  11.355 -0.0567  0.1027  0.2736
15320W        W32167  12.481   7.650   2.816 -0.3188  0.2365  0.1954
15321W        W32168  12.025  12.962   1.846 -0.4457 -0.1093 -0.1204
15322W        W32169  14.555  14.207  13.468  0.1106 -0.1615 -0.0235
15323W        W32170  10.870   2.913  13.313 -0.0034  0.1750  0.1125
15324W        W32171  13.406  10.442  13.901 -0.0263  0.2851  0.0042
15325W        W32172   8.508   2.093  11.505 -0.0794  0.0129  0.1551
15326W        W32173  18.103  15.460  12.034 -0.2246 -0.0154 -0.0324
15327W        W32174  11.854  12.247  15.646 -0.1758  0.1001  0.1097
15328W        W32175  12.958  13.193  11.328  0.2997  0.0006 -0.4202
15329W        W32176  17.400  16.337   3.674 -0.2298  0.1953  0.0574
15330W        W32177   7.773   6.768  14.998  0.0902 -0.1491  0.3582
15331W        W32178  11.128   0.332  16.153 -0.3166 -0.2344  0.1877
15332W        W32179  12.553   2.105   1.662 -0.0130  0.3754 -0.0917
15333W        W32180  15.598  16.256   2.743  0.2044  0.0911 -0.2574
15334W        W32181  13.139  12.029  12.258 -0.1702  0.1941 -0.0558
15335W        W32182   2.014  12.678   6.437  0.0644 -0.1984 -0.2488
15336W        W32183   3.520   7.279  13.687 -0.0531 -0.0876  0.1318
15337W        W32184   3.758  13.275   1.789  0.0614 -0.2228 -0.0762
15338W        W32185   0.859  12.924   3.669  0.2243 -0.0089 -0.2021
15339W        W32186  10.768   2.944   5.722 -0.3470 -0.0287  0.2062
15340W        W32187   8.630   9.298   2.237  0.1926 -0.4593  0.2415
15341W        W32188   1.704   7.018  11.553  0.2196  0.1118  0.1234
15342W        W32189   6.528   2.444   4.180 -0.4181 -0.1263 -0.0517
15343W        W32190   3.477  17.670  14.629  0.1431  0.1247 -0.2016
15344W        W32191  17.118   4.809  11.938  0.1493  0.1259  0.0389
15345W        W32192  13.637  12.456  13.600  0.3543  0.1260 -0.3875
15346W        W32193  13.045  14.799   5.079 -0.0757 -0.0407  0.1360
15347W        W32194   3.532   6.465  11.639 -0.0801  0.3939  0.0121
15348W        W32195  15.353  13.115   1.983 -0.0592 -0.1414 -0.2292
15349W        W32196   6.181   3.154  14.432  0.3625 -0.1176  0.1058
15350W        W32197   1.334   4.607   4.446  0.2845  0.1019  0.1113
15351W        W32198   9.856  16.897  10.732  0.0879  0.4172  0.1012
15352W        W32199   8.058   7.886   0.681 -0.0511  0.0557 -0.0254
15353W        W32200  16.373  13.604   4.236  0.1838 -0.2254 -0.1956
15354W        W32201  17.577   7.263   0.340  0.0533 -0.1102  0.3560
15355W        W32202   4.519  10.420  11.788 -0.0387 -0.1212  0.0820
15356W        W32203  13.220   1.754  15.746 -0.3694  0.0553  0.0593
15357W        W32204   0.245   6.834   3.663  0.2029  0.2919  0.0808
15358W        W32205  11.762   9.419  12.342 -0.3702  0.3058  0.0396
15359W        W32206   9.437   6.397   0.775  0.0786 -0.0003 -0.1354
15360W        W32207  17.348   9.910  12.864 -0.2669 -0.1232 -0.2981
15361W        W32208  16.214   7.391  12.074  0.0589 -0.1208 -0.0851
15362W        W32209  10.593   5.962  11.427 -0.1033 -0.1783 -0.0141
15363W        W32210  16.474   7.516  10.717  0.2899 -0.1263 -0.1463
15364W        W32211  10.104   9.468  13.449  0.1134 -0.2811 -0.2140
15365W        W32212  17.149  13.159  14.891  0.1040  0.2926 -0.0241
15366W        W32213   0.037  17.861  16.163  0.2516  0.0707  0.1487
15367W        W32214  11.818   3.209  11.092  0.0177  0.0997  0.0725
15368W        W32215   4.489  18.174   0.607  0.0953  0.1338 -0.1829
15369W        W32216   2.382  10.639  13.168 -0.2894  0.4049 -0.3687
15370W        W32217  16.204   7.943   4.112 -0.0114 -0.3125  0.0332
15371W        W32218  12.430   9.364  15.783 -0.0390  0.0903  0.1138
15372W        W32219   3.829  17.501   0.926  0.0306  0.1818 -0.0628
15373W        W32220   7.890  16.023   3.213  0.2679  0.0352  0.1537
15374W        W32221  10.368  12.718  14.475  0.6071  0.0057 -0.1451
15375W        W32222  12.075   3.543  15.871 -0.3773  0.1131  0.0119
15376W        W32223   4.468  11.791  15.694 -0.0838 -0.0116  0.2707
15377W        W32224   4.573   9.107   3.074  0.2448  0.1929  0.0463
15378W        W32225  16.930   6.498  12.745  0.1446 -0.1286  0.1168
15379W        W32226  14.850   6.558  15.431 -0.0460 -0.1349 -0.1656
15380W        W32227   6.556   3.981   0.310  0.1503  0.0163  0.0429
15381W        W32228   8.454   5.558   3.182 -0.0698  0.1834 -0.0960
15382W        W32229   6.215   1.233   4.912 -0.1537 -0.1322 -0.0645
15383W        W32230  12.190  10.756  12.724 -0.1654 -0.1474  0.0394
15384W        W32231  14.065   8.172   1.503 -0.0630 -0.1013 -0.3366
15385W        W32232   9.254   8.806   4.360  0.2852 -0.0956  0.3357
15386W        W32233  15.736  17.227  14.888 -0.0347  0.1817  0.0852
15387W        W32234   6.043   4.804   1.766 -0.0507 -0.0460 -0.0991
15388W        W32235   1.599  11.664   3.542 -0.0589  0.0190  0.1035
15389W        W32236   6.879   8.270  16.125 -0.1738 -0.0780 -0.1037
15390W        W32237  16.133  14.674  14.033 -0.1317 -0.0991 -0.0694
15391W        W32238   9.550  14.949   0.173 -0.0598 -0.1703 -0.0640
15392W        W32239   7.928   9.506   4.118  0.0035 -0.2116  0.1550
15393W        W32240  16.342  16.133   1.041 -0.1091 -0.5507 -0.1953
15394W        W32241   6.661  10.598  15.828  0.1398  0.0704 -0.0579
15395W        W32242   3.916   4.550   1.831 -0.0194  0.2049  0.0859
15396W        W32243   1.876   3.927  15.784  0.0053  0.0706  0.5421
15397W        W32244   5.340   1.948   2.853  0.0962 -0.0654 -0.2358
15398W        W32245  15.137   8.800   3.021  0.0684  0.0690  0.2464
15399W        W32246  12.162   2.665   2.422 -0.2178  0.1108  0.0865
15400W        W32247   3.888  16.948  13.818 -0.2621 -0.0323  0.4408
15401W        W32248  10.401   6.417   0.360  0.1328 -0.2906  0.0303
15402W        W32249  11.410   0.478  11.840  0.0455 -0.1027  0.1517
15403W        W32250   8.492  13.919   0.025 -0.0747 -0.0162 -0.0042
15404W        W32251   2.323  17.036   3.189  0.0596  0.4488 -0.4022
15405W        W32252  16.723  13.230   0.227  0.1389 -0.1839 -0.0620
15406W        W32253  11.778  10.713   4.351 -0.2538  0.0168  0.0732
15407W        W32254   8.615   6.372  15.968  0.4246  0.0832 -0.0730
15408W        W32255   4.218  16.620  15.548  0.0325  0.1364  0.0443
15409W        W32256  14.467   6.838  15.330 -0.1783 -0.0982 -0.0681
15410W        W32257  17.808  13.429  12.152 -0.2398 -0.1246 -0.1311
15411W        W32258   5.764   2.294  13.277 -0.0055  0.1000 -0.0296
15412W        W32259   3.878  10.435  11.731  0.3116  0.2505 -0.1542
15413W        W32260   6.621  13.520  13.918 -0.1240  0.0350 -0.1001
15414W        W32261   3.087  10.047   4.383  0.0249 -0.3155 -0.0045
15415W        W32262   0.588  12.728   4.532  0.1770 -0.3778 -0.2600
15416W        W32263  10.926   1.624  14.070 -0.1792  0.0027 -0.0192
15417W        W32264   1.733  17.579  13.582 -0.0621 -0.0839  0.0654
15418W        W32265  18.203  13.020   2.220 -0.3702 -0.1707 -0.0440
15419W        W32266  13.541  14.133   3.715 -0.5148  0.1024  0.0820
15420W        W32267   4.662   4.986   0.430 -0.0602 -0.1239  0.1147
15421W        W32268  16.948   2.363  13.804  0.3646 -0.2280  0.1484
15422W        W32269   6.351   0.595   3.315 -0.0658 -0.0446  0.3029
15423W        W32270   7.171   6.327   4.478 -0.0205  0.0254 -0.1365
15424W        W32271   2.570  10.201  14.987  0.0621  0.0480 -0.0177
15425W        W32272   8.481   9.803  11.643  0.0659 -0.2515 -0.0172
15426W        W32273   9.126   8.932  14.507 -0.1527 -0.2855 -0.0380
15427W        W32274   9.315   6.711  12.283  0.0674 -0.1685  0.0164
15428W        W32275  16.041   8.487  15.808  0.1107  0.0751  0.0895
15429W        W32276  10.213  18.277   3.874 -0.1024 -0.1400 -0.0466
15430W        W32277  17.712   1.881   2.891  0.0592 -0.1235  0.2726
15431W        W32278  15.740  14.220   0.415  0.0772 -0.2280  0.1658
15432W        W32279   1.651   4.072   4.761  0.2159 -0.1405 -0.1760
15433W        W32280  10.256  13.570   0.640  0.1811 -0.1591 -0.1816
15434W        W32281  14.752   7.273  15.225  0.3775 -0.0201  0.0595
15435W        W32282  17.116   9.876   1.833 -0.5388  0.0993 -0.1773
15436W        W32283   2.908  17.073  10.094  0.0449  0.1690 -0.0536
15437W        W32284  10.650   8.109  16.148  0.3040  0.1085  0.1899
15438W        W32285   0.079   2.084  15.935 -0.0077 -0.0946  0.1377
15439W        W32286   1.017   7.734   1.777  0.2687  0.0227  0.0057
15440W        W32287  13.446   1.799  14.891 -0.0888 -0.1350  0.1153
15441W        W32288  16.529  15.721  10.249  0.0709  0.3212 -0.0791
15442W        W32289  10.584   8.310   2.359  0.1557  0.1023  0.0670
15443W        W32290  16.269   2.001  15.720 -0.2363 -0.1831 -0.1416
15444W        W32291   9.871   0.024  14.029  0.0615  0.0934 -0.3192
15445W        W32292   1.255   1.407  14.118 -0.2547 -0.1773 -0.3205
15446W        W32293  11.992  11.012   2.005  0.2909 -0.0254 -0.0457
15447W        W32294  13.810  12.003   2.587  0.1898 -0.0222 -0.0023
15448W        W32295  10.635  17.060  12.346  0.2999 -0.0404 -0.2561
15449W        W32296   0.328   9.916  15.262 -0.1800 -0.0599 -0.1466
15450W        W32297  10.863  10.039  14.270 -0.0153 -0.2045  0.0069
15451W        W32298   8.803  13.063   0.297  0.1198 -0.0937 -0.0290
15452W        W32299  15.395   8.003   3.488  0.1567  0.0487 -0.0382
15453W        W32300   4.002  14.403   2.500  0.1613 -0.0038  0.0646
15454W        W32301  15.842   2.441   2.886  0.3598 -0.0393 -0.1138
15455W        W32302  15.331   4.496   1.848 -0.2934 -0.1214 -0.1180
15456W        W32303   1.543  13.886  13.690  0.1591  0.2639 -0.1976
15457W        W32304   2.393  12.406   4.615  0.1989 -0.0829  0.0599
15458W        W32305  18.262   2.349   1.738  0.0266  0.0532 -0.2762
15459W        W32306  16.308  11.670   4.746 -0.1911  0.0310  0.1902
15460W        W32307   0.438  12.992   3.986 -0.0763  0.0155  0.0680
15461W        W32308  16.653  10.421  13.377 -0.4498 -0.2867  0.0174
15462W        W32309  11.790   9.634   0.928 -0.0855  0.3435  0.0967
15463W        W32310   0.876   6.740   4.871 -0.2590  0.0913  0.0261
15464W        W32311  13.348   6.304   4.818 -0.0074 -0.1344  0.0714
15465W        W32312  15.280   5.258   2.384  0.1005  0.0218  0.0782
15466W        W32313  18.265   5.371   2.124  0.0479  0.1461 -0.2123
15467W        W32314  14.477   5.659  14.813 -0.0417  0.0200  0.1100
15468W        W32315   1.274   4.304   2.917  0.0743 -0.0438  0.0697
15469W        W32316   0.180   9.391  12.107  0.2739 -0.0313  0.0497
15470W        W32317  12.051  17.400   3.890  0.2986 -0.2461  0.0756
15471W        W32318  12.993   9.163  14.934  0.0521  0.0861  0.0319
15472W        W32319   9.350   1.229   4.488  0.0924 -0.1625 -0.0397
15473W        W32320  11.700   9.126  14.983 -0.0055 -0.2410  0.3331
15474W        W32321   6.746   4.957  13.247 -0.0922 -0.0168 -0.2106
15475W        W32322   9.760   9.747  14.951 -0.3080  0.0522 -0.2682
15476W        W32323  18.035  11.853   6.061  0.0879  0.1141 -0.1581
15477W        W32324   3.573   8.867   3.344  0.0605  0.2646 -0.1834
15478W        W32325   6.314   0.491   5.999 -0.1615 -0.0846  0.0465
15479W        W32326   6.270  11.331  12.680 -0.1427  0.0049 -0.1578
15480W        W32327   5.301  16.262  14.462  0.2632 -0.0136  0.6233
15481W        W32328   8.660   3.024   2.683  0.1854 -0.2032 -0.2471
15482W        W32329   4.481  16.835   5.438  0.0945  0.1284 -0.0221
15483W        W32330   1.676  17.711   4.941 -0.0039 -0.0015  0.2072
15484W        W32331  11.145   2.273  12.371  0.2589 -0.3726  0.0156
15485W        W32332  15.911  12.002  12.813  0.1270  0.0365 -0.1313
15486W        W32333   7.346   9.076  12.864  0.1162 -0.1553 -0.1244
15487W        W32334  16.529  16.794  14.339  0.2631  0.2037  0.2893
15488W        W32335  11.280  10.687   3.113  0.1459  0.0397  0.2024
15489W        W32336  11.682   4.034   2.013 -0.1128 -0.0234 -0.3921
15490W        W32337  17.633  11.787  12.371 -0.2502 -0.1540 -0.0297
15491W        W32338   4.213   9.579   5.808 -0.1943 -0.1842 -0.0435
15492W        W32339   9.988   7.139  11.677  0.2627  0.1267 -0.0559
15493W        W32340  10.437  17.052   3.245  0.1282 -0.2019  0.2564
15494W        W32341   5.088  16.878   3.655  0.2214 -0.4156 -0.0938
15495W        W32342   7.090  14.964   3.720 -0.1528 -0.0198 -0.1625
15496W        W32343   9.823   4.999   3.555 -0.0441 -0.0718 -0.0599
15497W        W32344   6.806   6.822   4.838  0.3077  0.2677  0.3215
15498W        W32345   0.251  13.224   1.905 -0.0305  0.2229 -0.0822
15499W        W32346  17.669   6.567  11.468  0.0504  0.1727  0.0064
15500W        W32347   3.936  12.234  14.981 -0.0926 -0.1667 -0.0175
15501W        W32348   2.292   9.490   2.620  0.1793  0.1876  0.2366
15502W        W32349  13.721   3.055  14.666 -0.1341  0.1268 -0.0801
15503W        W32350  17.099  15.347   0.583 -0.2428 -0.1162  0.1521
15504W        W32351  18.329   9.206   1.539  0.1516  0.0947  0.1934
15505W        W32352  13.985   3.901   3.593  0.0522  0.0493 -0.0922
15506W        W32353   7.378   2.629   4.991  0.2220 -0.4087 -0.0694
15507W        W32354  16.950   8.410  11.689 -0.0324  0.1169 -0.0368
15508W        W32355   7.184   2.538  12.868 -0.0640 -0.1275 -0.2448
15509W        W32356  17.020   4.489   2.758  0.1112 -0.0806 -0.1660
15510W        W32357   8.331   8.694   0.757  0.1645  0.0444  0.0346
15511W        W32358   0.372   1.067  12.960  0.0098  0.0974 -0.1744
15512W        W32359  10.712   9.679   0.228  0.0178 -0.1016 -0.1800
15513W        W32360  14.438   7.435  16.032  0.1851 -0.2349 -0.2790
15514W        W32361   8.514  14.279  11.543  0.0522 -0.1675 -0.1366
15515W        W32362  11.851  17.242  13.513 -0.0564  0.0516  0.0841
15516W        W32363  12.431  14.720  11.625  0.1117 -0.5045  0.1050
15517W        W32364   2.870   1.162  14.940 -0.0656 -0.2039  0.0738
15518W        W32365  14.310  13.011   4.257  0.0710  0.2612 -0.3824
15519W        W32366   5.486   4.521  11.605  0.1585  0.0204 -0.0315
15520W        W32367   6.066  15.465  15.638  0.1425 -0.0896  0.2865
15521W        W32368  11.625  13.331  14.789 -0.1235 -0.3609 -0.0754
15522W        W32369   8.800   3.402  11.588  0.0834  0.0758 -0.0206
15523W        W32370  16.247  13.764   3.350  0.3704 -0.0638 -0.1518
15524W        W32371   1.149  12.225   4.257  0.5014  0.1111  0.2467
15525W        W32372  15.357  16.001   4.919  0.1866  0.0742  0.1145
15526W        W32373  10.509  13.831   4.472 -0.0553  0.0621 -0.1122
15527W        W32374   1.857  15.424  11.703  0.3981  0.2860 -0.1109
15528W        W32375   6.633  18.204   4.883 -0.1607  0.2246 -0.2773
15529W        W32376   2.085   1.311  11.094  0.1486 -0.0248  0.1059
15530W        W32377  14.215  16.356  13.076 -0.1777  0.2640 -0.0636
15531W        W32378   0.478   1.642   1.008  0.0399  0.2670 -0.0572
15532W        W32379  13.137   8.080  10.539  0.1109  0.4266  0.2254
15533W        W32380   7.868   0.962  15.316  0.1480 -0.4323  0.0450
15534W        W32381   8.110   2.866  13.171  0.0474  0.0670 -0.0785
15535W        W32382  15.744   4.387  12.935  0.1541 -0.0456 -0.0994
15536W        W32383   3.068  14.601   3.451 -0.0164 -0.0510 -0.3343
15537W        W32384   5.882   9.616   2.001 -0.1324 -0.1308  0.0991
15538W        W32385   1.745  16.244   3.063  0.2132  0.1782 -0.2074
15539W        W32386   9.880   4.558   2.543  0.0130  0.0456 -0.0664
15540W        W32387  13.765   2.397   2.251  0.1414  0.2439  0.2550
15541W        W32388   7.852   2.385   5.143  0.0305 -0.1050 -0.0247
15542W        W32389   1.351   2.821   1.227  0.1820  0.0038 -0.1149
15543W        W32390  16.089   7.034   0.712 -0.0037  0.1368  0.1708
15544W        W32391   7.053   9.985   1.772 -0.1788 -0.2315  0.1655
15545W        W32392   3.168  13.929   5.100  0.0220 -0.1432  0.1415
15546W        W32393   7.430   8.055  13.397 -0.1381  0.2040 -0.1191
15547W        W32394  15.718   7.679   1.451  0.1703 -0.2390  0.2778
15548W        W32395   5.936   9.232  13.139  0.1375  0.1013 -0.0161
15549W        W32396   0.199   9.800  11.854 -0.0976 -0.0252 -0.3752
15550W        W32397   2.423   5.855   0.265  0.1939 -0.0984  0.4552
15551W        W32398   4.075   2.703  16.122  0.0997  0.2095 -0.3057
15552W        W32399  11.139  13.020   2.582  0.4562  0.0143  0.1323
15553W        W32400   4.997  12.329   5.638  0.1376  0.2911 -0.2512
15554W        W32401  14.052   9.280  12.934  0.0875  0.0499  0.2653
15555W        W32402   8.444  14.374   0.738 -0.0147  0.0118  0.0002
15556W        W32403  17.875  11.982   3.576  0.0894  0.3886 -0.2179
15557W        W32404   4.238   9.548   4.308 -0.0342 -0.0623  0.0704
15558W        W32405   0.261   7.956  14.469 -0.1365 -0.1045  0.1112
15559W        W32406  11.182  11.466  13.185  0.0053  0.0945  0.3586
15560W        W32407  16.796  18.090  14.032 -0.1490 -0.1952  0.0680
15561W        W32408   9.395   7.636   2.063  0.0716 -0.1199 -0.1046
15562W        W32409  13.185  18.003   2.560 -0.0528  0.1287 -0.2530
15563W        W32410  11.215   9.821   3.850 -0.1571  0.0039 -0.1671
15564W        W32411   9.830   6.554   4.888  0.0805 -0.2689 -0.1005
15565W        W32412  13.750   1.003  11.353  0.3163  0.0038  0.1248
15566W        W32413  14.002   7.047  13.553 -0.0426 -0.0234 -0.1356
15567W        W32414   7.868   1.427   4.788 -0.1590 -0.2516  0.1521
15568W        W32415   3.733  17.140   5.411  0.2318 -0.0345  0.2273
15569W        W32416  15.587  15.731   2.602  0.2100  0.1310 -0.1500
15570W        W32417   7.687  15.574   0.117  0.1194 -0.1497  0.1371
15571W        W32418   2.703   5.446   0.428  0.0511 -0.0995 -0.2639
15572W        W32419  10.728  12.945   2.162 -0.1681  0.1711 -0.2177
15573W        W32420   7.469  15.082   2.291 -0.1371  0.0158  0.2063
15574W        W32421   1.522   0.903  15.310  0.1636  0.0075  0.1107
15575W        W32422  10.765  14.945  13.294  0.1797  0.0261 -0.0175
15576W        W32423  11.016  15.190   0.611 -0.0096  0.0595  0.1375
15577W        W32424   5.557   4.017   6.047  0.2144  0.1843  0.1113
15578W        W32425   5.841   3.523   0.697  0.0881  0.1093  0.4283
15579W        W32426   9.813  17.903  13.633  0.0125  0.2156  0.2616
15580W        W32427   9.489   9.664   4.433  0.0684  0.2661 -0.0749
15581W        W32428  17.754   1.407   0.544 -0.2083 -0.3666  0.3882
15582W        W32429  15.502  11.815   4.982 -0.1495 -0.0416  0.1713
15583W        W32430   2.770  15.797   1.370 -0.1997 -0.2212  0.3930
15584W        W32431   7.718  12.437  15.784 -0.2731  0.0686  0.0859
15585W        W32432   6.064  17.780  13.523 -0.0348 -0.1816 -0.0377
15586W        W32433  17.767  11.245  11.386 -0.1513 -0.1591 -0.4338
15587W        W32434  15.094   7.091   2.653 -0.2627  0.1353 -0.2363
15588W        W32435  11.680  11.453   2.838 -0.1075  0.2947 -0.2488
15589W        W32436   7.286  13.055   4.601 -0.0770  0.1294 -0.1775
15590W        W32437   2.508   9.623   1.009  0.0822 -0.2644  0.0346
15591W        W32438   9.937  17.360   4.693 -0.0048 -0.0940  0.1729
15592W        W32439   5.817   1.613   3.509 -0.0300 -0.0437  0.0877
15593W        W32440   2.419  11.021   5.843 -0.1909  0.0945  0.2338
15594W        W32441  10.495   2.214  13.462  0.0708 -0.1259  0.0612
15595W        W32442  17.629  11.822   0.773 -0.0972 -0.0266 -0.1603
15596W        W32443   8.548   6.870  13.404 -0.0603  0.1144  0.1800
15597W        W32444  18.269   3.432   3.147  0.1044  0.1773 -0.0884
15598W        W32445  11.476  11.194  14.043  0.3681  0.0522  0.0861
15599W        W32446  13.115   9.990   0.992 -0.0402  0.0508  0.0351
15600W        W32447   0.645   4.770   1.746  0.0505  0.0212  0.1574
15601W        W32448   4.619  16.730  14.702  0.2035 -0.0967 -0.2379
15602W        W32449   3.071   4.749  11.416 -0.2343  0.1069 -0.0913
15603W        W32450  17.334  15.340  12.487 -0.1047 -0.3194  0.2115
15604W        W32451  12.117   3.365  14.465 -0.2898  0.1264  0.1885
15605W        W32452   6.699   6.705  15.159 -0.1756 -0.1652 -0.1044
15606W        W32453   8.277   5.570  13.066  0.1620  0.0812  0.3180
15607W        W32454   7.022  14.135   1.789  0.0952 -0.1011 -0.3266
15608W        W32455  15.809   5.588  15.805 -0.1599  0.0079  0.1753
15609W        W32456  17.716  11.704  13.983 -0.0647 -0.2401 -0.0431
15610W        W32457  10.978  14.637  14.576  0.1142  0.0135  0.0977
15611W        W32458  16.813  14.043   2.329  0.0383 -0.1182  0.1330
15612W        W32459  15.785   6.407   1.115  0.1403 -0.3069  0.0068
15613W        W32460   2.115  16.926  13.913  0.0041 -0.1562  0.1049
15614W        W32461  13.654   6.788  13.818  0.0135  0.0701 -0.2171
15615W        W32462   3.638  15.174  11.861 -0.2726 -0.2275  0.0285
15616W        W32463  11.128  16.616   2.281 -0.4910 -0.0253  0.1593
15617W        W32464   3.646  10.876   1.361  0.3311 -0.3075 -0.2109
15618W        W32465  11.507  13.406  11.705  0.1742 -0.0202 -0.0781
15619W        W32466   8.503   2.454   0.441  0.0790 -0.0248  0.1720
15620W        W32467   1.684  10.780   1.614 -0.3026 -0.2404 -0.0175
15621W        W32468   2.488  17.064  11.080 -0.3983  0.0390 -0.1601
15622W        W32469   0.527   1.637   4.797  0.2434 -0.2109 -0.2605
15623W        W32470  14.093  10.309  12.061  0.3381  0.3602 -0.0651
15624W        W32471   8.850  15.792  14.936 -0.2453 -0.1852  0.2730
15625W        W32472   2.453   5.633  12.018  0.3893  0.0983  0.1543
15626W        W32473  15.562   3.919  10.753  0.0780 -0.1696  0.0921
15627W        W32474  16.023  14.400   2.150 -0.0689 -0.0762  0.0927
15628W        W32475   8.983   6.243   5.701 -0.0887  0.0639  0.2477
15629W        W32476  16.159   4.718   5.550  0.0078 -0.1187 -0.1204
15630W        W32477   5.261  11.914   5.664 -0.2026  0.1575 -0.2509
15631W        W32478  13.512  17.659   2.869  0.2160  0.1462 -0.1103
15632W        W32479  13.299   9.627  16.178  0.3377  0.0832  0.1236
15633W        W32480   0.833  17.907   5.099 -0.1107  0.0481  0.0506
15634W        W32481   3.731   1.298   0.377  0.2604 -0.1464  0.0675
15635W        W32482  16.630   0.910  11.978  0.1130  0.1811 -0.2317
15636W        W32483   7.154   5.456  12.042  0.0294 -0.1834  0.2469
15637W        W32484  14.609   5.826  11.531  0.1291 -0.0039 -0.0726
15638W        W32485  13.007   2.810  14.129  0.2435 -0.1414 -0.0369
15639W        W32486   9.131  12.664   3.892  0.4696  0.0824  0.1006
15640W        W32487  13.013   6.780  15.347 -0.0425 -0.1457 -0.2148
15641W        W32488  15.526   1.378   4.867 -0.1201 -0.0729 -0.1731
15642W        W32489   2.108   7.428  15.009  0.1825 -0.5547 -0.0354
15643W        W32490  12.754   3.930  14.320 -0.1038  0.1102 -0.1560
15644W        W32491  11.496  18.034   3.407  0.0148 -0.0832 -0.1039
15645W        W32492   6.082  10.146   4.623  0.1265  0.1986  0.0760
15646W        W32493  11.231  10.458   0.845  0.0955  0.0907 -0.1007
15647W        W32494   5.413  14.126   5.475  0.0999 -0.0107  0.0051
15648W        W32495  11.814  13.985   3.412 -0.0198  0.2168 -0.2721
15649W        W32496  14.882   3.431  15.405  0.0165 -0.4679  0.0799
15650W        W32497  10.423   1.529   5.282  0.1552 -0.1339 -0.0631
15651W        W32498   8.108   7.997   2.331  0.0137  0.1818 -0.2492
15652W        W32499   7.034   3.781   1.793  0.1434 -0.0861  0.2566
15653W        W32500   2.560   2.310  13.424  0.1122  0.0533 -0.1499
15654W        W32501  16.976  17.911   5.768  0.0243 -0.2731  0.0409
15655W        W32502  10.699  10.775  11.736  0.0424 -0.0899  0.1651
15656W        W32503   6.708   5.083   2.402 -0.3296  0.1386 -0.1911
15657W        W32504   2.128   1.194   1.000 -0.2384  0.0607 -0.0413
15658W        W32505  16.806  12.127  13.126 -0.2923 -0.0102 -0.1725
15659W        W32506   4.049   1.024   0.566 -0.1810  0.3646 -0.0673
15660W        W32507  14.204   9.281  14.056  0.1215  0.1142 -0.2764
15661W        W32508  13.472   3.809  16.087 -0.2489 -0.0797  0.1709
15662W        W32509   1.708   7.128   1.718 -0.1064 -0.0573 -0.0770
15663W        W32510  12.040   7.188  11.836  0.0521 -0.0610  0.0385
15664W        W32511  17.442  17.712   5.771 -0.0896 -0.1883 -0.4051
15665W        W32512  13.575   1.121   3.011  0.2771  0.1308 -0.2038
15666W        W32513   0.255   1.371  12.565 -0.1913 -0.1777 -0.0863
15667W        W32514   2.378  17.106  11.992  0.1625 -0.0087  0.1749
15668W        W32515   6.975  15.758  15.513  0.1249 -0.1311 -0.1951
15669W        W32516  11.972  14.014  11.924 -0.1046  0.2790 -0.0640
15670W        W32517   8.935  16.925   3.333 -0.0026  0.0088  0.2058
15671W        W32518   1.089  15.320  13.831 -0.0785  0.0684 -0.1404
15672W        W32519  11.100  13.053   0.015 -0.2046 -0.0567  0.0831
15673W        W32520  13.327   9.651   3.144  0.2503  0.1149 -0.1212
15674W        W32521   8.351  14.679   4.250  0.1511  0.0565  0.0316
15675W        W32522   5.914   2.302   1.192  0.0913  0.0140 -0.0277
15676W        W32523  14.912   8.977   1.759  0.2068 -0.0172  0.3747
15677W        W32524  10.128  13.198  14.153 -0.2447  0.1680 -0.0285
15678W        W32525   5.245  15.798   1.226 -0.0792  0.1881 -0.1187
15679W        W32526   4.228  14.227  16.008 -0.1431 -0.0056 -0.0103
15680W        W32527  17.279   0.340  13.394 -0.0275  0.2088  0.0424
15681W        W32528  17.933   3.934  13.735 -0.1182 -0.0366 -0.0013
15682W        W32529   5.058   4.346   3.968  0.1847 -0.0222 -0.1165
15683W        W32530   6.340   8.531   3.001 -0.0509  0.0572 -0.3320
15684W        W32531   9.508  17.735   0.071  0.3715 -0.1391 -0.1291
15685W        W32532   9.635   2.017  10.449  0.0992  0.1948 -0.0576
15686W        W32533   7.313   9.152  12.052 -0.0264  0.1358 -0.1203
15687W        W32534   6.081  13.775   4.769  0.1539 -0.0334 -0.5106
15688W        W32535   5.134   8.163   0.740  0.1528 -0.1736  0.0957
15689W        W32536  10.029  12.588   3.295  0.0259  0.2928 -0.2148
15690W        W32537  14.213   1.598   4.540 -0.1560  0.2013  0.0748
15691W        W32538   7.866   4.610   2.467  0.3284 -0.2996  0.1018
15692W        W32539   1.084   6.860  15.072  0.0325  0.2108  0.1945
15693W        W32540   5.389  13.096  13.439 -0.1216 -0.3463 -0.4614
15694W        W32541  13.814   7.357  11.104 -0.0039 -0.0388  0.0698
15695W        W32542   9.040   9.812  14.086  0.2087  0.0674 -0.1356
15696W        W32543   7.584   2.467   2.805  0.0216  0.1896  0.1781
15697W        W32544  17.962   7.817  15.114 -0.1235  0.1512  0.1242
15698W        W32545   7.172  12.113  12.125  0.2915 -0.2126  0.2257
15699W        W32546  13.029  18.284   4.387 -0.0809 -0.0115 -0.1301
15700W        W32547   2.670   2.673   0.812 -0.0941  0.0151  0.1414
15701W        W32548  15.935  11.071  11.661 -0.0808 -0.4797 -0.0111
15702W        W32549   7.643   3.796  15.790  0.0344 -0.0809 -0.1248
15703W        W32550  17.674   1.418  15.901 -0.0230  0.0520  0.4192
15704W        W32551  14.738   5.637  15.398  0.1247 -0.0901 -0.0862
15705W        W32552   6.148   2.233   6.007 -0.1512 -0.1459  0.2927
15706W        W32553   9.178   9.780  11.804  0.0583 -0.1873 -0.1891
15707W        W32554  10.639   4.050  15.029  0.1749 -0.1510  0.2587
15708W        W32555  16.247   8.711   2.168  0.0728  0.1916 -0.0773
15709W        W32556   1.511   3.105   2.453  0.1736 -0.1969 -0.0206
15710W        W32557   5.060   9.142  14.154  0.0293 -0.1075 -0.0282
15711W        W32558   1.840   4.955  12.490 -0.0179 -0.2222 -0.1765
15712W        W32559  17.512   5.410  12.097 -0.0102  0.1839 -0.1079
15713W        W32560   3.838   2.657   4.905  0.2418  0.1353  0.1027
15714W        W32561  18.010   5.228   0.129  0.0810 -0.1521  0.1232
15715W        W32562   4.250  16.080   2.604  0.3289  0.2189 -0.0781
15716W        W32563  14.795   1.944   2.452  0.2225 -0.1564 -0.1228
15717W        W32564  17.206  17.181  11.618  0.0324 -0.2944 -0.0151
15718W        W32565  15.955  14.366   2.785  0.1498  0.0321  0.0124
15719W        W32566  17.420   6.153   0.880  0.1446  0.0899 -0.0813
15720W        W32567  14.618   9.030   0.287 -0.2207  0.0406 -0.1938
15721W        W32568  16.551  16.386   3.199 -0.1279  0.0149  0.0515
15722W        W32569  13.963   4.409   2.892 -0.0970 -0.1569  0.1557
15723W        W32570  11.170  13.026  12.389 -0.2537  0.4404 -0.1269
15724W        W32571   1.273  15.216   3.306  0.1073  0.3615  0.0606
15725W        W32572   8.250   2.338   2.175  0.2381  0.1441 -0.0912
15726W        W32573   4.568   2.956   0.606  0.3086  0.1738  0.0801
15727W        W32574   3.413   4.713   0.825 -0.1031  0.0035 -0.1165
15728W        W32575   3.430   1.194   5.371  0.3264 -0.1425  0.1924
15729W        W32576   8.644   4.703   1.403  0.2394 -0.2125  0.0105
15730W        W32577  11.421  14.927   3.997  0.1570  0.0556  0.1000
15731W        W32578  18.118   7.367  15.912 -0.1698  0.0962  0.1496
15732W        W32579  14.634  10.680   0.947  0.0383 -0.1534  0.0413
15733W        W32580  16.731  16.036  11.988 -0.0250 -0.0833  0.1560
15734W        W32581  10.493   9.598  13.011 -0.0174  0.4455 -0.0475
15735W        W32582  17.449   7.834   3.688 -0.2537 -0.2801  0.0516
15736W        W32583   4.288  11.192   5.539  0.2941  0.1716 -0.2043
15737W        W32584   3.624  16.791   4.566  0.1253  0.1955 -0.1559
15738W        W32585   3.134  13.402   2.852  0.2246 -0.0786 -0.0789
15739W        W32586   8.590   6.059   0.828 -0.3335 -0.0788 -0.1949
15740W        W32587  13.258   0.880  12.249  0.0564 -0.0678  0.1633
15741W        W32588   6.405  17.391   0.229 -0.0848  0.3572 -0.0769
15742W        W32589  17.072   9.563  12.613 -0.0688 -0.0306  0.0482
15743W        W32590  10.408   1.615   4.796  0.1031 -0.2677  0.0434
15744W        W32591  16.611  13.443  14.045  0.0204 -0.0257  0.1329
15745W        W32592   4.241   4.413   4.906  0.0549  0.0013  0.2441
15746W        W32593   9.661  15.250  13.252 -0.2412 -0.1207 -0.3321
15747W        W32594   0.157   1.747  12.133  0.2050 -0.0362 -0.3830
15748W        W32595  17.101   1.108  13.817  0.0240 -0.1467 -0.2230
15749W        W32596  12.438   1.495   4.550 -0.0135 -0.0733 -0.0369
15750W        W32597   8.212   3.602  15.759 -0.1693 -0.1741  0.2819
15751W        W32598  14.773   0.175   4.099 -0.0627 -0.1971 -0.1829
15752W        W32599  11.230  15.893   2.581  0.3348 -0.0609 -0.3916
15753W        W32600  13.776   2.988  14.091  0.0015  0.1876 -0.2011
15754W        W32601  11.893  11.488   1.793  0.3054  0.2949  0.1123
15755W        W32602  11.609   1.190   2.570 -0.0250  0.1511 -0.1004
15756W        W32603   4.205  13.026  15.603 -0.0534  0.2018  0.0385
15757W        W32604  10.623  13.528  14.136 -0.0136  0.0998  0.0424
15758W        W32605   8.181  17.861   4.094 -0.1289 -0.1286  0.0827
15759W        W32606   6.579   3.034   4.817  0.1012  0.1205 -0.1523
15760W        W32607   7.865   3.133   2.283  0.0808 -0.2047 -0.0401
15761W        W32608  12.013  10.786  14.485 -0.2065  0.0811 -0.1085
15762W        W32609   2.689  14.422   0.943  0.0512 -0.1668 -0.0459
15763W        W32610  17.517   0.720  15.335 -0.0627 -0.1456 -0.1084
15764W        W32611  12.002  15.791   1.521  0.3018  0.1677  0.1288
15765W        W32612  12.709   8.756  12.750  0.0664 -0.2066 -0.1202
15766W        W32613   0.201   4.554  14.620  0.1313  0.0016  0.0530
15767W        W32614   7.490  10.756   0.375 -0.1485  0.1733 -0.2470
15768W        W32615  12.243   9.134   4.962  0.1379  0.2932  0.0583
15769W        W32616   7.597   7.069   4.731 -0.2345 -0.1849 -0.2921
15770W        W32617   0.444  11.941  12.755 -0.0187 -0.1278 -0.0344
15771W        W32618   4.927   4.908  15.715  0.0025 -0.0420  0.0695
15772W        W32619  10.171  16.267  15.229 -0.0395  0.2639  0.2256
15773W        W32620  11.016   0.062  14.118 -0.1219 -0.0738  0.0854
15774W        W32621  13.156   3.469  15.431 -0.0369  0.2329  0.1967
15775W        W32622   5.505   1.722  15.154  0.1118  0.1588 -0.0377
15776W        W32623  18.216   0.119   2.111 -0.1515  0.0550 -0.1505
15777W        W32624   8.130   1.010   0.933  0.2349 -0.1593 -0.3286
15778W        W32625  16.437  12.876  13.534  0.1793 -0.2811 -0.0186
15779W        W32626   7.025  11.002   3.941  0.0157 -0.0756 -0.3179
15780W        W32627  15.603   4.196   0.323  0.0386  0.2008 -0.2645
15781W        W32628   8.640   2.199  15.711 -0.0634  0.3164  0.0704
15782W        W32629   6.162  12.219   6.706  0.2554 -0.6168  0.1713
15783W        W32630   7.428  13.391  12.392  0.1545  0.1140  0.0834
15784W        W32631   8.881   7.535   2.061 -0.0028  0.1971  0.1960
15785W        W32632   9.460   3.665   0.334 -0.2725 -0.3960  0.0801
15786W        W32633   2.095   1.112   0.234  0.0311 -0.1226 -0.0766
15787W        W32634   9.958  13.682  15.912  0.2544  0.2391 -0.0916
15788W        W32635  10.942   1.428  15.565 -0.0343  0.3112  0.0144
15789W        W32636   0.305   3.245  11.702 -0.2808  0.0244  0.0435
15790W        W32637   5.396  15.427   0.413  0.0421  0.0796  0.1984
15791W        W32638  12.296  14.113   0.401  0.2469 -0.0782  0.2942
15792W        W32639  10.453   7.432  12.477 -0.4310  0.0311 -0.1580
15793W        W32640  17.399  17.960  11.041 -0.3539  0.0641 -0.2318
15794W        W32641  11.573   3.977   0.288  0.1479  0.2376 -0.1232
15795W        W32642  13.721   1.350  14.164  0.1541  0.2433 -0.1040
15796W        W32643  10.464   3.379   5.530 -0.1396  0.0029 -0.1111
15797W        W32644   1.070  15.517  15.435  0.0130  0.0007  0.2055
15798W        W32645  15.112   9.567   2.577 -0.0503 -0.2636  0.0712
15799W        W32646   2.957   0.472  12.238  0.2662 -0.0226  0.0489
15800W        W32647   8.379  16.586  12.278  0.2442  0.1337  0.0255
15801W        W32648   9.759  11.482   0.762 -0.1898 -0.0241 -0.0862
15802W        W32649   1.776  18.071  15.549 -0.2698 -0.0797 -0.0675
15803W        W32650  16.648   1.590  12.767 -0.2806 -0.0060  0.2508
15804W        W32651  11.216   6.574  14.647 -0.0149 -0.2501  0.0296
15805W        W32652   7.089   2.272  11.335  0.0831 -0.1279  0.2272
15806W        W32653  10.776   9.431   3.044 -0.0533  0.1072 -0.0948
15807W        W32654  16.974   8.666  14.916 -0.2731 -0.2013 -0.2214
15808W        W32655  15.964  17.023   4.667  0.1887 -0.0797 -0.0703
15809W        W32656   8.708  16.303  13.612  0.2427  0.0806  0.1459
15810W        W32657  12.572  14.982   1.813 -0.0235  0.1300  0.0560
15811W        W32658   0.647  14.419   4.954  0.1924  0.1167  0.0203
15812W        W32659  13.832   9.483  11.704  0.2648  0.1523  0.3768
15813W        W32660   6.779   4.584   4.057  0.0133  0.0187 -0.1028
15814W        W32661   3.104   1.617   6.203 -0.1166 -0.1172 -0.4284
15815W        W32662   4.545   9.184   2.568 -0.1114 -0.0386 -0.2894
15816W        W32663  12.244  15.388  12.331  0.2601 -0.1164  0.0237
15817W        W32664   2.401  11.494  13.148  0.0190  0.0379  0.1149
15818W        W32665  16.610   7.247   0.580  0.0222  0.2392  0.4150
15819W        W32666   9.494   1.852  14.227  0.0376  0.2503 -0.1401
15820W        W32667  10.773   0.134  12.557  0.2268 -0.1777 -0.1218
15821W        W32668   6.849   3.845  13.677  0.0049  0.0588 -0.3820
15822W        W32669  11.314   3.139   2.522  0.3637 -0.2137  0.0522
15823W        W32670  12.818  17.286   1.547 -0.1185  0.0945 -0.2817
15824W        W32671  13.248   0.750   1.838  0.2420  0.2145 -0.1084
15825W        W32672   9.290  10.039   2.009  0.1573  0.0307 -0.1636
15826W        W32673  17.522   5.784   1.174 -0.0814 -0.1713  0.2299
15827W        W32674   8.671  16.016   3.683  0.1525 -0.0421 -0.0278
15828W        W32675   4.938  11.806   3.839 -0.2064  0.0652 -0.3400
15829W        W32676   4.978   8.363  14.798  0.2554  0.1271  0.2594
15830W        W32677   6.517   7.538  13.410  0.1421 -0.2000  0.0758
15831W        W32678   1.197   4.688   2.041 -0.3555 -0.0724  0.1299
15832W        W32679   5.117   0.936  13.818  0.3224 -0.0273  0.2838
15833W        W32680   7.440  14.969  13.803 -0.2935 -0.1864 -0.1116
15834W        W32681  15.133   5.866   3.235 -0.1530  0.0493 -0.2191
15835W        W32682   4.491  13.424   3.307  0.1415  0.2787 -0.2866
15836W        W32683  11.438   9.655   4.801 -0.1798  0.0857  0.0230
15837W        W32684  13.858  16.210   2.101  0.0413 -0.2544 -0.2119
15838W        W32685   1.187   7.358  12.275  0.1626  0.1045 -0.1198
15839W        W32686  13.520  12.157  11.887 -0.0730  0.0410 -0.1538
15840W        W32687  16.544  16.933   2.574 -0.0123  0.2488  0.2968
15841W        W32688   6.947  13.592  14.346 -0.0877  0.1634  0.2104
15842W        W32689  11.280  15.078   4.525 -0.4186  0.1206  0.2477
15843W        W32690  10.857   4.215   4.086  0.0085 -0.0746  0.1517
15844W        W32691  12.250   8.736  11.874 -0.2909  0.1881  0.2556
15845W        W32692   2.813  10.330   3.265  0.2645 -0.1896 -0.1997
15846W        W32693  12.396  11.793  14.188  0.0284 -0.2047  0.0999
15847W        W32694   8.687   4.286   4.871  0.1139  0.0411 -0.0003
15848W        W32695  12.754  13.404  15.542 -0.0260  0.1361 -0.1324
15849W        W32696   0.663   4.911   0.807 -0.0240 -0.0243  0.4444
15850W        W32697   9.247   0.625  12.099 -0.1098 -0.1706 -0.1619
15851W        W32698  13.824   7.806   2.582  0.3601  0.0222 -0.0202
15852W        W32699   4.714   1.766  13.811  0.0982 -0.0617 -0.1130
15853W        W32700  11.469  17.563  13.744 -0.2102  0.0420  0.3233
15854W        W32701   1.539  16.255   1.040 -0.1118  0.2298  0.0232
15855W        W32702  14.703  12.238   4.714 -0.1096  0.1743  0.2694
15856W        W32703  11.940   1.039  15.508  0.0004  0.1334  0.0109
15857W        W32704  17.716   0.837   1.988  0.4074  0.2802  0.0166
15858W        W32705   9.783   9.496   3.728 -0.2055 -0.1371  0.0168
15859W        W32706   6.435   6.847  12.924 -0.1649  0.2926 -0.2994
15860W        W32707   7.174   9.305   3.458 -0.0883  0.2376 -0.1762
15861W        W32708  13.313   9.654   5.275 -0.2814  0.0469  0.0346
15862W        W32709   3.906   7.597  13.768 -0.0009 -0.3683  0.0400
15863W        W32710  14.681   7.072  15.793  0.1211  0.2861  0.1309
15864W        W32711   5.701   9.253   5.602 -0.1701  0.1108 -0.1889
15865W        W32712   7.282   3.807  13.477  0.0994  0.0463  0.3164
15866W        W32713  12.290   6.408  14.802  0.0718 -0.0845  0.4028
15867W        W32714   4.135   6.962  15.141  0.2177 -0.3211 -0.4679
15868W        W32715   6.693  12.869   4.062  0.0598  0.0473 -0.2560
15869W        W32716   8.781  18.223   4.663 -0.1210 -0.3002  0.0644
15870W        W32717  15.112  12.816   2.388  0.3188  0.1807 -0.1912
15871W        W32718  17.667  17.912   3.982 -0.0536 -0.3061  0.1928
15872W        W32719   4.488  15.744   4.729  0.4403 -0.0536 -0.0592
15873W        W32720   6.968   2.946  15.243  0.3288  0.5422 -0.0582
15874W        W32721   6.155   3.878   5.103 -0.0268 -0.0046  0.1264
15875W        W32722  12.636  13.751   4.396 -0.2593 -0.0022 -0.3793
15876W        W32723   3.904   6.759   5.582 -0.0500  0.0437  0.1880
15877W        W32724  14.113  15.140  12.312 -0.0069 -0.0966 -0.0020
15878W        W32725   3.683  12.981  14.787 -0.2044  0.2369 -0.0846
15879W        W32726  13.568  15.552  13.538  0.0605 -0.0704 -0.3512
15880W        W32727   8.973  11.752   3.347  0.0058  0.0516  0.0016
15881W        W32728  10.640  15.571  14.495 -0.2547 -0.2301 -0.0770
15882W        W32729   4.651   5.674  16.147  0.3500 -0.0767  0.0981
15883W        W32730  16.417  13.639   0.080  0.1163  0.4123  0.0437
15884W        W32731   7.565  12.348  12.834  0.0607 -0.3723  0.1171
15885W        W32732  13.177  12.589  13.358 -0.0834  0.0375 -0.4547
15886W        W32733  12.318  12.881  14.136 -0.1546  0.0802 -0.0983
15887W        W32734  16.194   8.627   0.400  0.2901 -0.0762  0.1041
15888W        W32735   1.235  13.721  14.049  0.0889  0.2352  0.0576
15889W        W32736  16.612  12.637  12.384 -0.1861  0.0645 -0.2539
15890W        W32737   1.074   6.662  13.738  0.0090 -0.0412  0.0854
15891W        W32738   9.376  16.495  12.280 -0.0437  0.0239 -0.0059
15892W        W32739   6.527   7.932   0.724 -0.3072  0.1493  0.2332
15893W        W32740  15.479   2.526   0.984 -0.2199  0.4723 -0.3361
15894W        W32741  16.865   6.659  10.506 -0.0703 -0.0479 -0.2386
15895W        W32742   7.610   7.574  14.399  0.0931 -0.1826  0.0536
15896W        W32743  15.645  17.340   3.968 -0.0943 -0.0376  0.0643
15897W        W32744   6.899   9.003  15.934  0.1597 -0.0837 -0.1303
15898W        W32745   8.057  11.368   0.550  0.2441 -0.0426 -0.0334
15899W        W32746   8.429   1.161  16.127  0.0262  0.2048 -0.0233
15900W        W32747   7.449  17.642   1.331  0.2297 -0.0470 -0.1198
15901W        W32748  15.539  17.522   0.768  0.1846 -0.1237  0.0610
15902W        W32749  14.770  11.096  12.286  0.0093  0.3257 -0.0237
15903W        W32750  17.594   0.939   0.068  0.1818 -0.2924  0.0908
15904W        W32751  16.355   3.782  11.880  0.0402  0.0179  0.1605
15905W        W32752  14.222   7.871   2.885  0.3833  0.2236 -0.2327
15906W        W32753   9.432   0.336   0.842  0.1342  0.0357  0.0694
15907W        W32754  16.547  13.335   4.918  0.2946 -0.2313 -0.1103
15908W        W32755   1.586   9.776   0.047 -0.1266  0.0108  0.2826
15909W        W32756   5.980   4.989   3.158  0.2025  0.1436 -0.1265
15910W        W32757   9.874  11.467   0.098 -0.2227  0.2413  0.4707
15911W        W32758   5.755  12.058   2.848  0.2205 -0.0526  0.0792
15912W        W32759   9.956  11.538  15.389 -0.1392 -0.1488  0.2694
15913W        W32760   3.712  17.383  11.360  0.2297 -0.3345 -0.1465
15914W        W32761   9.659  10.094   4.787  0.2103 -0.1856  0.2961
15915W        W32762   6.838   0.990  15.325 -0.0890 -0.0757  0.0549
15916W        W32763  16.886   4.732  14.022 -0.0993 -0.0229  0.1464
15917W        W32764  17.198   7.173   1.849 -0.1569 -0.0029  0.0849
15918W        W32765   6.106   6.658   0.022  0.1565 -0.1880  0.3027
15919W        W32766   8.351  10.508   0.374 -0.1810  0.1644  0.3618
15920W        W32767  11.180  14.195  12.883  0.1122 -0.0608 -0.0674
15921W        W32768   0.932   1.643  13.315 -0.3155  0.1221 -0.2026
15922W        W32769   1.353   9.337  16.031  0.3550 -0.0650 -0.1053
15923W        W32770   0.033  16.231  12.706  0.0056 -0.4476  0.1433
15924W        W32771   2.596   8.966  14.186 -0.1542 -0.1277  0.2266
15925W        W32772   9.210  14.114  12.788 -0.2590 -0.1623  0.3446
15926W        W32773   8.745   8.327   1.712 -0.3892  0.2011 -0.0017
15927W        W32774  14.498   5.990  12.991 -0.1487 -0.2068 -0.2545
15928W        W32775   0.619   2.062   1.292 -0.1740 -0.1665  0.3009
15929W        W32776   5.354   1.114   4.920  0.1064 -0.2794 -0.2784
15930W        W32777   8.744   3.930   3.757 -0.0531  0.1143  0.2048
15931W        W32778   2.013   6.084  16.182  0.1936  0.1158  0.0432
15932W        W32779   7.537   3.360   4.603 -0.3333 -0.1320  0.0814
15933W        W32780  10.293  14.471   0.424 -0.0350  0.0258 -0.2405
15934W        W32781   2.578   0.810   2.081  0.2730 -0.1063 -0.1675
15935W        W32782  12.813  15.249   0.587  0.0725 -0.0606  0.0170
15936W        W32783   5.807   6.755   4.527  0.1544 -0.0891 -0.0850
15937W        W32784  10.641   3.459  10.779 -0.3825 -0.1493  0.1018
15938W        W32785  16.377   0.748   3.553 -0.2412 -0.1463  0.1774
15939W        W32786   2.059   1.069  15.074  0.3047  0.0689 -0.2138
15940W        W32787  14.662  10.443   3.767 -0.1839 -0.1056  0.2603
15941W        W32788  15.601   2.408   9.747  0.1387  0.0868 -0.1194
15942W        W32789  16.880  16.532   2.715  0.1036 -0.3255 -0.2508
15943W        W32790   1.296   8.190  15.310  0.1780  0.4162 -0.2044
15944W        W32791   3.674  11.051   4.627 -0.0793  0.2027  0.0834
15945W        W32792   4.632  13.840   3.009 -0.1349  0.1861 -0.0592
15946W        W32793   0.819   7.878   4.848 -0.0158  0.1761 -0.1848
15947W        W32794  11.950  17.381  15.931 -0.0340 -0.0072  0.1579
15948W        W32795   2.963   9.631   1.158 -0.1087 -0.0553 -0.1060
15949W        W32796  14.928  15.609   1.924  0.0508 -0.2174 -0.0403
15950W        W32797   1.053  13.172  10.558 -0.0724  0.3804  0.0306
15951W        W32798   8.867   6.060  12.275  0.1119 -0.1003 -0.0222
15952W        W32799   4.988   8.216  14.277 -0.2665 -0.2470  0.2135
15953W        W32800   2.164  13.261  12.179 -0.0516  0.1060  0.3468
15954W        W32801  18.238   8.683  11.546  0.1189  0.1010  0.2375
15955W        W32802   3.874  12.831   2.181 -0.0349 -0.1916  0.0193
15956W        W32803  11.677  15.351  12.232 -0.1661 -0.0201 -0.1354
15957W        W32804  12.947  13.234   3.078  0.0718  0.2748  0.1195
15958W        W32805  14.047   4.764   0.443 -0.2071  0.0442  0.3025
15959W        W32806   9.767   0.643  13.238 -0.3444 -0.1490 -0.2107
15960W        W32807  11.206  14.704   0.641 -0.1929 -0.1165  0.0987
15961W        W32808   8.941  12.742  11.786  0.3223 -0.1461  0.0975
15962W        W32809  13.268  13.315  13.249  0.2116 -0.0904  0.1568
15963W        W32810   1.179   4.097  12.480 -0.2989 -0.0524 -0.1951
15964W        W32811   0.794  12.960  14.173 -0.3713  0.0705 -0.2271
15965W        W32812  11.488  16.167  12.206 -0.2806  0.0534 -0.1811
15966W        W32813   1.577  13.796  10.538 -0.2169  0.1011  0.0356
15967W        W32814   8.753   0.707  16.128  0.0430  0.4850  0.0085
15968W        W32815  14.611   9.707  11.726  0.1963 -0.1489  0.2104
15969W        W32816  12.731  13.711  11.764 -0.1494 -0.0949  0.1115
15970W        W32817  17.804  14.250   4.464  0.1759 -0.0561 -0.1267
15971W        W32818   7.125   3.650   3.820  0.0106 -0.0976 -0.0145
15972W        W32819  14.306   2.705   5.125 -0.1044 -0.3704 -0.0661
15973W        W32820   7.642  12.668   4.589 -0.0592 -0.0132  0.2842
15974W        W32821  10.748   4.926  12.586  0.2889  0.0424 -0.2144
15975W        W32822  10.101   1.101  14.100 -0.0013  0.2803  0.0429
15976W        W32823   4.053  16.716   1.663  0.0872 -0.0888  0.1365
15977W        W32824  14.438   1.401   5.871  0.1824 -0.3483 -0.0966
15978W        W32825   8.134   2.646   0.051 -0.1475  0.2254 -0.0985
15979W        W32826   2.840   5.856   3.213  0.2289  0.1650 -0.0703
15980W        W32827   9.479   5.357   2.748  0.0768  0.0889 -0.1521
15981W        W32828   7.531   0.331   3.329  0.0210 -0.0592 -0.1351
15982W        W32829  10.426   2.055  14.560 -0.3999  0.0579 -0.1365
15983W        W32830   6.971  11.362  13.464  0.0986 -0.1342 -0.1036
15984W        W32831   9.713   6.296   2.497 -0.2638  0.1484  0.0569
15985W        W32832  13.204  14.965  12.043 -0.0041  0.0503 -0.1977
15986W        W32833   7.638  12.489  12.118 -0.0717 -0.1765  0.2874
15987W        W32834   9.737  14.155   5.032  0.2292  0.0539 -0.1438
15988W        W32835  17.626   8.647   4.036  0.3405  0.1342  0.3109
15989W        W32836   9.223  13.774   5.643  0.1043 -0.0398 -0.2226
15990W        W32837  15.440  15.793  12.372  0.1177 -0.1613 -0.1594
15991W        W32838  11.673  15.417  15.501  0.0463  0.0656  0.2189
15992W        W32839   1.834  13.919  14.646 -0.0623  0.0035 -0.3298
15993W        W32840   7.706  13.913  14.567  0.0221 -0.3399  0.2089
15994W        W32841   3.450   0.305   4.473  0.0914  0.3608 -0.0785
15995W        W32842  16.081   0.903   3.060 -0.0412 -0.1156 -0.1918
15996W        W32843   5.170  15.262   4.643 -0.0288 -0.0559 -0.2692
15997W        W32844   7.680  17.327  11.774 -0.2014 -0.0063  0.0677
15998W        W32845   1.170  16.044   3.444 -0.1404 -0.4287 -0.1349
15999W        W32846   0.843  16.152   4.422 -0.1061  0.1201  0.3140
16000W        W32847   3.636   6.223   2.482  0.2046  0.3222  0.0749
16001W        W32848  15.536  18.123   4.266  0.4353  0.2199 -0.2308
16002W        W32849  18.253  17.209  14.598 -0.0724  0.1900 -0.3119
16003W        W32850   4.018   2.605   1.258  0.1900  0.0279  0.0981
16004W        W32851   1.966  13.007  15.755  0.0316 -0.1931 -0.0390
16005W        W32852  10.775   8.504  15.712 -0.0694 -0.1824  0.0720
16006W        W32853   8.736  16.488  14.992  0.2891  0.0032  0.2182
16007W        W32854  11.146  14.189  14.620  0.1184  0.2484 -0.0289
16008W        W32855   0.108   1.487   1.966  0.0912  0.2165  0.1609
16009W        W32856   1.941   2.974  14.404  0.2720  0.1404  0.3872
16010W        W32857  11.334  14.255   3.364  0.0671 -0.1931  0.0371
16011W        W32858  12.037  13.734   1.847  0.1957  0.6025 -0.0207
16012W        W32859   7.580  14.671  14.180  0.0229  0.0801  0.3647
16013W        W32860   8.003   6.491   5.105  0.1883 -0.2807  0.1007
16014W        W32861  16.372  17.640   3.811 -0.0147 -0.0372  0.2611
16015W        W32862  14.005   1.087  14.444 -0.4122  0.2349 -0.0023
16016W        W32863   2.253  11.686  11.226 -0.0579 -0.0088 -0.2028
16017W        W32864  17.457   7.357   2.737  0.1427  0.0214 -0.0117
16018W        W32865   3.287   4.865  14.333  0.0550  0.2526 -0.0923
16019W        W32866   7.912  17.946  14.080  0.2596 -0.1570 -0.0961
16020W        W32867   1.178   7.632  14.462  0.2809 -0.1489  0.0473
16021W        W32868   4.434   5.432  15.697  0.1938  0.2924  0.3985
16022W        W32869  10.423   4.805  13.544  0.0960 -0.0620 -0.1039
16023W        W32870   2.234  16.175   3.194  0.0018  0.1344 -0.2730
16024W        W32871   5.413   6.914   0.598  0.2188 -0.0305 -0.2421
16025W        W32872  16.379   1.150   5.373  0.2320 -0.0422  0.1429
16026W        W32873   3.356  12.539   4.746  0.0422 -0.0916  0.2374
16027W        W32874   0.525   4.431   1.034 -0.1052 -0.0856  0.0654
16028W        W32875   6.936   8.653   2.240 -0.3979  0.0072  0.1252
16029W        W32876   0.288  15.959  15.928  0.1435  0.0274  0.1256
16030W        W32877   6.736  11.513  12.666  0.0118  0.0938 -0.2151
16031W        W32878  11.185   3.845  10.724 -0.0912 -0.1290  0.0792
16032W        W32879   3.866   2.242  13.036 -0.0706 -0.0343 -0.1083
16033W        W32880   4.391  12.755  12.610  0.1701 -0.1366 -0.0347
16034W        W32881   7.091  13.296   4.171 -0.1053 -0.1448  0.1195
16035W        W32882   1.157  16.508   0.158  0.0873  0.1634  0.0207
16036W        W32883  10.421   7.493   5.687  0.1794  0.1771 -0.3733
16037W        W32884   7.054   5.885  14.040 -0.3379  0.1177 -0.0005
16038W        W32885  18.181   4.112   2.052  0.0218  0.1288  0.1772
16039W        W32886  12.194  17.082  12.157  0.0163  0.0958  0.0683
16040W        W32887  13.609  11.633   5.203  0.0866  0.0955 -0.1012
16041W        W32888   9.373  18.317   3.777  0.0620 -0.0732  0.2187
16042W        W32889  13.605   0.064   0.017 -0.1725  0.2824 -0.1206
16043W        W32890  11.880   6.523   5.072 -0.0954 -0.1879 -0.0403
16044W        W32891  17.834   7.461  15.523 -0.1282  0.0734  0.0145
16045W        W32892  12.044  13.346  13.501  0.0443  0.3307 -0.2687
16046W        W32893   4.314  12.940   0.458 -0.1304 -0.0996  0.1447
16047W        W32894   6.397   0.788   4.633 -0.0449 -0.0994 -0.1728
16048W        W32895  12.038  14.796   0.648 -0.0679 -0.3249  0.3152
16049W        W32896  16.975   4.972   2.541 -0.3248 -0.1704  0.0739
16050W        W32897   0.729   5.664  15.752  0.0209  0.0727  0.1393
16051W        W32898   5.571  15.523   0.952  0.2178  0.2187  0.0445
16052W        W32899  17.108   3.369  11.474 -0.2846  0.0049  0.3254
16053W        W32900  11.907  16.929  16.139 -0.1179 -0.2532 -0.2251
16054W        W32901  16.100   3.708  12.929 -0.0495  0.0616 -0.1814
16055W        W32902  16.076   1.118  15.139  0.1138  0.0136  0.1129
16056W        W32903   0.541   8.617  13.972 -0.0443  0.1812  0.0563
16057W        W32904  13.604  16.042   5.171 -0.1662 -0.0241 -0.2170
16058W        W32905  15.493  16.619   0.710  0.0912 -0.0188 -0.1436
16059W        W32906   5.260   5.180   2.051 -0.1815  0.1059 -0.0899
16060W        W32907   2.132  11.422  15.070  0.0569  0.0531  0.1409
16061W        W32908  16.862  13.781  13.636 -0.2576  0.0774  0.0845
16062W        W32909   7.534   6.088   2.861  0.2564  0.1720  0.1438
16063W        W32910  15.086   1.558   3.724  0.0317 -0.1599  0.0444
16064W        W32911  16.916  17.278   3.163 -0.1161 -0.1560  0.1697
16065W        W32912  14.506   4.272   2.839  0.0480 -0.1909 -0.1806
16066W        W32913   8.877  14.494   0.520  0.0067 -0.0704  0.1950
16067W        W32914   3.130   8.901   2.876 -0.1853 -0.1731 -0.0858
16068W        W32915   2.831   4.169  12.350 -0.0904  0.0471 -0.0757
16069W        W32916  10.622  15.610   1.777 -0.1540 -0.1085 -0.2181
16070W        W32917   4.450   2.826   6.230 -0.0937 -0.0923 -0.0302
16071W        W32918   8.405   9.134   4.430  0.2231 -0.0544 -0.0596
16072W        W32919  18.200   7.433  11.451 -0.0904  0.0701  0.1808
16073W        W32920  11.815  11.736   5.683  0.1395 -0.1125  0.2237
16074W        W32921   9.696  14.261   4.551 -0.1388  0.4213  0.0912
16075W        W32922   7.878  10.248   2.954 -0.1346 -0.0511 -0.1221
16076W        W32923  13.793   2.967  15.616  0.1164 -0.1909 -0.3845
16077W        W32924   0.453   1.541  15.138 -0.0692  0.0252 -0.0049
16078W        W32925  14.840  15.985  10.249 -0.0183  0.2601  0.1391
16079W        W32926  14.566   5.126  15.293 -0.0825 -0.1001  0.0572
16080W        W32927   9.722  10.149  11.946 -0.1390 -0.0578 -0.1373
16081W        W32928   7.308  17.471   2.883  0.2474 -0.1505  0.0089
16082W        W32929  14.910   1.954  12.945 -0.2878 -0.3467  0.0663
16083W        W32930  15.288   5.894  13.064 -0.2428  0.0172  0.1158
16084W        W32931   2.828  10.291  12.423 -0.0115 -0.0356  0.2261
16085W        W32932   7.184  14.929   0.869 -0.0440 -0.1576 -0.0525
16086W        W32933  16.014   2.086  13.265  0.0226  0.0879 -0.2762
16087W        W32934  13.038  18.207  13.745  0.3325  0.2005  0.0725
16088W        W32935   1.376   4.564  13.798 -0.0321  0.1143 -0.1075
16089W        W32936   2.678   6.272  12.354 -0.1109  0.0196  0.0932
16090W        W32937  12.113   3.514   1.198  0.1430  0.0658  0.1899
16091W        W32938   4.428  15.124  14.045 -0.1663  0.0880 -0.1335
16092W        W32939   9.284   7.967   4.945  0.0861 -0.0827  0.0645
16093W        W32940   1.571   8.137   0.718 -0.0943  0.2137  0.0022
16094W        W32941  13.134   3.560  10.496  0.0111  0.0366 -0.2176
16095W        W32942   4.316   6.912   4.475  0.2064  0.0546  0.1806
16096W        W32943  12.219   8.203  11.929  0.2547  0.0674  0.0836
16097W        W32944  10.071   0.456   0.971 -0.1663  0.1161  0.0073
16098W        W32945  10.659   7.671   4.789 -0.0124 -0.0598 -0.1802
16099W        W32946   3.894   0.621   4.291 -0.1155 -0.1736 -0.4905
16100W        W32947   5.372   6.021   5.501  0.0404 -0.0278  0.0072
16101W        W32948   8.206   5.943  11.137  0.2181 -0.1481 -0.0171
16102W        W32949  10.240   2.869  15.660 -0.1466 -0.6278 -0.1084
16103W        W32950   4.057   2.253   2.087  0.2576 -0.0769  0.0405
16104W        W32951  15.239   9.229  14.569 -0.3609  0.1897 -0.0466
16105W        W32952   2.849  14.211   4.338 -0.2612 -0.0832  0.0930
16106W        W32953  10.483  15.678   4.403 -0.0067  0.2949  0.2370
16107W        W32954  18.009   6.404  13.172 -0.1128  0.0694 -0.1916
16108W        W32955   2.368  16.358   5.667  0.1607  0.0777 -0.0154
16109W        W32956  11.689   0.569   4.516  0.0933 -0.1409 -0.1790
16110W        W32957   9.072   7.608   0.619 -0.0580  0.0066 -0.2569
16111W        W32958   6.183  11.486  15.468  0.0543  0.1721  0.3518
16112W        W32959   9.568  13.781   4.553  0.0542  0.2480  0.0372
16113W        W32960   9.972   3.696   2.285 -0.0970  0.0460  0.0527
16114W        W32961  10.171  14.126  15.645 -0.2435 -0.0773  0.2431
16115W        W32962   1.688   0.502   2.506  0.1531 -0.1360  0.0381
16116W        W32963   6.035   6.556   0.489  0.4336 -0.2193 -0.2444
16117W        W32964   8.558   6.621   3.277 -0.4004  0.2313 -0.1665
16118W        W32965   4.246   7.219  13.827  0.3123  0.0730 -0.0943
16119W        W32966  10.911   9.315   2.274  0.1396  0.1143 -0.1100
16120W        W32967   7.156   3.050  14.303  0.0835  0.3068  0.0079
16121W        W32968   5.479  11.957   1.964 -0.3444  0.0849  0.0008
16122W        W32969   3.565  13.947   4.780  0.4736  0.1636  0.0014
16123W        W32970  17.961   7.153   3.177  0.0194 -0.1716 -0.1269
16124W        W32971  13.754  11.830  11.494 -0.1658  0.3485  0.1145
16125W        W32972  15.067  17.294  13.571 -0.1558  0.1122 -0.1275
16126W        W32973  14.290   5.020  11.607 -0.0915 -0.0259  0.0930
16127W        W32974  15.798   0.122  11.696 -0.1885  0.0825  0.2698
16128W        W32975   2.337   2.760   5.034  0.3376 -0.1016 -0.2718
16129W        W32976  12.587  11.375  13.333 -0.1758  0.1635  0.1142
16130W        W32977  13.134  17.705  13.566  0.1833 -0.2538  0.2860
16131W        W32978  17.409   3.475  10.791  0.4129 -0.0065 -0.0586
16132W        W32979   6.621   3.072  15.679  0.1090 -0.1519  0.1456
16133W        W32980   8.678   2.261   0.854  0.0181  0.1824  0.0381
16134W        W32981   3.155   9.602   5.120  0.0695  0.0576 -0.0531
16135W        W32982   0.216  13.542   2.272 -0.0046  0.0133  0.1498
16136W        W32983  10.079   0.892   0.695 -0.1921 -0.0233  0.0543
16137W        W32984  15.760  13.558   4.487 -0.0153 -0.1035  0.1111
16138W        W32985  14.092   6.362  12.019 -0.0510 -0.1497 -0.1123
16139W        W32986   8.725  17.500   1.852 -0.0268  0.2428  0.0959
16140W        W32987   3.656   9.524  14.825  0.1438  0.0914  0.0008
16141W        W32988  10.158   4.755   3.833 -0.3013  0.0663 -0.1000
16142W        W32989  17.207  10.609   4.232 -0.0396 -0.1340  0.2526
16143W        W32990   6.705  12.672   1.200 -0.1228  0.0227  0.2687
16144W        W32991  13.953   5.321   1.629  0.0677 -0.2794  0.0296
16145W        W32992  15.655  14.343  12.300 -0.0833  0.3342 -0.0472
16146W        W32993   2.078  12.504  15.786 -0.2956 -0.3784  0.1499
16147W        W32994   8.357  11.450  11.907  0.2718  0.1604 -0.1111
16148W        W32995   3.818   6.208   2.969  0.0419 -0.2994  0.3126
16149W        W32996   5.192   9.456  13.757 -0.4553  0.1117  0.1268
16150W        W32997   5.422  14.918   2.586 -0.1696 -0.1020  0.1121
16151W        W32998   6.644  15.751   1.833  0.0655  0.3307  0.0606
16152W        W32999  12.536  13.913   5.425  0.3371 -0.0208 -0.0104
16153W        W33000  15.623   8.801   3.199 -0.2452 -0.0223  0.0714
16154W        W33001   6.696  11.766   4.372  0.0126 -0.2021  0.1120
16155W        W33002  17.025  12.624   3.535 -0.3090 -0.2431 -0.1003
16156W        W33003  12.283  14.230   5.072 -0.1343  0.0085  0.0788
16157W        W33004   3.299  18.036   2.876  0.0151  0.1036  0.0618
16158W        W33005   2.492  16.101   4.722  0.2397  0.1948  0.4885
16159W        W33006  10.392   7.838   3.516 -0.2269 -0.2528 -0.2070
16160W        W33007   9.850  10.532  11.644  0.0367 -0.1977 -0.0666
16161W        W33008   3.199  16.399   5.318 -0.0800  0.1639  0.1365
16162W        W33009   8.766  11.659  14.580 -0.1139  0.0005  0.0530
16163W        W33010  15.024  18.278   5.114  0.0827 -0.3009  0.2198
16164W        W33011   0.292   8.180   5.490 -0.1316  0.2443 -0.0062
16165W        W33012   1.583  17.735   3.388 -0.1179 -0.0359 -0.2606
16166W        W33013   1.170   0.594  11.921  0.3003  0.1659  0.0707
16167W        W33014   7.751   1.550   1.734 -0.0868 -0.1981 -0.1783
16168W        W33015  10.806   3.791   2.656  0.1727  0.1571  0.0250
16169W        W33016   3.538  10.993   3.741 -0.2826 -0.1948  0.1335
16170W        W33017  10.072  17.725   3.702 -0.1602  0.2145 -0.3384
16171W        W33018  13.882  17.834   0.634 -0.1659  0.1861  0.0780
16172W        W33019   3.148   9.631  16.021 -0.1109  0.1676  0.0201
16173W        W33020   2.843  18.099   0.032  0.1490 -0.1527  0.0540
16174W        W33021  12.748   0.325   4.594 -0.3580  0.0549 -0.2114
16175W        W33022   6.571  16.296  12.591  0.1850  0.2509 -0.0209
16176W        W33023   4.974  13.733   5.081 -0.0625 -0.2620 -0.1875
16177W        W33024   5.601  10.190  15.271 -0.0935 -0.2006 -0.0960
16178W        W33025   0.238   7.249  14.876  0.0883  0.0351 -0.4109
16179W        W33026   4.838  15.494  11.210  0.1668  0.1945  0.3166
16180W        W33027  16.534   1.044  16.031 -0.0356 -0.0754  0.0193
16181W        W33028  16.620   0.843  13.823 -0.1371  0.0265 -0.0640
16182W        W33029  11.552  12.776   1.717 -0.0790 -0.2447  0.1810
16183W        W33030   6.613   7.926  13.170 -0.2135  0.0704  0.3336
16184W        W33031   3.394   3.495  16.063 -0.0106  0.1236  0.1094
16185W        W33032   1.610   3.099  11.351  0.0473  0.2597  0.0974
16186W        W33033   0.556   5.961   3.636 -0.2710  0.0270  0.0781
16187W        W33034  12.531   6.903   1.433  0.0745  0.2664  0.1702
16188W        W33035  12.171  15.448  15.223  0.0810 -0.1069 -0.0859
16189W        W33036   5.355  17.986   2.917 -0.1876  0.1407 -0.0165
16190W        W33037  10.513   7.704   2.152  0.2967  0.1912 -0.0167
16191W        W33038   3.820  12.591   4.591  0.0538 -0.1556 -0.0317
16192W        W33039   7.590   8.658   0.616  0.0056 -0.0185 -0.1652
16193W        W33040   0.217  13.088  11.499  0.1643 -0.1520 -0.2169
16194W        W33041  18.183  13.174  12.517  0.0360  0.1423  0.1266
16195W        W33042  16.713   4.926   4.775  0.1448 -0.0429  0.0340
16196W        W33043   8.040  14.853  12.964  0.2425 -0.3079 -0.0557
16197W        W33044   4.406   1.329   3.118  0.0247  0.0093  0.0139
16198W        W33045   4.774  11.077   5.878  0.1000  0.0441 -0.0789
16199W        W33046   3.142  17.066   0.475  0.0621  0.2404 -0.0215
16200W        W33047  15.516  13.578   4.064  0.1160  0.2563 -0.0865
16201W        W33048  13.914  13.202   2.095  0.2784  0.1451  0.1558
16202W        W33049  12.027   1.218   3.811 -0.1497  0.0646 -0.1166
16203W        W33050  11.106   8.314  11.216 -0.0049  0.2188  0.0038
16204W        W33051  16.528  17.803  13.714  0.2457 -0.0121  0.2510
16205W        W33052   4.659   8.282   1.846 -0.3065  0.0368  0.0311
16206W        W33053   2.832  15.823  13.456 -0.1928  0.1247 -0.1517
16207W        W33054   6.569  16.171   5.731  0.3901 -0.0971  0.3197
16208W        W33055   3.703   8.449  11.618  0.1272  0.1667  0.0359
16209W        W33056   8.262  16.002   5.851 -0.1769 -0.0052 -0.3965
16210W        W33057   2.974   2.677  12.708 -0.0329 -0.1667  0.3198
16211W        W33058   9.579  14.855  15.516 -0.1988  0.0216  0.1249
16212W        W33059   6.424  17.100   3.179 -0.2750  0.2857  0.3796
16213W        W33060   6.196  11.177  11.386 -0.2547 -0.0819 -0.1887
16214W        W33061   2.104   9.490  15.422 -0.0818  0.2203 -0.0074
16215W        W33062  14.245  11.308  12.235  0.1629  0.1938  0.2069
16216W        W33063   0.458   5.395  16.089 -0.0323  0.2332 -0.0782
16217W        W33064  17.928  14.011  12.866  0.1370 -0.0383 -0.2061
16218W        W33065   0.817   4.148  11.557  0.1639  0.4229 -0.0295
16219W        W33066  10.048  14.062   0.779  0.4065  0.0509 -0.0243
16220W        W33067   4.714  14.786   4.659 -0.3491 -0.2277  0.2275
16221W        W33068  13.230  11.396  13.991 -0.1790 -0.1521  0.1974
16222W        W33069   0.347  16.049   2.852 -0.3187  0.2663 -0.0513
16223W        W33070  16.427  11.722   0.549  0.3271  0.1285  0.0055
16224W        W33071  12.619  14.166   0.816 -0.0769 -0.1390 -0.1515
16225W        W33072   7.276   2.944   0.036 -0.2310 -0.2448  0.0038
16226W        W33073  14.625   4.855   1.105  0.1462 -0.1656 -0.0226
16227W        W33074   0.482  10.690   4.538 -0.2977  0.2587 -0.1512
16228W        W33075  13.962  11.859  14.604 -0.0134  0.3055 -0.3263
16229W        W33076   2.937   2.584   4.212  0.0021 -0.0258 -0.1038
16230W        W33077   0.359  17.769  11.839 -0.2734 -0.2118  0.0359
16231W        W33078   9.543  12.144  15.762  0.0734 -0.1109  0.2048
16232W        W33079   7.516  15.072   3.484  0.0846  0.2485 -0.1177
16233W        W33080   4.231   9.046  12.337 -0.1453  0.1862 -0.2640
16234W        W33081   5.766   3.055  12.226 -0.1438 -0.0199 -0.3382
16235W        W33082  12.006  15.388  11.850  0.0592 -0.0753 -0.3201
16236W        W33083   8.339  11.560   4.021  0.1014 -0.0575 -0.4330
16237W        W33084   9.174  17.032  13.304 -0.0954 -0.0212 -0.0407
16238W        W33085   7.818   5.529   1.117 -0.1806 -0.1209 -0.0388
16239W        W33086  15.596  10.150   0.029  0.0468 -0.0225  0.3485
16240W        W33087   1.617  16.706   3.018 -0.1538 -0.1208  0.2443
16241W        W33088  10.664   2.955   4.687 -0.0764  0.4800  0.0494
16242W        W33089  16.696  18.041  12.977 -0.0031 -0.1821  0.1135
16243W        W33090   8.533   0.254   3.449 -0.1604 -0.1388  0.0509
16244W        W33091   2.950  13.435  14.265  0.0664  0.0471  0.2549
16245W        W33092   6.411   0.276  13.718 -0.0980  0.0044  0.2180
16246W        W33093   7.392  18.179  11.884  0.0989  0.0886 -0.0028
16247W        W33094   7.455   1.127  13.565 -0.2417 -0.3730 -0.2047
16248W        W33095   3.713   4.633  12.574 -0.2215  0.3395 -0.1424
16249W        W33096   9.741  18.060  11.795  0.1499  0.0543  0.1224
16250W        W33097   8.918   3.717  15.382 -0.3223  0.0817  0.0071
16251W        W33098  16.150   0.154   4.210  0.1143 -0.2623 -0.2159
16252W        W33099   8.559  12.726  15.161  0.2192 -0.0622 -0.0940
16253W        W33100  15.387  13.788   3.435 -0.0533 -0.4758 -0.0124
16254W        W33101   9.766  15.771   4.025 -0.4019 -0.2094  0.0316
16255W        W33102   2.227   3.460  13.688 -0.0833  0.3245 -0.1392
16256W        W33103  11.644   4.999  12.488 -0.1149 -0.2819  0.0598
16257W        W33104  15.423   9.940  15.790  0.1277  0.1581 -0.0665
16258W        W33105   3.885   3.600   2.000  0.0554 -0.3019 -0.4484
16259W        W33106   2.881  16.033   1.827  0.0271 -0.3739  0.1159
16260W        W33107  10.406  13.747   1.103  0.1154  0.3559 -0.0757
16261W        W33108  12.344  12.470  15.933 -0.0409  0.0525 -0.1174
16262W        W33109   3.016   1.842   2.778  0.0063 -0.2530  0.2104
16263W        W33110  12.466   8.765  14.118 -0.2087  0.0407  0.0652
16264W        W33111  17.473   2.965  15.892  0.2871 -0.3117  0.0110
16265W        W33112  18.188  17.170   1.418 -0.1091 -0.2766  0.2466
16266W        W33113  13.662   8.570  14.019 -0.2513 -0.1107  0.2062
16267W        W33114  13.085  13.771   1.210 -0.1205 -0.2570  0.0073
16268W        W33115  16.183   5.917  13.210  0.1454  0.1858  0.1748
16269W        W33116  16.640  14.246  13.246  0.0864 -0.2726 -0.0564
16270W        W33117  17.550  11.901  12.905  0.0600 -0.1409  0.5034
16271W        W33118  16.328   9.927   1.771  0.0671 -0.0489 -0.1491
16272W        W33119  12.835   5.720  10.851 -0.0508  0.0672 -0.0644
16273W        W33120  15.017  11.497  15.179 -0.0412  0.2952  0.1914
16274W        W33121   6.171  15.694  16.105  0.0372 -0.0968  0.0836
16275W        W33122   4.395  17.996  14.759 -0.0467 -0.2859  0.2092
16276W        W33123   0.753  16.416   2.795 -0.0418  0.1360 -0.0299
16277W        W33124   4.320  11.014   6.117 -0.0027 -0.0052  0.0985
16278W        W33125   6.294   7.466   0.699  0.0905 -0.1760  0.2702
16279W        W33126  10.259   3.304  14.558 -0.0711 -0.1212  0.0746
16280W        W33127   1.643   9.803  12.465 -0.1726 -0.1586 -0.2957
16281W        W33128   7.182   3.905   0.521  0.1091 -0.0019  0.2265
16282W        W33129  12.620  16.404   1.230  0.0338 -0.0275 -0.1175
16283W        W33130   0.833   6.077  14.622 -0.0184  0.1141  0.3809
16284W        W33131  14.121  12.657   5.262 -0.1643  0.1094 -0.1163
16285W        W33132   5.646  13.146   0.413  0.0243  0.1784 -0.1647
16286W        W33133  16.441   0.361   0.707 -0.0166 -0.1300  0.1039
16287W        W33134   7.870   8.643   3.741 -0.1607  0.1038 -0.0193
16288W        W33135  10.917   6.878   4.243 -0.1287 -0.1730  0.1786
16289W        W33136   0.025  14.271  12.780 -0.0837  0.2521 -0.2698
16290W        W33137   3.465  13.945  12.516  0.0325 -0.0612  0.0542
16291W        W33138   9.415  13.106  12.649  0.3234  0.2324  0.1800
16292W        W33139  10.259   0.707  12.975  0.0866 -0.1634 -0.2012
16293W        W33140  16.379   3.002  15.668  0.0242  0.1448  0.0938
16294W        W33141   4.800   4.251  12.176  0.0957 -0.0355  0.0951
16295W        W33142  11.242  12.752  15.794 -0.1490 -0.0879 -0.0580
16296W        W33143  14.011   5.863  14.599 -0.0735 -0.1199  0.0166
16297W        W33144   6.643   6.155   5.199  0.1558  0.0064  0.1768
16298W        W33145  12.165  16.568  12.169 -0.2109 -0.0087  0.0988
16299W        W33146  12.804  10.233   2.118  0.0123  0.2458  0.2383
16300W        W33147  15.073   6.015  14.098 -0.0828 -0.3488 -0.0535
16301W        W33148  14.125   9.358  12.409 -0.0704  0.1508 -0.1821
16302W        W33149   1.770   0.228   3.760 -0.0149  0.1375  0.0052
16303W        W33150  14.451   5.557   4.106  0.1223  0.1473 -0.0166
16304W        W33151  12.689  10.539  15.002  0.1623  0.0491 -0.1036
16305W        W33152  16.074  15.421   1.537 -0.1637  0.0104 -0.1341
16306W        W33153  17.961  16.639  11.079 -0.1134 -0.0769  0.2699
16307W        W33154   3.153  15.198  12.107  0.1823 -0.0281  0.0284
16308W        W33155   1.250   8.173   2.553  0.2252  0.0483  0.4061
16309W        W33156   1.444   1.531  11.868  0.0249  0.1181  0.2261
16310W        W33157  10.046  11.183   5.077  0.0852 -0.1947 -0.0270
16311W        W33158   4.938   3.994   4.467 -0.1723  0.0357  0.0742
16312W        W33159   8.106   2.395   2.960  0.0278  0.0546 -0.0315
16313W        W33160   0.943   0.393   3.470  0.1549 -0.1387  0.1758
16314W        W33161   7.309   8.002   2.582  0.0272  0.3880 -0.1109
16315W        W33162  12.716   8.964   5.720  0.2888 -0.2571 -0.0569
16316W        W33163   3.363   7.151   2.909 -0.0276  0.0573 -0.1924
16317W        W33164   9.980   1.160   2.242 -0.0042 -0.5083  0.1137
16318W        W33165   5.074  12.777   2.656 -0.1697  0.2722  0.1566
16319W        W33166   6.251   1.614   3.243  0.2500 -0.1528 -0.1362
16320W        W33167  17.469  13.056   2.930 -0.0241  0.2182 -0.2212
16321W        W33168   6.000   8.926   3.863  0.2050 -0.0566  0.2348
16322W        W33169   6.084  14.010   3.469 -0.0652  0.2250  0.0578
16323W        W33170   3.798   6.069  15.255  0.1680  0.1882  0.2183
16324W        W33171   8.645  15.160  15.474 -0.1035  0.0171  0.0370
16325W        W33172   0.904   2.432   1.498 -0.1024  0.1225  0.1838
16326W        W33173  16.008   4.209   4.217 -0.0528  0.0330  0.0731
16327W        W33174  10.050  12.078   4.009  0.0511 -0.2894  0.1321
16328W        W33175   6.390  18.247   1.554  0.1727  0.0236 -0.2060
16329W        W33176   9.332  18.029  14.607 -0.0603  0.0102  0.2206
16330W        W33177   6.086   3.039  10.917 -0.1597 -0.0610 -0.0689
16331W        W33178   5.548  16.831  15.789 -0.0563 -0.2678 -0.0856
16332W        W33179   7.097  14.001  14.693 -0.0107  0.0451  0.0682
16333W        W33180  12.371   8.569   2.709 -0.0997 -0.0597 -0.1501
16334W        W33181  11.489   3.796  15.125  0.0934  0.2295  0.2682
16335W        W33182   5.008  10.144  11.767 -0.2248 -0.2577 -0.0731
16336W        W33183   1.360  11.680  14.172  0.0336 -0.1374  0.0809
16337W        W33184   8.946  10.575   3.373  0.0530  0.2866  0.3340
16338W        W33185  13.189  13.451   0.851 -0.1225  0.3225  0.0131
16339W        W33186  14.609  11.716  10.878 -0.0323 -0.2194  0.2315
16340W        W33187   6.390   4.198   4.152  0.1224  0.1398 -0.0222
16341W        W33188  16.358   6.693   3.629 -0.2543  0.0901 -0.1944
16342W        W33189   4.931  15.570   3.344 -0.1475 -0.0712  0.1138
16343W        W33190  13.603   7.729  13.964  0.0213  0.0446 -0.0785
16344W        W33191  16.757   7.898   4.077  0.2422 -0.3372  0.0232
16345W        W33192  14.162  12.490   3.990 -0.0658  0.0009  0.1990
16346W        W33193   6.169   6.244   5.109 -0.2760  0.0426  0.0658
16347W        W33194  10.339   6.505  13.855  0.4370  0.1050  0.3714
16348W        W33195   5.323  16.312  13.948 -0.0918  0.0020  0.0929
16349W        W33196   4.707   9.503  13.427 -0.0350 -0.0535  0.1901
16350W        W33197  10.013  11.710  14.615 -0.2232  0.1131 -0.0525
16351W        W33198   3.241   6.931  12.261  0.1322  0.0867  0.4910
16352W        W33199  14.633   9.859   2.401 -0.0467 -0.1053  0.0332
16353W        W33200   0.613   6.586  12.176 -0.1969  0.1455  0.2344
16354W        W33201  16.503   2.655   4.385 -0.0179  0.0698 -0.1594
16355W        W33202  13.748   3.618  11.946  0.1929  0.2385 -0.0626
16356W        W33203   2.315  17.117   2.116  0.2408 -0.2805 -0.0383
16357W        W33204  15.917  16.535   3.655  0.0530 -0.0407 -0.2889
16358W        W33205   4.267  12.378  12.959 -0.2773  0.1899 -0.0981
16359W        W33206  17.903  10.850   0.603 -0.1005 -0.2054 -0.0599
16360W        W33207   3.631   8.273   4.553  0.1135 -0.1237  0.0251
16361W        W33208  10.148   0.695   2.236 -0.0929 -0.4261 -0.1539
16362W        W33209  10.378   6.927  12.436  0.0624  0.2524  0.0489
16363W        W33210  15.723   4.228   2.442 -0.4753  0.1798  0.2483
16364W        W33211   4.740   6.893   1.280  0.0168 -0.1158  0.3619
16365W        W33212   5.752   7.294  12.252 -0.0132  0.2707  0.0052
16366W        W33213   5.218  14.644   4.578  0.2140 -0.0984 -0.3142
16367W        W33214  10.034  13.870   4.657  0.1035 -0.1015  0.3329
16368W        W33215  12.689  16.497   0.744  0.2370  0.2917 -0.0949
16369W        W33216   6.394   5.891  13.028  0.3632  0.1126 -0.2575
16370W        W33217   8.273  16.932  12.643  0.1609  0.0630  0.2944
16371W        W33218   8.376   7.285  13.648  0.2248  0.0111 -0.0076
16372W        W33219  13.941  15.876  15.531  0.0245  0.0269  0.1683
16373W        W33220  10.609   9.351  13.406 -0.0765  0.0354 -0.2568
16374W        W33221  14.011  12.188   3.268 -0.0978  0.3103 -0.3111
16375W        W33222   3.292   5.540  12.377  0.0932 -0.0562  0.1061
16376W        W33223  11.755   7.131  10.685 -0.0348  0.1119  0.1085
16377W        W33224  10.719   6.039   2.264 -0.3779  0.1237  0.1114
16378W        W33225  16.095   5.339  14.628 -0.0296 -0.2129  0.0854
16379W        W33226   4.613  12.840  15.352 -0.0335 -0.0630 -0.1077
16380W        W33227   2.344  14.773   2.923  0.1901  0.0565  0.1814
16381W        W33228   1.079   7.799   0.904 -0.1338  0.2144  0.0349
16382W        W33229   9.458   3.661  12.846  0.3141  0.2503  0.1118
16383W        W33230   3.368  12.858  14.028  0.3179 -0.0176 -0.0817
16384W        W33231  15.465  15.006  11.767 -0.1480  0.0079 -0.2406
16385W        W33232  12.235  12.155   3.800  0.1025 -0.3565  0.0704
16386W        W33233  17.972   2.637  14.023  0.1672  0.0862 -0.0412
16387W        W33234  10.496  10.123   0.065 -0.1043 -0.0968  0.1197
16388W        W33235  13.022   1.142  12.625  0.0896 -0.0746  0.1621
16389W        W33236  14.167  11.770   2.383  0.0030  0.0924 -0.2997
16390W        W33237  15.794   9.087  11.428 -0.2037 -0.1951 -0.0306
16391W        W33238  11.943  12.918  13.769  0.2767  0.1895 -0.0461
16392W        W33239   3.679   5.144  12.140 -0.3565 -0.1811  0.0721
16393W        W33240   0.416   6.447  14.762 -0.0534  0.1277 -0.0175
16394W        W33241   4.849   3.975   2.330 -0.0267 -0.0345 -0.1495
16395W        W33242   1.107   5.624   0.562 -0.2207 -0.0540  0.0725
16396W        W33243  14.667   5.362   1.105 -0.3901  0.0665  0.1410
16397W        W33244   5.505   9.815  13.691  0.2730 -0.0770  0.1492
16398W        W33245   3.109  15.591   1.637 -0.1071  0.1099 -0.0653
16399W        W33246   5.662  10.103   4.255  0.0195 -0.1322  0.1080
16400W        W33247  13.235   0.375  12.132  0.0882 -0.0839  0.2979
16401W        W33248   8.312   6.996  11.834  0.0864  0.0719 -0.0805
16402W        W33249  11.388   5.492   4.139 -0.1681  0.0083  0.0177
16403W        W33250   2.392  11.559   0.716 -0.0382  0.0005 -0.0158
16404W        W33251   2.035  15.968   0.438  0.3962 -0.5582 -0.0393
16405W        W33252   3.072  15.952   4.785 -0.1116 -0.2568  0.1454
16406W        W33253   5.082   3.066   2.022 -0.2120  0.1229  0.1271
16407W        W33254   0.861   9.143  14.369  0.0209  0.1491 -0.1352
16408W        W33255   5.849   5.307   0.078 -0.0538  0.2123 -0.2929
16409W        W33256   0.504   4.273   3.264  0.1903 -0.0260 -0.0322
16410W        W33257  14.209  16.456  12.074 -0.1245  0.1230 -0.1118
16411W        W33258   3.128  15.084  11.574 -0.2137 -0.0464  0.0011
16412W        W33259  12.856   7.158   1.080  0.2584  0.0933 -0.1370
16413W        W33260  11.047  17.976  11.800 -0.1402  0.3322 -0.1469
16414W        W33261   4.127  11.015  10.971  0.0697 -0.3985  0.0888
16415W        W33262   0.947   7.749   5.876  0.1642 -0.0226 -0.2332
16416W        W33263   2.420   5.455  14.905 -0.2935  0.1184  0.0422
16417W        W33264  18.216  15.336   2.307  0.0598 -0.0362 -0.2222
16418W        W33265   9.581  11.047   4.996  0.0649  0.0233 -0.2772
16419W        W33266  15.699   3.119  15.832  0.3640 -0.1935 -0.1960
16420W        W33267   8.648  17.478   0.629 -0.0394 -0.0495 -0.1507
16421W        W33268   6.120   4.384   0.354  0.0434  0.1869  0.0989
16422W        W33269   2.754  12.099   4.469 -0.0860 -0.0377  0.1066
16423W        W33270  10.343  12.748  13.911 -0.0192  0.0443 -0.1643
16424W        W33271  10.447   3.901   3.021 -0.0164 -0.3653 -0.3963
16425W        W33272   8.386  12.650   2.375 -0.0318 -0.1173  0.1136
16426W        W33273  10.511   4.470   1.293 -0.0393 -0.3209 -0.0082
16427W        W33274   9.214   8.332   3.450 -0.0152 -0.2038  0.1746
16428W        W33275  15.616  15.481   3.676 -0.1496  0.0170  0.1797
16429W        W33276   4.217   4.888   5.156 -0.2013  0.0810  0.0056
16430W        W33277   0.382  10.933   3.747  0.3232 -0.0555 -0.1157
16431W        W33278  14.190   2.365   0.984 -0.4231 -0.0373 -0.1176
16432W        W33279   2.588  13.854   3.595  0.2773  0.0222 -0.1072
16433W        W33280   1.430   2.024  14.043 -0.1313 -0.0944  0.3712
16434W        W33281  14.977   3.861  11.788  0.1779 -0.2413  0.2563
16435W        W33282  16.784  13.406   4.012 -0.1489 -0.1159  0.0306
16436W        W33283  10.526  11.439   3.069  0.1709  0.1861 -0.2679
16437W        W33284   5.207   4.177   5.021  0.0166  0.3099  0.2545
16438W        W33285  12.887   4.594  14.514 -0.2009 -0.1133 -0.0605
16439W        W33286   8.671   0.889   0.783  0.1326 -0.0915 -0.2662
16440W        W33287   3.161  13.252  12.054  0.0576 -0.0171 -0.1738
16441W        W33288   8.757  18.315  12.523 -0.1191 -0.0424  0.1622
16442W        W33289  11.205  15.854   4.830 -0.1845  0.2331  0.0374
16443W        W33290   7.007  14.864  12.687 -0.1791  0.1410  0.2169
16444W        W33291   6.178   6.283   4.497  0.2263 -0.2885  0.4196
16445W        W33292   0.132  15.101  11.886  0.0739  0.0656 -0.2297
16446W        W33293   2.059   2.033   2.080 -0.0123  0.4913  0.2212
16447W        W33294  16.092  13.994  15.605  0.2331  0.0192  0.0321
16448W        W33295  14.311   3.394   1.507  0.2248  0.2396 -0.0760
16449W        W33296   3.236   9.305   3.197  0.3261 -0.1041 -0.0532
16450W        W33297  10.346   2.814   0.750  0.0094  0.0543  0.4578
16451W        W33298  15.936   7.762  15.073 -0.3020  0.0066 -0.0476
16452W        W33299   8.554   0.232  12.897  0.0566 -0.2065  0.1061
16453W        W33300   7.904  14.381   4.264 -0.0113  0.0236 -0.2866
16454W        W33301   2.401  11.763   3.848 -0.0156  0.1346 -0.3168
16455W        W33302   2.499  18.287   5.311 -0.1333 -0.0844  0.3954
16456W        W33303  17.355   5.834  14.182  0.4381  0.1267  0.0238
16457W        W33304  14.596   0.913   4.898  0.2047  0.0841 -0.1854
16458W        W33305  12.882  16.326  12.307  0.3264 -0.0998 -0.2090
16459W        W33306   7.716  15.704  10.956  0.0987  0.1405 -0.0396
16460W        W33307  18.068   0.577  12.664 -0.1102 -0.1353  0.1639
16461W        W33308  11.036  16.906   5.435  0.0433  0.1088 -0.0491
16462W        W33309  10.170   9.071  15.286 -0.0142  0.1145  0.1849
16463W        W33310  15.148   1.040   2.728 -0.2376 -0.3945 -0.1832
16464W        W33311   2.876  16.138   0.371 -0.4299 -0.0145 -0.0900
16465W        W33312   4.264   5.955  11.825 -0.0855  0.1304 -0.1874
16466W        W33313   6.025  11.497  13.556 -0.1240 -0.1583  0.2800
16467W        W33314  15.599   6.761   3.420 -0.2648  0.1384  0.1369
16468W        W33315  11.311  12.261   0.961  0.1500  0.0713  0.0189
16469W        W33316  15.553   6.432   4.490  0.0959  0.0430  0.0717
16470W        W33317   7.856   4.578   0.775 -0.2613 -0.1425 -0.0452
16471W        W33318   6.976  10.349   3.344 -0.1246  0.2905 -0.0931
16472W        W33319   1.270   1.980   3.946  0.2297 -0.0939  0.1419
16473W        W33320   8.230  13.183  14.752  0.1294 -0.0154  0.0837
16474W        W33321   8.114  15.875   3.761 -0.0988  0.1449  0.2863
16475W        W33322   8.115   3.156   5.781 -0.1906 -0.1432 -0.0066
16476W        W33323   5.660  15.824   0.530 -0.4077 -0.1041 -0.0985
16477W        W33324  16.091  14.199   4.455  0.0168 -0.0654 -0.2607
16478W        W33325   1.879   2.195   1.443 -0.1985  0.0325  0.2323
16479W        W33326  13.003   1.923   2.531  0.0506 -0.0185 -0.2231
16480W        W33327   7.001   8.853  14.690  0.0168  0.5199 -0.0167
16481W        W33328  16.567   2.216  13.393  0.1869 -0.1317  0.2773
16482W        W33329  15.478  12.887  15.997  0.1396 -0.1715 -0.0065
16483W        W33330  16.321  11.707  15.598 -0.0054 -0.3148  0.0717
16484W        W33331   5.333   7.497  11.965 -0.2248 -0.0287 -0.1325
16485W        W33332   8.714   8.660  15.361  0.1891  0.2496  0.1188
16486W        W33333  12.996   4.661   1.314 -0.0491  0.0677  0.0838
16487W        W33334   2.385  14.397   4.581  0.0115  0.1510  0.2272
16488W        W33335  13.191  16.637  13.996 -0.1937  0.2572 -0.0177
16489W        W33336   9.474   1.730   4.558 -0.0985 -0.2081  0.0402
16490W        W33337  13.609   4.782   2.997  0.2635  0.2847 -0.3589
16491W        W33338  17.538  12.483  11.390 -0.3674  0.3729 -0.0400
16492W        W33339   2.659   9.127   0.629  0.0488  0.0851 -0.2408
16493W        W33340   7.083   9.658  16.013  0.2697 -0.1184  0.1274
16494W        W33341   3.085   4.528  11.865  0.3484  0.0809  0.0562
16495W        W33342   5.704  16.528   4.762  0.1048  0.0365  0.2084
16496W        W33343  13.621  10.168   3.310 -0.0227 -0.0555  0.2842
16497W        W33344   1.464  15.146  11.570  0.2116 -0.1019 -0.1833
16498W        W33345   3.474   4.008  15.874  0.0790 -0.0517  0.0569
16499W        W33346   8.884  11.525   4.743  0.2031  0.3453 -0.0220
16500W        W33347  13.497   2.722   5.113 -0.0074  0.0015  0.1005
16501W        W33348   9.378   0.198   0.294  0.2480  0.1490  0.3541
16502W        W33349  12.264  17.474  13.712 -0.0583 -0.1392  0.0627
16503W        W33350   2.684   1.207   4.080 -0.1122 -0.0808 -0.4634
16504W        W33351   4.823   1.303  13.612 -0.1622  0.1961 -0.1375
16505W        W33352  10.406  16.748   1.291  0.1955 -0.0763  0.0893
16506W        W33353   6.356  13.609  16.184 -0.1086 -0.3367 -0.0981
16507W        W33354  16.042   6.876  12.144  0.2763 -0.1659 -0.2892
16508W        W33355   2.117   1.646   1.261  0.0787 -0.2300 -0.0330
16509W        W33356  12.617  12.167   4.430  0.0940 -0.1576  0.1104
16510W        W33357  12.480   4.574  12.258  0.1302 -0.0214 -0.2305
16511W        W33358   3.566   6.020  11.926 -0.0277 -0.2959 -0.0991
16512W        W33359   4.150   4.456  12.948 -0.0963  0.2185  0.0108
16513W        W33360  12.881   6.204  14.610 -0.2178 -0.0185 -0.0810
16514W        W33361   6.577  13.255  11.463 -0.1706 -0.1474 -0.0689
16515W        W33362   2.104   6.867   0.872 -0.2999 -0.0273 -0.2970
16516W        W33363  10.632  18.181   2.562  0.1188  0.0080  0.2339
16517W        W33364   4.945  11.306   3.978  0.3633 -0.1570  0.0952
16518W        W33365   6.607  14.960   1.404  0.0162  0.0940 -0.0784
16519W        W33366   6.084   6.187   3.468 -0.0237 -0.1870 -0.1831
16520W        W33367   3.542   2.517   1.345  0.2633  0.2645 -0.1290
16521W        W33368  10.853  10.267  13.186 -0.4010  0.3057  0.1151
16522W        W33369   0.380   0.447   2.964  0.0801 -0.2208 -0.0294
16523W        W33370   9.778   1.042  15.267 -0.3495 -0.2754  0.1088
16524W        W33371  11.391   4.007   3.011 -0.0406  0.1721 -0.1934
16525W        W33372  13.683   6.729   1.136  0.0197  0.4061 -0.0722
16526W        W33373   9.974   5.701  13.707  0.0987  0.2554 -0.0011
16527W        W33374  11.818  16.278   2.952  0.1254 -0.1444  0.1338
16528W        W33375   3.005   5.125  13.955  0.1882 -0.0813  0.1142
16529W        W33376  16.373   4.827   2.168 -0.0859 -0.0173  0.0262
16530W        W33377   9.389  16.798   0.710 -0.2032  0.0345  0.1535
16531W        W33378   7.883  13.758  15.355  0.3135 -0.0048  0.0632
16532W        W33379   1.668   9.745   5.511  0.0890 -0.1319 -0.1125
16533W        W33380  10.407  17.709   0.888 -0.1129  0.2514 -0.1006
16534W        W33381   2.560  16.340   1.562  0.0981 -0.0983 -0.0158
16535W        W33382  14.364   2.267   3.899 -0.0967  0.0813 -0.1528
16536W        W33383  12.960  10.508   1.716 -0.1790  0.1555  0.0953
16537W        W33384  15.068   6.729   3.492  0.0249  0.0390  0.1206
16538W        W33385   2.384   6.415   0.936 -0.2585  0.0012 -0.0945
16539W        W33386   9.274   4.059  12.130  0.3305  0.2808  0.2296
16540W        W33387   3.950   1.831   2.299 -0.2093  0.0335 -0.0340
16541W        W33388  11.515   9.948  15.390  0.0738 -0.3178  0.3950
16542W        W33389   3.022   8.254   3.729 -0.1055  0.2428 -0.0849
16543W        W33390   9.226  15.269   5.473  0.0941  0.2182  0.1613
16544W        W33391  12.903   3.053  16.174 -0.1366 -0.4613  0.1583
16545W        W33392  16.383   0.265   0.161  0.4031 -0.1449  0.0475
16546W        W33393  10.480   1.818   2.797  0.1599 -0.0807 -0.0005
16547W        W33394  15.083   1.279  13.869  0.1821  0.0981  0.0486
16548W        W33395   2.368   5.676  12.938  0.0088  0.0109 -0.4318
16549W        W33396  11.290   0.372  14.412  0.2705 -0.0331 -0.0622
16550W        W33397  14.019   0.200   0.993  0.1333  0.0678 -0.2373
16551W        W33398   5.426   7.325   0.288  0.2078 -0.0421  0.1810
16552W        W33399   2.867   4.913  13.081  0.4279 -0.2582 -0.0024
16553W        W33400  10.404   3.970   1.045  0.2574  0.0807 -0.1005
16554W        W33401   1.926   5.598   3.457  0.3105  0.2097  0.1521
16555W        W33402   6.584   1.596   4.595 -0.3768  0.4921 -0.1608
16556W        W33403   9.372   5.493  11.337 -0.0243 -0.2409  0.0064
16557W        W33404  13.836   7.443  14.815 -0.0010  0.0975  0.0120
16558W        W33405  14.445   7.805   3.598  0.3704  0.3686 -0.0338
16559W        W33406   9.110  11.320   0.375  0.0163 -0.3891 -0.0725
16560W        W33407   7.885  10.370  10.445  0.0128  0.2212 -0.1974
16561W        W33408  14.981   8.422  11.038 -0.0273 -0.0725  0.0987
16562W        W33409  14.704  10.200  11.572  0.1337  0.2114 -0.0404
16563W        W33410  10.273   2.108   4.270 -0.1019 -0.0502  0.1160
16564W        W33411  15.969   1.371  11.486  0.1346  0.2707  0.0078
16565W        W33412   6.370   6.903   0.878  0.0467  0.1911  0.0144
16566W        W33413   8.336  17.353  11.691  0.0184 -0.1622 -0.0319
16567W        W33414   3.735   6.758  14.889  0.1266  0.2395 -0.0134
16568W        W33415  14.175  12.531   1.589 -0.1545  0.4432  0.1671
16569W        W33416  12.682   9.854  13.661 -0.1159 -0.3725  0.3286
16570W        W33417  13.595  10.330  14.693  0.1180 -0.0011  0.0697
16571W        W33418   3.755  18.331   0.692  0.0711 -0.2525  0.0836
16572W        W33419  17.288   8.134  16.102 -0.4394  0.3552 -0.2939
16573W        W33420   4.309  11.806  12.196  0.0959  0.1206 -0.1212
16574W        W33421  13.607  14.196  13.071 -0.1145  0.0323  0.2291
16575W        W33422  18.013  17.882  15.413  0.1603  0.0267 -0.1240
16576W        W33423   3.136   9.494  14.896 -0.2883  0.0653  0.1926
16577W        W33424   2.554   1.753  16.018  0.1614  0.1174  0.2453
16578W        W33425   6.429  13.506  12.974 -0.0861  0.3687 -0.2088
16579W        W33426   8.683  11.294  14.935 -0.0245 -0.2795 -0.1401
16580W        W33427   2.596   5.649   4.918 -0.3126 -0.3163 -0.2430
16581W        W33428   3.943  15.675   2.728  0.3087 -0.1824 -0.0180
16582W        W33429  16.259   5.580  12.275  0.0529 -0.1502  0.0868
16583W        W33430   9.629   3.906  12.451 -0.1335 -0.0488 -0.3068
16584W        W33431  13.336   8.903   4.134  0.0930  0.1182  0.1232
16585W        W33432   4.165  11.123  11.448 -0.0713  0.2673 -0.0677
16586W        W33433  11.166  16.657   4.547 -0.1502  0.0522 -0.0184
16587W        W33434  11.468   5.554  12.145 -0.3595 -0.2747 -0.0401
16588W        W33435   4.433   3.632  16.004 -0.0746 -0.1810  0.0656
16589W        W33436   8.033   6.847  14.049  0.0027  0.2807  0.1532
16590W        W33437   9.509  10.031  13.495 -0.2719  0.2875 -0.1704
16591W        W33438   6.924  14.711  14.174 -0.0842  0.2581  0.2475
16592W        W33439   4.580   2.984   3.973 -0.0201 -0.0931 -0.1649
16593W        W33440   2.616   4.869   2.954  0.0411 -0.5116 -0.3725
16594W        W33441  15.721  10.983  13.937 -0.0010 -0.0758  0.3506
16595W        W33442  10.395   7.768  15.099  0.6447  0.1923 -0.2030
16596W        W33443   8.732  18.218  11.548  0.1552 -0.1262 -0.0523
16597W        W33444  17.463  17.857   3.547 -0.0489  0.1034 -0.2621
16598W        W33445   8.375  11.104  13.188 -0.0750 -0.3370 -0.2452
16599W        W33446   8.932  16.434  15.634 -0.0513 -0.0552 -0.0090
16600W        W33447   7.114  12.070  15.507  0.0013  0.1363  0.1072
16601W        W33448   6.354   5.752   2.200 -0.0495  0.0859 -0.2378
16602W        W33449  12.366  18.288   4.951 -0.2720  0.0488  0.1245
16603W        W33450   3.943  15.176   1.332  0.0085 -0.2229  0.1927
16604W        W33451   3.448   8.590  15.468 -0.3059 -0.1307 -0.3612
16605W        W33452  13.785   3.956   2.159 -0.0509 -0.1439 -0.1323
16606W        W33453   9.981   4.188   2.159 -0.2696  0.2355  0.2281
16607W        W33454  13.344   1.632   5.053 -0.0167  0.0466 -0.2083
16608W        W33455  16.904   4.531   3.899  0.2379  0.0760 -0.1828
16609W        W33456   9.570  16.528  14.557  0.2017 -0.3189  0.1851
16610W        W33457   5.215   6.257  11.534  0.0348 -0.1254  0.1100
16611W        W33458   9.699   1.565   5.004  0.2969 -0.0835 -0.1585
16612W        W33459  15.857   7.386  13.053 -0.3566 -0.1642  0.0569
16613W        W33460   8.904  11.043   3.363  0.0902  0.1186 -0.0943
16614W        W33461  14.527   3.042  10.307  0.2787  0.2673 -0.0809
16615W        W33462   0.494   8.979   2.634  0.2150 -0.2504  0.1209
16616W        W33463  15.574   3.160  11.679 -0.2660  0.0705 -0.1907
16617W        W33464   7.279   6.364   0.913  0.2207 -0.2912  0.1857
16618W        W33465   7.949  14.269   0.536 -0.1542  0.3078  0.1941
16619W        W33466  13.601  13.122  15.810  0.1209 -0.0079  0.1219
16620W        W33467   3.885   5.138   5.511  0.1059 -0.0504 -0.2234
16621W        W33468  15.624  17.556   1.319 -0.1969  0.0510 -0.2471
16622W        W33469  15.984   1.077   5.048 -0.1930 -0.0793 -0.2901
16623W        W33470  11.255   6.123  12.923 -0.1352  0.2865 -0.1092
16624W        W33471   2.418  13.855   2.982 -0.0231 -0.1261 -0.3806
16625W        W33472  16.175   5.593  15.473 -0.0170 -0.0890 -0.1426
16626W        W33473   3.010   0.141  15.022 -0.1274 -0.1565 -0.1956
16627W        W33474   5.582  10.366   4.756 -0.1329 -0.0827  0.0752
16628W        W33475  14.101   8.250  15.067 -0.0388  0.1437 -0.1662
16629W        W33476  12.521   4.661   2.016 -0.0036  0.1257  0.4059
16630W        W33477   1.083   6.087   2.622 -0.1281 -0.0032  0.0247
16631W        W33478   1.428   2.826   0.233  0.0192 -0.0187 -0.1025
16632W        W33479  15.356   4.531  12.651 -0.0816  0.0150  0.2356
16633W        W33480   5.143   3.964   3.638  0.1942 -0.0319  0.1302
16634W        W33481  17.676  11.695   1.491 -0.3560  0.0155 -0.1035
16635W        W33482  17.273  13.288  15.777  0.1517  0.2005 -0.2215
16636W        W33483   6.714   6.554  11.493 -0.1640  0.0027  0.0211
16637W        W33484   1.449   5.762   4.149 -0.2923 -0.1409 -0.1456
16638W        W33485   3.378   0.976  14.053 -0.1902  0.1673 -0.0113
16639W        W33486  13.455   9.551  14.082  0.1618  0.0997 -0.0399
16640W        W33487   3.093   4.897   3.584 -0.4286  0.1674  0.2547
16641W        W33488  10.933  10.605  15.859 -0.0921  0.1621  0.0100
16642W        W33489   0.408   6.784   4.578  0.0967  0.3514 -0.1195
16643W        W33490   7.241  13.073  15.227  0.2393 -0.0181  0.1111
16644W        W33491   5.251  10.707  14.083 -0.0307  0.4080  0.3825
16645W        W33492   8.558  17.256   2.314  0.2249  0.1423  0.0650
16646W        W33493   9.462   6.074   5.817  0.0532  0.4022 -0.3164
16647W        W33494  11.637  17.550   3.467  0.1597  0.2232  0.1753
16648W        W33495  15.674  11.161   1.419  0.2563  0.0362  0.1368
16649W        W33496  13.750   4.746  10.598 -0.0009  0.1041  0.1018
16650W        W33497   3.130   1.970  15.968 -0.2546  0.2194 -0.1283
16651W        W33498   5.116   5.338   5.092 -0.1092  0.1031  0.0834
16652W        W33499   6.381   1.152  12.012 -0.0909  0.1960  0.1987
16653W        W33500   5.697   7.576   3.876  0.1577 -0.0567  0.3395
16654W        W33501  14.267   3.661  15.218 -0.1785 -0.1996 -0.2483
16655W        W33502  10.894  11.502  14.747 -0.1061 -0.0019 -0.0196
16656W        W33503   1.653  13.533  14.935  0.0949  0.0186  0.2919
16657W        W33504  12.261  10.740   3.637 -0.0531  0.0889 -0.0116
16658W        W33505  14.019   5.394   2.461  0.2592 -0.1730 -0.0307
16659W        W33506   5.717  15.862   2.879  0.2087  0.0605 -0.1049
16660W        W33507  11.894  15.444   0.660 -0.0052  0.0317  0.2315
16661W        W33508   7.915   6.788   4.348  0.0689 -0.3020  0.0100
16662W        W33509   6.029  10.347  14.166  0.2438 -0.0574  0.0133
16663W        W33510  14.385   3.514  11.239 -0.2582 -0.1222  0.1864
16664W        W33511   9.084  11.140  12.046  0.0105  0.1516 -0.1041
16665W        W33512  10.713   8.758   2.216  0.1045  0.1462  0.1227
16666W        W33513   7.443   9.749   3.503  0.2752  0.1303  0.4021
16667W        W33514  12.296  16.199   3.823  0.0891  0.2612  0.0633
16668W        W33515   1.569  17.042   2.571 -0.1115 -0.1450  0.0371
16669W        W33516   0.333   3.037   1.087 -0.1701 -0.1282  0.1077
16670W        W33517  12.576   1.034  11.652  0.1615  0.2856 -0.2638
16671W        W33518  16.796   5.047  13.670 -0.0720 -0.3339  0.0599
16672W        W33519   1.708   7.373  12.356 -0.2920 -0.2830 -0.1935
16673W        W33520   3.419   9.715  15.365  0.0058  0.1077  0.0917
16674W        W33521   6.965  10.903  12.135  0.0608  0.0334 -0.4325
16675W        W33522  12.074   5.944  11.440  0.0920 -0.1205  0.0135
16676W        W33523  10.022   3.046  12.129  0.1375  0.0471 -0.1354
16677W        W33524   6.519   4.164  11.927  0.1138  0.0508  0.2071
16678W        W33525  18.015   2.811   2.392  0.0421 -0.0296  0.0140
16679W        W33526   3.159   5.034  11.862  0.2109 -0.1861  0.0796
16680W        W33527   8.396   8.431   1.281  0.0076  0.2178 -0.1626
16681W        W33528   3.177  17.878   5.341  0.0607 -0.0589  0.1696
16682W        W33529   2.384   3.225  16.006  0.2485  0.2417 -0.3921
16683W        W33530  17.186   7.657  12.151 -0.1422 -0.2158  0.0391
16684W        W33531   3.364   4.171  12.184  0.1359  0.2321  0.1103
16685W        W33532  16.995   6.020   0.582  0.1386  0.0750 -0.1640
16686W        W33533  11.807   3.453  10.661  0.3068 -0.0001 -0.1662
16687W        W33534   2.188  18.299  13.409 -0.0533  0.1386  0.2529
16688W        W33535  11.768   2.498   2.179 -0.2180  0.1865 -0.1334
16689W        W33536   0.805   2.533  13.026  0.0627 -0.0316 -0.1600
16690W        W33537   4.804  15.931   5.309 -0.0671  0.2706 -0.0222
16691W        W33538  17.923   5.933  10.320 -0.0136 -0.1073  0.1359
16692W        W33539  13.815   2.209  14.222 -0.3521 -0.2804 -0.3175
16693W        W33540   9.412   7.283  15.142 -0.1965 -0.0521 -0.0909
16694W        W33541  10.349   7.760   3.035 -0.1816  0.0218  0.4768
16695W        W33542  18.274   5.211  15.264  0.0767  0.4138 -0.0716
16696W        W33543  17.521   7.212  14.385 -0.1268 -0.0663  0.0625
16697W        W33544   7.792  10.049  16.105 -0.0014 -0.0681  0.3843
16698W        W33545   7.099   3.843   5.434 -0.1563  0.2039 -0.5006
16699W        W33546   4.320   4.760   0.719  0.1217  0.2055 -0.0091
16700W        W33547  14.932   1.650   2.058 -0.0465 -0.0847  0.1077
16701W        W33548  18.311  10.272   4.468 -0.1735 -0.0445  0.1539
16702W        W33549   2.179  12.000   5.895 -0.0319 -0.0390  0.2335
16703W        W33550   6.672   9.794  13.119  0.0973  0.0261  0.0651
16704W        W33551   3.483  16.767  12.653 -0.1795  0.0035 -0.0486
16705W        W33552  15.807  12.737  12.072  0.2588  0.1221 -0.1369
16706W        W33553   0.210   8.945  12.606  0.4990  0.2367  0.1854
16707W        W33554   4.366   2.244  15.543  0.0471  0.0717 -0.0745
16708W        W33555  16.639   3.177  12.613 -0.0130  0.0343 -0.0564
16709W        W33556   5.380   8.474  14.528 -0.0706  0.1188  0.0235
16710W        W33557   2.378   5.397  12.528  0.0223 -0.0042 -0.0902
16711W        W33558   6.073   0.305   0.698  0.0237 -0.0411  0.1845
16712W        W33559   0.244   0.675   0.221  0.3812 -0.2945  0.0604
16713W        W33560  12.207   4.182   1.292 -0.0895  0.3752 -0.1434
16714W        W33561   1.546   5.096   1.270  0.0307  0.1179 -0.0087
16715W        W33562   0.233   7.069   0.664  0.0307 -0.1509  0.1322
16716W        W33563  17.539   7.258  11.892 -0.2231  0.1227  0.0543
16717W        W33564   7.668  17.556   4.029 -0.1392  0.2668  0.3811
16718W        W33565  17.077  13.831  15.855  0.1343 -0.1838 -0.3706
16719W        W33566  11.753   6.506  14.874 -0.0356  0.2105  0.4096
16720W        W33567   7.298  16.400   3.635 -0.0000  0.2457 -0.1317
16721W        W33568   9.996   8.258   1.459 -0.0362 -0.1456 -0.0828
16722W        W33569  11.236   8.919   2.472 -0.3814 -0.0795 -0.1204
16723W        W33570  17.737  12.388   3.862 -0.0934 -0.2302  0.2537
16724W        W33571   7.409   0.098  11.354  0.1094  0.1440 -0.1326
16725W        W33572  15.371  13.233   1.014 -0.1082 -0.1718  0.0007
16726W        W33573   2.499  10.677   0.064  0.0488 -0.1205  0.3615
16727W        W33574   3.828  12.469   1.165  0.0153 -0.2986 -0.0768
16728W        W33575   1.229  13.764  15.683 -0.1354 -0.4396  0.0413
16729W        W33576  13.493  10.545  15.704 -0.0988  0.2298 -0.2671
16730W        W33577  11.315   5.887  15.360 -0.1609 -0.1454  0.0105
16731W        W33578   9.367  15.666   3.499  0.0255  0.2413  0.0157
16732W        W33579  10.019   2.896   1.392  0.2830 -0.2152 -0.0356
16733W        W33580   6.027  13.245   5.077  0.1613 -0.0033 -0.1981
16734W        W33581   2.864  12.229   2.417 -0.2782  0.0679  0.2601
16735W        W33582   5.005  14.274  11.489 -0.0057 -0.2309 -0.0475
16736W        W33583  16.416   7.757   0.826 -0.2253 -0.3737  0.1757
16737W        W33584   9.917  10.828   2.883  0.1429 -0.3867  0.1353
16738W        W33585  10.229   6.978   1.970 -0.0647 -0.0961 -0.2899
16739W        W33586   1.646   2.338   5.666 -0.0330 -0.2931 -0.1775
16740W        W33587   9.632  14.805   3.711  0.1038 -0.0539 -0.4889
16741W        W33588  13.925   2.937   4.857 -0.0792 -0.0272  0.0628
16742W        W33589  11.138  17.597   3.457 -0.0626  0.1219 -0.0307
16743W        W33590   3.607   0.281  12.971  0.1680 -0.0074  0.1058
16744W        W33591  13.770  10.047   2.789 -0.1019 -0.0498 -0.0536
16745W        W33592   3.911   1.473   3.222 -0.0281  0.0869  0.0429
16746W        W33593  17.561  11.122   3.280 -0.1109 -0.1474  0.2577
16747W        W33594   3.363   4.381   4.018 -0.0551  0.0461  0.1389
16748W        W33595   3.368  16.161   2.067  0.0382 -0.0210 -0.1454
16749W        W33596  16.853   3.995   3.992 -0.2558  0.1592  0.2950
16750W        W33597   1.347   2.594  14.893 -0.1856 -0.0165  0.0824
16751W        W33598   1.429   9.562  11.887 -0.1370  0.0559  0.0641
16752W        W33599  17.602   3.340   1.749  0.2617  0.7032 -0.0298
16753W        W33600   6.367   2.575  16.163  0.1362  0.0248  0.1552
16754W        W33601   7.591  14.273   3.865  0.3944 -0.1222 -0.0421
16755W        W33602  10.093   0.361   5.137  0.0406  0.1135  0.0581
16756W        W33603   0.895   6.191  16.119  0.0707  0.2865 -0.0740
16757W        W33604  12.296   7.239  15.219  0.0805 -0.2669 -0.1849
16758W        W33605   4.495  17.086  11.287  0.0667  0.1619 -0.0439
16759W        W33606   4.270   6.761  14.126  0.1430 -0.0659  0.3513
16760W        W33607   8.740  17.340  13.625  0.2060 -0.0018 -0.3302
16761W        W33608  12.284   5.511  11.199  0.0780 -0.1829  0.1387
16762W        W33609   2.730   2.134  12.984 -0.2708 -0.0803  0.0714
16763W        W33610   8.185  11.789   4.455 -0.0815  0.1120 -0.0904
16764W        W33611  16.257   0.227   3.690  0.1224 -0.0919 -0.1443
16765W        W33612   4.710  11.457   5.507  0.0193  0.1974  0.1158
16766W        W33613  13.776  16.561   3.235  0.1532 -0.2166  0.0387
16767W        W33614  16.948  13.532  15.398 -0.1728 -0.2929 -0.4202
16768W        W33615  11.442   2.691  11.645  0.1797  0.3868  0.0767
16769W        W33616  13.069  12.484   5.020  0.2122  0.0551 -0.0310
16770W        W33617   3.156   0.458  11.762  0.1331 -0.1618  0.4148
16771W        W33618   6.520  18.149   5.415 -0.0021  0.2164 -0.0063
16772W        W33619   0.870  16.622   4.491  0.0537 -0.5517 -0.1540
16773W        W33620  15.576  17.874   0.372 -0.0549 -0.0323  0.3912
16774W        W33621   4.134   2.956   2.505  0.0563  0.1191 -0.1094
16775W        W33622   6.593  12.616   1.716 -0.1195  0.0230 -0.1024
16776W        W33623  11.525   0.460  13.376  0.1412 -0.2573 -0.1830
16777W        W33624  18.132   5.823   1.990 -0.0329  0.2841 -0.0419
16778W        W33625  10.239  13.038   2.452  0.0803  0.2865  0.1995
16779W        W33626   9.334   5.890  13.155  0.3252 -0.2415 -0.3685
16780W        W33627  14.061  12.668  16.147 -0.0087  0.2746  0.2885
16781W        W33628  10.543   9.111   1.322 -0.0260 -0.2491  0.0833
16782W        W33629  14.720  17.047   1.270  0.0773 -0.1253  0.2919
16783W        W33630  17.398   8.870   3.644 -0.4399 -0.1578  0.0315
16784W        W33631   8.463  10.886   4.122 -0.1503 -0.0756  0.2385
16785W        W33632   8.934   2.757   5.359  0.0695  0.0386  0.0849
16786W        W33633   8.276  14.669   1.092  0.1015  0.3690 -0.1420
16787W        W33634   2.039   3.866  11.513 -0.0453  0.0497  0.0327
16788W        W33635  13.425   2.376   4.133 -0.1636 -0.1504  0.1113
16789W        W33636  12.025  15.528   0.142 -0.0952  0.1383  0.3798
16790W        W33637   9.574  12.245   2.147 -0.0450  0.0293  0.1900
16791W        W33638  16.061  16.402   1.376 -0.2393  0.1313  0.1149
16792W        W33639   3.896  14.819  12.745 -0.0112 -0.1102 -0.0109
16793W        W33640   6.650  16.054   4.884 -0.2741  0.0704  0.1381
16794W        W33641  13.628  14.430   2.661  0.0775  0.1991 -0.2428
16795W        W33642   1.205   5.598  15.953 -0.1238 -0.2047  0.2024
16796W        W33643  14.894   9.312   3.773  0.0464  0.0210 -0.1017
16797W        W33644   8.748  17.440   5.167 -0.0937  0.1353 -0.0738
16798W        W33645   4.659  14.284  14.256 -0.0008 -0.1428  0.0985
16799W        W33646   9.861   4.892   4.517  0.2481 -0.1762 -0.0076
16800W        W33647  16.974   7.534   4.500 -0.1464  0.1136 -0.1810
16801W        W33648   8.501   7.350  14.545  0.0364  0.4888 -0.1547
16802W        W33649  17.558  14.829   3.543  0.0902 -0.1219  0.1723
16803W        W33650   7.346  17.291   0.297 -0.0659  0.3592 -0.2493
16804W        W33651   4.388  14.298   4.920 -0.0361 -0.1102  0.0434
16805W        W33652   7.897   9.192  15.819 -0.2242  0.0309  0.5978
16806W        W33653  18.199  12.264  15.638  0.0650 -0.1913  0.1639
16807W        W33654   1.259  10.538   2.437 -0.3394 -0.0297 -0.2194
16808W        W33655  13.183  12.511   4.137 -0.2171 -0.0113  0.0897
16809W        W33656  15.595  17.841   3.313 -0.3090 -0.1705 -0.1188
16810W        W33657   7.243   6.383  11.651 -0.0550  0.4845  0.1426
16811W        W33658  13.701  11.290   1.481 -0.0777  0.1611  0.1942
16812W        W33659   8.702   9.326  12.423  0.0398 -0.4084 -0.0821
16813W        W33660  18.257   1.201   2.470 -0.0265 -0.1524 -0.2447
16814W        W33661  12.838  13.040   0.881  0.1982 -0.0327 -0.0261
16815W        W33662   5.650   9.443   1.158 -0.2254  0.4410  0.1512
16816W        W33663   3.305  15.281  13.844 -0.0089 -0.0905 -0.0369
16817W        W33664  14.826   9.433  15.514 -0.0292 -0.1806 -0.3348
16818W        W33665   9.273  17.324  14.085  0.1126  0.0936 -0.1726
16819W        W33666  17.361   2.783   3.892  0.2464 -0.0795  0.1605
16820W        W33667  18.295  12.583  14.753 -0.1201 -0.0625  0.4160
16821W        W33668  11.955   0.930   2.917 -0.0255 -0.2512  0.0780
16822W        W33669   2.804   0.513   0.608 -0.1558 -0.1697  0.1492
16823W        W33670   6.674  15.084   3.001 -0.2926  0.0077  0.0360
16824W        W33671  15.816  15.626  13.179 -0.1216  0.4714  0.0180
16825W        W33672   5.832  12.479   0.637 -0.0145  0.1613  0.0025
16826W        W33673   6.935   5.547  11.583 -0.1970 -0.1153 -0.2881
16827W        W33674  18.092  13.705  15.520  0.2841 -0.2079  0.2902
16828W        W33675   1.217  10.529   3.563 -0.0539 -0.1545  0.0255
16829W        W33676   0.666   5.307   4.639  0.0872 -0.3074 -0.0545
16830W        W33677  10.364  12.877   5.004  0.0335  0.4002  0.1741
16831W        W33678   2.195  12.635   1.486  0.1359  0.1630 -0.0554
16832W        W33679   3.062  10.165   1.108 -0.1516  0.0092 -0.0349
16833W        W33680   4.069  15.225  13.064  0.0764 -0.0718  0.1022
16834W        W33681   8.160  15.425  14.412 -0.3295  0.0445 -0.2241
16835W        W33682   1.497   9.002  15.017  0.0166 -0.1054 -0.2079
16836W        W33683   7.130   2.960   2.629 -0.1627  0.0407 -0.0472
16837W        W33684   4.714  16.864  13.370  0.1052  0.1394 -0.1171
16838W        W33685  15.448   8.578  14.202 -0.0447  0.1462  0.1157
16839W        W33686   8.222   7.766   5.738 -0.0045 -0.1023 -0.0056
16840W        W33687  17.526   9.563   1.101  0.0488  0.0238  0.4319
16841W        W33688   7.705   4.748  14.431  0.3457 -0.3557  0.2817
16842W        W33689  12.730   1.163   1.446  0.1532 -0.1657 -0.0558
16843W        W33690  17.155  14.556  11.418  0.0928  0.1717 -0.1125
16844W        W33691  16.574   8.061   3.628  0.0982 -0.1724  0.0903
16845W        W33692   0.204  13.812  11.272  0.0697  0.0347  0.0399
16846W        W33693  11.677   5.976   2.191 -0.2709  0.2281 -0.0223
16847W        W33694   4.569   7.486  12.651  0.0233  0.2166 -0.0531
16848W        W33695  12.772   4.099   4.218 -0.1106 -0.3591  0.1266
16849W        W33696  13.948   1.952  12.122 -0.2140 -0.0603 -0.0965
16850W        W33697  15.722  10.079  14.224 -0.0925 -0.1243 -0.1342
16851W        W33698   2.519   7.407  12.817 -0.1224 -0.0558  0.1281
16852W        W33699   1.720  10.446   3.519 -0.2467 -0.3195  0.0859
16853W        W33700   7.213   2.798   3.864  0.2238 -0.0991  0.1682
16854W        W33701   0.790   5.402   0.882  0.0274  0.0533 -0.0384
16855W        W33702   4.399   7.792   3.397 -0.2594 -0.2152  0.1662
16856W        W33703   9.306  17.955  15.430 -0.1570  0.1552 -0.0982
16857W        W33704   9.524   3.302   2.903  0.2610 -0.3082 -0.0626
16858W        W33705   7.293   5.853  10.618 -0.2039 -0.0810  0.1824
16859W        W33706  17.381   5.116  13.743  0.0821 -0.1262  0.3012
16860W        W33707  15.597   6.334   2.512  0.0082 -0.2108  0.0259
16861W        W33708  10.348  11.761   2.286  0.3723 -0.2170 -0.0952
16862W        W33709   1.062  12.776  12.710 -0.1458  0.1221  0.0315
16863W        W33710  17.371  14.056  14.519  0.0134 -0.1315 -0.2296
16864W        W33711  14.947  16.682   3.937 -0.1417  0.0462 -0.4873
16865W        W33712  11.321  12.132   2.716  0.1141 -0.1844 -0.1281
16866W        W33713   8.108   4.191   0.206 -0.2447 -0.0987  0.0354
16867W        W33714   7.596   6.009   0.778  0.0574 -0.0331 -0.1822
16868W        W33715   6.889  10.244  11.526 -0.0114 -0.1999  0.0537
16869W        W33716   7.414  15.220   4.105  0.1910  0.1410 -0.0895
16870W        W33717  15.927  16.871  12.799  0.2182  0.1074 -0.1822
16871W        W33718   0.448   3.008  12.492  0.3412 -0.0861  0.0798
16872W        W33719  14.191  16.460   2.394 -0.1895  0.1051  0.3570
16873W        W33720   8.802   1.306  14.625  0.0318  0.1071  0.1557
16874W        W33721  11.707  12.026  12.731  0.1626 -0.0630 -0.0382
16875W        W33722   7.332  17.729   3.710 -0.0147 -0.2524 -0.0229
16876W        W33723  15.933  12.011   5.457  0.2616 -0.0285  0.0444
16877W        W33724   7.884  15.711  15.793 -0.0259  0.0381  0.4223
16878W        W33725   1.012  10.009   1.461  0.1099  0.6009  0.1324
16879W        W33726  17.206   9.951  14.010 -0.2279  0.1548 -0.2496
16880W        W33727  12.676   5.427  12.990 -0.0633  0.0125  0.3168
16881W        W33728  15.169  16.208   0.869 -0.2918  0.1492  0.2008
16882W        W33729  10.793  15.251   3.575 -0.0573  0.1021  0.0701
16883W        W33730  17.569   9.184   2.289 -0.1756 -0.0477  0.0898
16884W        W33731   8.626   6.673  11.631  0.1387 -0.2014  0.1313
16885W        W33732  11.458   7.371  13.574 -0.1438  0.2436 -0.2206
16886W        W33733   1.146   2.107  12.082 -0.1155  0.1659  0.1606
16887W        W33734  15.815   0.339  13.093  0.0507  0.1440 -0.0266
16888W        W33735  16.788  16.461   3.733  0.0522 -0.1457 -0.1920
16889W        W33736   1.203  16.738  14.046  0.0111 -0.2503  0.3058
16890W        W33737  15.777   5.771  13.445  0.0714 -0.1439  0.1045
16891W        W33738  14.948  15.543   4.280  0.1006 -0.3104  0.0148
16892W        W33739  15.009  13.905   4.609  0.1908 -0.2085  0.0833
16893W        W33740  10.732  16.597   1.618 -0.1054 -0.1754 -0.1230
16894W        W33741   9.797   2.347   1.963 -0.0907  0.1188 -0.0487
16895W        W33742  11.381   4.034  11.882 -0.1373  0.2165  0.0591
16896W        W33743  13.289  12.489   1.477 -0.0526 -0.0609 -0.0172
16897W        W33744   2.468   8.621   4.757  0.0207 -0.1624 -0.1664
16898W        W33745  13.541   4.056  13.920  0.1399  0.6022 -0.0445
16899W        W33746  13.043  14.102  16.176  0.3766 -0.1384 -0.0066
16900W        W33747  16.606   0.189  11.296 -0.2715 -0.1483 -0.0924
16901W        W33748  10.922   2.102  12.815  0.1723  0.0415  0.1573
16902W        W33749   1.408  10.288   1.509  0.1056  0.0301  0.3183
16903W        W33750  15.464   9.366  12.676 -0.1222  0.3267  0.0483
16904W        W33751  17.420   8.433   0.293 -0.1449  0.2212 -0.2597
16905W        W33752  15.784  16.823   1.559 -0.0477  0.1017  0.3544
16906W        W33753   6.567   2.258  14.523 -0.0601 -0.0025  0.2262
16907W        W33754   7.694  10.871   3.723 -0.0133  0.1633  0.0113
16908W        W33755  16.387   6.582  11.871  0.1252 -0.1327  0.0081
16909W        W33756   0.336  12.449   5.330  0.1568 -0.2452  0.0590
16910W        W33757   5.096  15.879  12.413  0.2351 -0.0475 -0.2416
16911W        W33758  13.063   0.356   0.001  0.0739  0.0848  0.0556
16912W        W33759  17.640  15.211  14.750 -0.0022  0.0940 -0.1188
16913W        W33760  10.513  12.328  14.177 -0.0927 -0.0623  0.0025
16914W        W33761  11.449   9.871   3.440  0.1914  0.3007 -0.2320
16915W        W33762   4.961  11.204   4.459  0.0593  0.3606  0.0333
16916W        W33763  16.531   8.651  11.701  0.0237  0.2068  0.0783
16917W        W33764   1.681   0.192   5.071 -0.0044 -0.0998  0.2990
16918W        W33765   9.954   2.570  15.946 -0.1410  0.1319  0.1633
16919W        W33766  12.618  13.404  14.930 -0.0734  0.0951 -0.1016
16920W        W33767  16.684   9.002   0.409 -0.1847  0.1032 -0.1557
16921W        W33768   0.196   5.117   3.803  0.3487  0.2085 -0.0370
16922W        W33769  16.545  12.627  15.273  0.2548 -0.0366  0.3068
16923W        W33770   8.537  14.646  15.326  0.1740  0.0428  0.3675
16924W        W33771  10.134  18.327  13.600 -0.1132  0.0036  0.0499
16925W        W33772   9.327   5.260  14.804 -0.0539 -0.0181 -0.1128
16926W        W33773  15.668   0.749  11.516  0.1425  0.2691  0.1902
16927W        W33774   2.504   5.154   0.822  0.0887  0.2187 -0.0823
16928W        W33775  13.037  10.472  11.751 -0.1539  0.2520  0.3516
16929W        W33776  14.445   6.283  13.361  0.0866  0.0582  0.0169
16930W        W33777   1.608  13.032  13.575  0.0285  0.0177 -0.2806
16931W        W33778   8.100   2.819   0.515  0.1184 -0.1123  0.1374
16932W        W33779   0.306   2.155   2.567 -0.1454  0.0166  0.0834
16933W        W33780   5.209  10.032   4.549  0.1666 -0.0614  0.2795
16934W        W33781  18.233   5.754  11.271 -0.1857  0.1068  0.0135
16935W        W33782  17.150   8.823  13.204 -0.0333  0.0914 -0.2105
16936W        W33783   2.766   1.976  14.273 -0.2889  0.1678 -0.1700
16937W        W33784   6.759   3.340   1.679 -0.1348 -0.2457 -0.0742
16938W        W33785   7.649   0.628  14.017 -0.2613 -0.2094 -0.2820
16939W        W33786   6.081   0.216   2.979  0.0566  0.0063  0.0535
16940W        W33787   0.644  12.630   5.006 -0.2683 -0.3496  0.0174
16941W        W33788   0.693  17.290   0.923 -0.0804 -0.2713 -0.0457
16942W        W33789   1.471  11.139   1.191 -0.1703  0.0164  0.2101
16943W        W33790  15.217   5.584  12.317 -0.0026 -0.0827 -0.3356
16944W        W33791  16.326  18.103  15.710  0.2880 -0.0646  0.2625
16945W        W33792  11.805  14.764   1.304  0.0315  0.1389  0.0072
16946W        W33793   1.389   9.307  11.437 -0.2288  0.1467 -0.3214
16947W        W33794  16.892   6.675  15.403 -0.3224 -0.0990 -0.2003
16948W        W33795   2.484   7.279   4.249  0.1670  0.1172 -0.2566
16949W        W33796  16.892  11.761   2.774 -0.0047 -0.1603  0.2594
16950W        W33797  17.056  13.561   1.659 -0.1166 -0.1453 -0.4494
16951W        W33798   2.481   5.751  14.463 -0.0118 -0.3006  0.1881
16952W        W33799  14.610  13.827   3.903 -0.2951 -0.1102  0.0012
16953W        W33800  17.953  15.690  15.320  0.0209 -0.3867  0.1252
16954W        W33801   1.634  18.059   5.296  0.2484  0.2030  0.1098
16955W        W33802  15.236   9.906   1.627 -0.0769  0.1625  0.1121
16956W        W33803   0.279   9.639   5.623  0.2386  0.1341 -0.1547
16957W        W33804   9.391  10.750  15.819  0.3397 -0.1043 -0.0016
16958W        W33805   7.080  10.957  15.927  0.1632 -0.3543 -0.2861
16959W        W33806  15.550  12.203  13.567 -0.0921 -0.0166  0.4051
16960W        W33807   6.502   3.158   2.563 -0.3988 -0.1027  0.0310
16961W        W33808  11.613   3.242  12.876 -0.2782 -0.2720  0.0926
16962W        W33809  15.396  18.021   2.899 -0.1209 -0.3463 -0.0489
16963W        W33810   2.541   0.845  12.463 -0.0791  0.1323  0.0833
16964W        W33811   2.129  16.151  11.427 -0.0947 -0.0595 -0.0190
16965W        W33812  13.168  12.186  15.904 -0.0488  0.3612  0.0103
16966W        W33813   4.932  14.470  15.145 -0.0977  0.1545  0.1627
16967W        W33814   9.411  10.675   4.678 -0.2215 -0.0336  0.2468
16968W        W33815   3.048   8.866  15.582 -0.1347  0.0671  0.1762
16969W        W33816   9.574   1.839   0.053  0.0129  0.1799  0.1941
16970W        W33817  17.300   5.831   3.826  0.1347  0.2948  0.1718
16971W        W33818   0.326   4.303   1.877 -0.0114 -0.0825  0.0603
16972W        W33819  17.033   8.935  11.011  0.0885  0.0819 -0.4350
16973W        W33820  14.658   8.090   0.603 -0.0720  0.1452  0.0341
16974W        W33821   3.892   7.298  13.366  0.1002  0.2216 -0.0650
16975W        W33822   9.680  10.232  11.311 -0.1224 -0.0209  0.3217
16976W        W33823  16.413   3.757   2.806  0.0908 -0.3420 -0.1180
16977W        W33824  13.968   2.360   5.246  0.1407 -0.2971 -0.2390
16978W        W33825  10.399   8.104   1.192  0.0495 -0.0007 -0.1817
16979W        W33826   7.655  11.810   0.403 -0.2123 -0.1332  0.3035
16980W        W33827  13.842  13.389   3.094 -0.1895  0.1223 -0.1713
16981W        W33828   8.201  14.100  14.396 -0.0410 -0.2320 -0.0490
16982W        W33829   7.570  14.223   0.063 -0.2875  0.0142 -0.2174
16983W        W33830   8.699  17.799  15.558 -0.0599  0.3910 -0.2478
16984W        W33831   9.705  11.181  15.790 -0.0151 -0.0953 -0.1335
16985W        W33832  10.085   0.932   1.733  0.0786 -0.2459 -0.0442
16986W        W33833  11.815   0.357   0.670  0.0182 -0.1543  0.2920
16987W        W33834   2.162  15.511   2.682  0.0828  0.1291 -0.1148
16988W        W33835   2.900   0.706  14.402 -0.1650  0.2606 -0.4188
16989W        W33836  11.888   9.060  11.932 -0.0452  0.2890 -0.2127
16990W        W33837  14.219  12.279   2.451 -0.0698  0.3294 -0.1224
16991W        W33838   7.989   3.225  10.848 -0.0027 -0.1269  0.1051
16992W        W33839  17.175  17.012   5.385  0.0827 -0.0383 -0.0598
16993W        W33840   1.892  11.688   4.258  0.3429 -0.2330  0.1028
16994W        W33841  15.451   8.069   1.098  0.0286  0.1156 -0.1359
16995W        W33842   1.647   9.672   2.422 -0.0024  0.0234 -0.1957
16996W        W33843  11.355   0.739   0.118 -0.1254  0.2795  0.1106
16997W        W33844   8.125   2.591   1.327  0.0346  0.0825  0.5512
16998W        W33845   6.896   5.130   3.891  0.1673  0.0301 -0.0723
16999W        W33846  13.405   3.206  10.829  0.1787 -0.0576 -0.1028
17000W        W33847   0.602   5.508   2.134  0.0487  0.0684  0.1742
17001W        W33848  14.872  10.135   3.119  0.1814 -0.0576 -0.0192
17002W        W33849   7.383   4.815   2.535 -0.0825  0.0527 -0.2325
17003W        W33850  11.806   5.094  15.650  0.1491  0.2939  0.0336
17004W        W33851  16.993  11.723   3.786 -0.1554  0.2017 -0.0087
17005W        W33852   7.377  16.345   0.362  0.1443  0.1993 -0.0421
17006W        W33853   1.989  14.942   5.121 -0.0489  0.0608 -0.2126
17007W        W33854   5.434   8.248   2.103  0.1705  0.1285  0.0495
17008W        W33855   0.992   2.574  12.088 -0.2333 -0.1733 -0.4254
17009W        W33856  16.080  13.240  12.903 -0.1122  0.1615  0.3255
17010W        W33857  15.649   9.614   2.587  0.1461 -0.0517 -0.0535
17011W        W33858  18.283  10.900   1.436 -0.2393 -0.0029  0.2160
17012W        W33859  10.792   7.510  11.552 -0.2050  0.0590 -0.2168
17013W        W33860  14.564   7.390  11.784  0.2086 -0.2739 -0.2298
17014W        W33861  16.307  16.176   5.128 -0.0844 -0.0045  0.3312
17015W        W33862  17.750  16.105   4.131 -0.2726  0.1058  0.1118
17016W        W33863   9.105   5.232   2.415  0.0659  0.2590  0.1748
17017W        W33864   7.043   1.544   1.268  0.0174  0.1654  0.0467
17018W        W33865   4.978   5.290   2.891 -0.4012  0.0452  0.1870
17019W        W33866   6.299  17.440   3.773  0.2530  0.3550 -0.0124
17020W        W33867  16.441  14.027   1.054 -0.2712 -0.0826  0.3643
17021W        W33868  10.824   5.040   3.666  0.0226 -0.0308  0.1940
17022W        W33869   3.720  13.613  11.492 -0.0088 -0.2889  0.2045
17023W        W33870   9.264   9.832  14.603 -0.0617 -0.2800  0.0652
17024W        W33871  11.675   0.037  13.522 -0.0622  0.3022 -0.3907
17025W        W33872  12.526  14.297  15.119  0.0857  0.1633 -0.2738
17026W        W33873   5.109   0.792  15.206 -0.2768 -0.1948  0.1720
17027W        W33874   5.274  15.773   4.772  0.0063 -0.1277  0.1301
17028W        W33875  16.772   1.066  11.478  0.0091  0.0198  0.1525
17029W        W33876   9.109   2.265  15.635  0.2694 -0.0762  0.0893
17030W        W33877   8.119   6.970  12.690  0.1441  0.2085 -0.2451
17031W        W33878   9.838  12.466   1.805  0.1134 -0.1552 -0.0376
17032W        W33879  13.789   6.671   5.007 -0.2407 -0.0221  0.1554
17033W        W33880   5.167  13.175   4.490  0.3241  0.2720 -0.0731
17034W        W33881  10.164   6.730  14.309  0.2710 -0.1246 -0.2403
17035W        W33882   5.160  17.609   3.435  0.1954  0.1715 -0.1498
17036W        W33883  17.496   9.043  12.336  0.1235 -0.1766 -0.0847
17037W        W33884   9.275  14.700   2.125 -0.0598 -0.0877  0.3739
17038W        W33885  17.392   5.661   3.070 -0.0712 -0.2641 -0.0024
17039W        W33886  14.662   1.725   0.546 -0.0722 -0.2566 -0.0350
17040W        W33887   6.053  12.107   3.701  0.1697  0.2013 -0.0705
17041W        W33888   2.264  18.245  15.607  0.0352  0.0738  0.0598
17042W        W33889   7.681  10.695   2.990 -0.0876 -0.3417  0.2039
17043W        W33890  10.222   8.035   1.927  0.1743  0.2062  0.0599
17044W        W33891   5.405   6.081  13.342 -0.1590 -0.1281 -0.0939
17045W        W33892   5.947   6.350  12.207  0.0143 -0.0544  0.2755
17046W        W33893  10.436   4.422  13.842  0.3835 -0.1329  0.0187
17047W        W33894   7.131  13.767  13.753  0.3318  0.1528  0.0911
17048W        W33895  14.257   4.940  15.713  0.2333  0.0863  0.0833
17049W        W33896   2.908   0.484   3.446 -0.0349  0.0056 -0.0209
17050W        W33897   1.239   5.488   1.046 -0.0341  0.2791 -0.0617
17051W        W33898  17.826  12.808  13.770  0.0290  0.0745 -0.0406
17052W        W33899  11.928   3.748  11.104 -0.0727  0.0942 -0.1483
17053W        W33900  16.349  14.011   1.561  0.1674  0.2787 -0.2319
17054W        W33901  12.680   2.638  11.787  0.0318  0.2145 -0.0919
17055W        W33902   0.211   0.803   3.267 -0.2099  0.0024  0.0072
17056W        W33903  10.167  17.664   3.214  0.1996 -0.0256 -0.0175
17057W        W33904  11.895   9.234  12.786 -0.1501  0.0620  0.0679
17058W        W33905  16.728   0.570  15.122  0.3121  0.2666  0.0575
17059W        W33906  11.072   7.477  12.537  0.1563 -0.1571 -0.1258
17060W        W33907  15.650   1.673   3.913  0.1064 -0.1197 -0.3657
17061W        W33908   0.924  13.914   3.349  0.0793 -0.0637 -0.4794
17062W        W33909   7.604   3.216  11.678 -0.0228 -0.0247 -0.3237
17063W        W33910  17.619   4.317   2.681 -0.0767 -0.1838 -0.2749
17064W        W33911   3.525   9.893   5.450 -0.0300  0.1609 -0.0911
17065W        W33912  12.270   0.561   4.305 -0.2616 -0.1433  0.1602
17066W        W33913   2.431   6.359   0.051  0.1300  0.0595 -0.0389
17067W        W33914   2.496  15.998   0.074  0.1032  0.3906  0.0492
17068W        W33915  16.966   5.868   1.059 -0.1751 -0.1310 -0.3560
17069W        W33916  12.898   0.712   1.447 -0.2039  0.1884  0.2192
17070W        W33917   0.013   9.020   4.001  0.2132 -0.1242 -0.1154
17071W        W33918   1.939   5.597  13.725 -0.2885  0.0922 -0.2729
17072W        W33919  12.808   4.199   1.223  0.0266 -0.2377  0.1265
17073W        W33920   9.393   2.174  11.938 -0.1881 -0.1418  0.0736
17074W        W33921  14.673  15.205  13.656  0.1207  0.2617 -0.0028
17075W        W33922  15.838   8.888   5.054  0.0377  0.0875  0.5069
17076W        W33923  12.682  10.935   4.808 -0.0311 -0.0842  0.1330
17077W        W33924   1.876  17.112   0.327 -0.0017  0.0947 -0.0370
17078W        W33925  11.157  10.131  10.917  0.3110 -0.1419 -0.2306
17079W        W33926   9.958   6.391  15.573  0.1012  0.1448 -0.0434
17080W        W33927  11.652  13.419   2.590  0.0467 -0.3173  0.1853
17081W        W33928   4.366  16.891   3.562  0.2450 -0.0401  0.0752
17082W        W33929   5.964  11.207  14.361 -0.1486 -0.0604 -0.0630
17083W        W33930  10.329   9.284   1.805  0.1480 -0.1602  0.1889
17084W        W33931   8.972   9.410   3.234 -0.2313 -0.1044  0.2348
17085W        W33932   1.676  14.357   1.032 -0.2917  0.2314 -0.3067
17086W        W33933   4.824   9.517  15.790 -0.1472  0.2377  0.2209
17087W        W33934  10.503  11.878   3.269 -0.2998 -0.0903  0.0065
17088W        W33935  16.310  15.590  15.347  0.3296 -0.4210  0.0762
17089W        W33936   6.241  14.957   0.562 -0.1919  0.0489  0.0055
17090W        W33937  12.561  10.826   0.740  0.0848  0.1865 -0.2781
17091W        W33938   8.095   1.449  15.394 -0.2332 -0.2951  0.0337
17092W        W33939   6.465  17.955   3.952  0.3919  0.1274  0.1407
17093W        W33940   9.194   8.959  10.500  0.2406 -0.0399  0.0982
17094W        W33941   7.204  14.785  10.597 -0.1516 -0.0694 -0.1860
17095W        W33942  10.654   1.015  15.501  0.1432  0.0302 -0.3525
17096W        W33943   2.362   1.797   0.511  0.0717 -0.0531  0.3936
17097W        W33944  12.221  13.870  12.505  0.1139  0.3269 -0.1756
17098W        W33945  14.881  12.928  12.598  0.1880  0.0679  0.0884
17099W        W33946  14.149   5.527   4.623 -0.2684 -0.0693 -0.0602
17100W        W33947  14.107  17.792   2.103 -0.4670 -0.0065  0.0077
17101W        W33948   5.221  16.234   5.559 -0.2537 -0.1523  0.0574
17102W        W33949   3.438   7.637   5.209  0.1446  0.1068  0.1446
17103W        W33950  10.239   3.292   2.188  0.2943  0.0257 -0.1760
17104W        W33951  14.074   9.128   2.017 -0.0306  0.0425 -0.0227
17105W        W33952  11.907  13.455   4.375 -0.0282  0.0814 -0.2882
17106W        W33953  11.918  14.806  15.983 -0.1941 -0.1319  0.1218
17107W        W33954  17.755  16.196   1.931 -0.0314  0.1802 -0.0284
17108W        W33955   7.457  13.078   0.817 -0.2210 -0.1948 -0.0645
17109W        W33956   6.850  17.388   2.593  0.0016  0.0704  0.0693
17110W        W33957  13.253  12.888   1.758 -0.2901 -0.6285  0.0072
17111W        W33958  17.431  17.017  15.469 -0.0725 -0.1824 -0.0577
17112W        W33959   5.032  18.014  14.631 -0.0285  0.0404 -0.2515
17113W        W33960   2.900   9.805  14.167 -0.2411  0.2436  0.0871
17114W        W33961   0.047  10.071   0.187 -0.3160 -0.2056 -0.2367
17115W        W33962  10.150   5.314  10.941  0.1309  0.1890 -0.0379
17116W        W33963  11.813  16.104   3.939  0.0916 -0.1732 -0.2686
17117W        W33964   5.586  13.862   0.416  0.1177  0.2207 -0.0322
17118W        W33965   2.392  16.643   1.184  0.1154  0.0321  0.0702
17119W        W33966  16.600   8.286   2.268  0.3757  0.1808 -0.0583
17120W        W33967  10.720   0.853   2.828  0.0389  0.0619  0.0379
17121W        W33968   6.775   4.626   5.385  0.1057 -0.0013  0.1949
17122W        W33969   2.948   6.637   4.462 -0.0846  0.0309  0.0976
17123W        W33970  13.686   1.183   3.899  0.0176 -0.2699  0.2150
17124W        W33971   0.558   7.661   1.521  0.1758  0.1182 -0.2986
17125W        W33972   4.065  13.034   5.146 -0.1990  0.1681  0.0530
17126W        W33973  14.672   7.898  11.736  0.1054 -0.0134  0.0051
17127W        W33974   0.582   5.127   4.139 -0.0873 -0.3093 -0.1800
17128W        W33975   6.982   1.396  10.881  0.1560 -0.1538  0.0583
17129W        W33976  17.217   0.771   1.219 -0.2039  0.0465  0.1996
17130W        W33977  13.906  16.903  14.981  0.2677  0.4426  0.0969
17131W        W33978  14.241   9.137   1.521 -0.0835 -0.1911  0.1220
17132W        W33979   7.135   3.372  11.524 -0.1459  0.0527  0.1689
17133W        W33980   8.598  18.093  11.982 -0.2716  0.1535  0.0589
17134W        W33981   5.623  18.199  11.981 -0.0582  0.0080 -0.1550
17135W        W33982  18.226   8.670  13.916 -0.0597  0.0161  0.2673
17136W        W33983  16.778  12.639  15.832  0.0057 -0.0579 -0.1476
17137W        W33984  15.447   2.560   3.856 -0.1347 -0.3595 -0.0360
17138W        W33985  16.201   6.137   1.118  0.0690 -0.1238 -0.0341
17139W        W33986   6.314   5.684   2.758  0.0193  0.2405 -0.0610
17140W        W33987  16.338  16.755  15.960  0.0765  0.0262 -0.0894
17141W        W33988   5.202   2.130   4.059  0.0300 -0.0495  0.0281
17142W        W33989  16.551   8.807   3.025 -0.1495  0.0449  0.0122
17143W        W33990   9.711   9.948   4.133 -0.0442  0.0973  0.1585
17144W        W33991  17.637   1.175  13.140  0.0985  0.1042 -0.1610
17145W        W33992   7.290   2.969  11.980  0.0587 -0.3060  0.1679
17146W        W33993  11.586  13.085   0.849 -0.1213  0.2115  0.0917
17147W        W33994   1.500   9.483   1.915 -0.1907 -0.1877 -0.0363
17148W        W33995  13.042   8.465   1.707 -0.2819  0.0471  0.3053
17149W        W33996   2.689   1.663  12.754  0.0894  0.1001 -0.0428
17150W        W33997   7.659   0.335   3.824 -0.0171  0.1658  0.1266
17151W        W33998  15.237  16.050   2.450 -0.1061  0.1117  0.2929
17152W        W33999   9.992  12.781   1.050  0.1090  0.0045  0.2358
17153W        W34000  14.640   5.718   3.085  0.3700  0.3508  0.0115
17154W        W34001   7.589   7.686  13.686  0.1182 -0.1221 -0.0091
17155W        W34002   8.022  10.346   5.894 -0.1487 -0.0992 -0.1253
17156W        W34003  11.049   3.679  15.429  0.0380 -0.1461 -0.0299
17157W        W34004  11.632   2.872   3.183  0.2571 -0.0637 -0.0123
17158W        W34005   7.677   1.384  12.185 -0.0780  0.0903 -0.4031
17159W        W34006   7.393  17.884   1.814 -0.0075 -0.0726  0.1359
17160W        W34007   2.738   5.414   5.337 -0.1871  0.0332  0.1716
17161W        W34008  10.726   6.723  14.114 -0.0903  0.1168 -0.1512
17162W        W34009  10.617  17.921   1.456  0.1136 -0.3005 -0.1938
17163W        W34010   3.561   7.949  12.635 -0.0462 -0.0224  0.2356
17164W        W34011  12.570  17.094   1.905  0.1752 -0.0166 -0.0765
17165W        W34012   5.495   3.445   3.755 -0.0941 -0.0142 -0.0914
17166W        W34013  11.885   4.373  10.388  0.0318  0.1786  0.2385
17167W        W34014   2.019   2.675   3.237  0.0995 -0.0935 -0.4948
17168W        W34015  16.622   6.234   4.221  0.1232  0.1404  0.0116
17169W        W34016   1.280  17.396  13.638  0.3087  0.2951  0.0938
17170W        W34017  10.766  14.355   1.552  0.1752 -0.0935 -0.2633
17171W        W34018  11.499   2.969   0.234  0.0913 -0.0466  0.0367
17172W        W34019  15.726   2.247   0.662  0.1909  0.2627  0.1643
17173W        W34020   8.747   8.344   5.568  0.1772  0.0325  0.3055
17174W        W34021   4.195  14.951  14.825 -0.0563 -0.3277 -0.2370
17175W        W34022  13.616   4.922   3.488 -0.4286 -0.1984  0.0696
17176W        W34023   9.110  15.787   4.688 -0.0519  0.1545 -0.1361
17177W        W34024   3.806   3.333  12.802 -0.3097  0.4030 -0.0135
17178W        W34025   6.504  10.814  14.143 -0.3140 -0.1928  0.3097
17179W        W34026   3.534   4.880   5.193 -0.0309  0.0780  0.0524
17180W        W34027   7.557   9.373   0.485  0.0961  0.0317 -0.1657
17181W        W34028   2.017  10.568  13.579 -0.0513  0.1788 -0.4091
17182W        W34029  15.669  16.250  14.638  0.1173 -0.2569  0.3246
17183W        W34030   1.962   7.082   4.253  0.0251 -0.0907 -0.0499
17184W        W34031  16.259   4.825   0.690  0.4347 -0.1541 -0.1734
17185W        W34032  14.185   3.029   3.280 -0.2624 -0.1707  0.3653
17186W        W34033  14.704  10.114   0.163  0.0202  0.2582 -0.0951
17187W        W34034  11.081  13.812  15.806 -0.2654  0.3697  0.1391
17188W        W34035  12.412  17.597   2.777 -0.2011  0.2411  0.2803
17189W        W34036  17.303   3.124   1.365  0.2118  0.2131  0.1070
17190W        W34037   7.427   0.219  15.860 -0.0891  0.0485 -0.0600
17191W        W34038   8.872   1.773   0.733  0.0733 -0.1253  0.1678
17192W        W34039   0.139   5.943   3.373  0.0483 -0.0220  0.1975
17193W        W34040  17.819   4.575   3.422 -0.0038  0.1645  0.2210
17194W        W34041  12.071  17.190   4.455 -0.0651  0.1472 -0.1939
17195W        W34042  10.464  17.179   0.090 -0.0763  0.0850 -0.1512
17196W        W34043   9.973  13.064   4.622  0.0895 -0.0916 -0.0741
17197W        W34044  13.356   4.508   4.437 -0.2726  0.0550 -0.1008
17198W        W34045  11.586   8.888   1.198 -0.3442 -0.1257 -0.1454
17199W        W34046  15.655  14.871   2.849 -0.0046  0.0275  0.0508
17200W        W34047  13.483  11.777  14.941 -0.4004 -0.0279 -0.0569
17201W        W34048   7.852   4.419  12.631 -0.1677 -0.1019  0.1286
17202W        W34049  15.261   4.649   5.072 -0.3649 -0.0572 -0.1259
17203W        W34050  17.311  16.620  16.174 -0.0619  0.2576 -0.0521
17204W        W34051  12.924  10.423   2.560  0.0133 -0.0556  0.0276
17205W        W34052  15.845  15.502   0.155 -0.0774  0.1710  0.0025
17206W        W34053  11.601   7.879   0.325  0.1018 -0.1156  0.0916
17207W        W34054   1.400   2.308  15.675  0.0463 -0.1459  0.2935
17208W        W34055  13.272  16.948   4.000  0.0667 -0.2893 -0.2481
17209W        W34056  10.815   2.168   4.353 -0.0228 -0.0807 -0.3721
17210W        W34057  16.329   2.237   5.096  0.3137 -0.0171  0.0822
17211W        W34058   0.006   3.986  12.746 -0.0250 -0.4920  0.4473
17212W        W34059   2.352   1.298  12.680  0.1174  0.1288 -0.1767
17213W        W34060  11.063  14.765  13.794 -0.3970 -0.1888  0.0248
17214W        W34061  16.485   3.383   1.817  0.3655 -0.0415 -0.1934
17215W        W34062  14.163   5.061  10.591  0.1461  0.0002 -0.3643
17216W        W34063  16.027  12.563   2.669 -0.2357  0.5407 -0.0253
17217W        W34064  13.680   1.909   2.522  0.0693  0.1230  0.1066
17218W        W34065  14.198   7.779   1.805 -0.3006  0.1579  0.0771
17219W        W34066   4.673  13.321  14.130  0.1644  0.1173 -0.0732
17220W        W34067   7.650  10.600  15.579 -0.0407  0.1483  0.2156
17221W        W34068  16.019  14.249   1.204 -0.0168  0.3536  0.0902
17222W        W34069   3.989  11.075  15.379  0.0896 -0.0797  0.0061
17223W        W34070  13.868  13.164  15.376  0.1211 -0.0259 -0.1538
17224W        W34071   2.274   0.122   1.413  0.1302  0.0105 -0.0753
17225W        W34072  13.292   1.196   4.766  0.1251  0.1382 -0.1228
17226W        W34073   7.479  10.621  16.035 -0.0936  0.1034  0.1277
17227W        W34074   4.042   2.030   3.071 -0.0857  0.0557 -0.1612
17228W        W34075  16.907   9.713  12.136 -0.0899 -0.0350  0.1179
17229W        W34076   7.337  12.505   5.514 -0.3000  0.1961 -0.2168
17230W        W34077   9.002  15.490   2.654 -0.1914 -0.0708  0.5057
17231W        W34078  13.086   3.487   2.694  0.0707  0.0290 -0.4552
17232W        W34079   0.799   2.188   2.347 -0.1008 -0.0745 -0.1315
17233W        W34080   6.693   9.667  15.366 -0.0484  0.0191  0.0371
17234W        W34081   6.477   5.121  15.014  0.1529  0.1711 -0.1086
17235W        W34082   2.713   0.476  12.755  0.1001  0.3016  0.2157
17236W        W34083  11.467   1.036   4.301 -0.0467  0.2439 -0.1853
17237W        W34084   1.770  11.705  15.389  0.1826 -0.1715  0.0609
17238W        W34085   0.712   7.386  12.169  0.1931 -0.1399 -0.1703
17239W        W34086  11.596   7.250   5.146 -0.2277 -0.0798 -0.1697
17240W        W34087  14.230   9.212  16.142  0.1000 -0.0032  0.2949
17241W        W34088   1.171  12.394  14.704 -0.2426 -0.4781  0.0137
17242W        W34089  12.688  15.922   3.936  0.2110  0.0005  0.1089
17243W        W34090   3.038   4.138   1.906 -0.1195 -0.1778 -0.1366
17244W        W34091   9.743   5.388   5.065  0.1547 -0.2853  0.3695
17245W        W34092  17.696   4.774   4.813 -0.0184  0.0830 -0.2574
17246W        W34093  11.142   3.216   4.000  0.0212  0.1050 -0.2576
17247W        W34094  14.035   7.295   3.536 -0.1843 -0.0636  0.3176
17248W        W34095  18.178  11.496  14.162 -0.0186 -0.0326  0.0808
17249W        W34096  11.826   1.105  14.420 -0.0812  0.4784  0.1739
17250W        W34097  13.280   0.402  15.290 -0.3056  0.1886 -0.0691
17251W        W34098   9.159   5.010   1.165 -0.3229 -0.0974 -0.0027
17252W        W34099   0.288   2.045   5.095  0.2854 -0.0953  0.0466
17253W        W34100   7.809   0.147   4.640 -0.1804 -0.0934  0.0282
17254W        W34101   7.811  18.242  12.073 -0.2970  0.1493  0.0289
17255W        W34102   0.451   4.616   4.286  0.0888  0.5951 -0.2451
17256W        W34103  17.690  14.968  13.326  0.0857  0.0701  0.0966
17257W        W34104   5.500  13.547  15.769  0.0260 -0.0577  0.1425
17258W        W34105   4.607   7.642  14.903  0.0478 -0.3210  0.1338
17259W        W34106  11.557   1.035   3.809  0.1313 -0.0317  0.1322
17260W        W34107   8.692  17.846  14.611  0.1547 -0.0359  0.3159
17261W        W34108   9.465  14.315   3.747  0.1010  0.3063 -0.1871
17262W        W34109  15.323  17.884   1.640 -0.3163  0.0367 -0.0266
17263W        W34110  15.705   6.217  15.301 -0.4576  0.0403  0.1978
17264W        W34111   4.072  11.914   3.906  0.0041  0.1517 -0.0231
17265W        W34112   5.212   5.729   1.905 -0.1770 -0.1503 -0.1194
17266W        W34113   6.502  13.015   5.007 -0.0324 -0.0086 -0.0195
17267W        W34114   4.437  17.802  11.979 -0.1238  0.0328 -0.3921
17268W        W34115  16.797  14.702   0.211 -0.1306  0.2162  0.0101
17269W        W34116   0.731   6.371   0.605  0.1682 -0.0778 -0.1230
17270W        W34117   7.901   7.281   6.098  0.1618  0.0436  0.0357
17271W        W34118   1.292   3.102  12.686 -0.0248  0.1080  0.1958
17272W        W34119   1.617  12.520  14.912 -0.1501 -0.1684 -0.0517
17273W        W34120   8.921  13.557  14.215 -0.2232 -0.0379 -0.0454
17274W        W34121   9.826   0.937  12.759 -0.0038 -0.0619 -0.0475
17275W        W34122  10.602  18.170  13.854 -0.3731 -0.2981 -0.0466
17276W        W34123   4.258  15.301  11.600  0.1025 -0.2719 -0.0351
17277W        W34124  10.867   2.960  14.025  0.1046  0.1857 -0.0923
17278W        W34125  10.419  15.620   5.185  0.1171 -0.1318 -0.1218
17279W        W34126   0.111  13.688  14.818  0.0461  0.2128  0.1384
17280W        W34127  16.223   4.203  12.953  0.0611 -0.0036 -0.0155
17281W        W34128   9.776  10.668  12.175 -0.0331 -0.0182 -0.5032
17282W        W34129  14.861   1.559   1.059  0.0989  0.1803  0.1348
17283W        W34130   3.763   9.148   1.610 -0.2715  0.1767  0.1823
17284W        W34131  15.961   8.046  11.330  0.0595  0.1255  0.1384
17285W        W34132   0.564  12.192   0.890 -0.0584 -0.0483 -0.3672
17286W        W34133  10.318  17.134  13.248 -0.2782  0.0578 -0.0618
17287W        W34134  10.221  10.091   3.176 -0.1284 -0.0186  0.0207
17288W        W34135  13.292   4.273   2.121  0.0187  0.0220 -0.3243
17289W        W34136   5.189   2.552  13.285  0.0262 -0.2724  0.2099
17290W        W34137  15.325   5.108  14.988 -0.2282  0.3329  0.1326
17291W        W34138  10.667  16.102   3.797  0.2165 -0.0136  0.1449
17292W        W34139  15.138   9.856   0.064 -0.0123 -0.3253  0.0927
17293W        W34140  11.974   8.088  14.023  0.1917  0.0877 -0.1096
17294W        W34141  15.773  14.598   1.728 -0.1531 -0.1508 -0.1379
17295W        W34142  17.728   9.215  14.360 -0.1544 -0.1071  0.3763
17296W        W34143   6.337  15.515   5.556 -0.0248  0.3780 -0.1725
17297W        W34144   8.941  14.508   5.173  0.0133 -0.1160 -0.1066
17298W        W34145  13.018   0.873  13.936 -0.0803 -0.1704 -0.3115
17299W        W34146  16.088   7.545  14.226 -0.1491 -0.1669  0.1082
17300W        W34147   6.874  16.625  12.259  0.0176  0.2151  0.2126
17301W        W34148   9.990   2.120   3.840  0.0576 -0.1926 -0.3138
17302W        W34149   9.995   8.655   4.752 -0.0304  0.1368 -0.2038
17303W        W34150   4.255   3.615  13.082 -0.0523 -0.0235 -0.1778
17304W        W34151   9.856  14.320   2.794  0.0067 -0.0896  0.2522
17305W        W34152   9.287   2.462   3.494  0.2016  0.0411  0.2323
17306W        W34153   9.518  16.009  14.577 -0.3630  0.2172  0.0460
17307W        W34154   7.369  17.338  12.147  0.2155  0.0722 -0.0397
17308W        W34155  15.588  16.139   0.604 -0.0047  0.4356 -0.0266
17309W        W34156   0.560   0.386  14.981  0.1136  0.3157 -0.0639
17310W        W34157  15.302  12.121  11.229 -0.3367  0.1375  0.2124
17311W        W34158   8.934   1.948  14.003 -0.0963 -0.0251 -0.0465
17312W        W34159   5.851  10.480  15.784 -0.1058 -0.1070 -0.0810
17313W        W34160   9.651  11.948   0.009  0.0071  0.1119  0.2059
17314W        W34161  17.775  10.089  15.563  0.0591 -0.0043  0.0210
17315W        W34162   6.353  15.330   2.663  0.1763  0.2004  0.1579
17316W        W34163   9.482   2.681   2.121 -0.0079  0.1467  0.2194
17317W        W34164   3.941   6.150  11.436  0.0651 -0.0360 -0.2217
17318W        W34165   2.554   7.497   0.147  0.0326 -0.3605 -0.2863
17319W        W34166  14.880  12.621  13.929  0.1693 -0.0428 -0.0409
17320W        W34167   0.103  14.394  11.260 -0.2442 -0.2366 -0.1341
17321W        W34168   5.258   3.205   4.153  0.0529  0.0449  0.1197
17322W        W34169   6.780  12.874   2.829  0.0015 -0.0797 -0.4214
17323W        W34170   5.842   0.161   5.313 -0.0711  0.0751  0.3927
17324W        W34171  10.086  17.958   4.724  0.1258 -0.2328  0.1446
17325W        W34172   7.699   3.019   3.943  0.1135  0.0823 -0.0700
17326W        W34173  14.731   2.160  13.995 -0.1767  0.1271 -0.1140
17327W        W34174   8.286   4.351   0.711  0.3424 -0.1535  0.2647
17328W        W34175   8.745  18.270  14.223  0.0815  0.0606 -0.1161
17329W        W34176   6.019  16.290   0.763  0.0008 -0.2231 -0.3181
17330W        W34177  14.053  17.050  15.484 -0.0571  0.0820 -0.0457
17331W        W34178  13.498  10.161   4.530  0.1295 -0.1525  0.0389
17332W        W34179   3.742   3.283  11.894  0.3868  0.0179  0.3718
17333W        W34180  17.131   7.539   3.964 -0.0689  0.0068  0.4310
17334W        W34181   4.372  14.452  12.646 -0.2457 -0.0596  0.0142
17335W        W34182  16.014   0.230  10.055  0.2344  0.0173  0.0379
17336W        W34183   0.911   4.790  13.871 -0.1425  0.1969  0.2572
17337W        W34184  17.602  10.263  14.237 -0.0957  0.0988  0.0564
17338W        W34185   0.368  12.371   2.201  0.0345 -0.0332  0.0294
17339W        W34186   5.406   0.831  12.014 -0.4382  0.2353  0.0287
17340W        W34187  13.419  16.625   2.806  0.0579  0.0358  0.3744
17341W        W34188  10.025  16.555  13.339 -0.0043 -0.1975  0.3779
17342W        W34189  17.300   8.680   0.863 -0.1490 -0.1420  0.2219
17343W        W34190   7.819   7.500   0.367 -0.1049  0.0495  0.2078
17344W        W34191   7.325  13.121   2.856  0.1282  0.0138  0.0929
17345W        W34192   7.852   8.811   5.110 -0.1561  0.4135  0.0101
17346W        W34193  16.599  17.256  13.097 -0.1389  0.0805 -0.0609
17347W        W34194   5.227  13.672   5.504 -0.0541 -0.1767  0.1759
17348W        W34195   4.640  14.280  13.408 -0.0665 -0.1810 -0.1065
17349W        W34196  12.639   5.491   2.390  0.0528 -0.0945  0.0851
17350W        W34197  16.088   4.925   3.592  0.4089  0.1691  0.0421
17351W        W34198   5.724  15.603   3.854  0.1894  0.0258 -0.2686
17352W        W34199   7.155   0.622  12.196  0.1226  0.2058 -0.2184
17353W        W34200   5.342  11.896   2.583  0.1026 -0.1278  0.0446
17354W        W34201   3.252   7.592  15.180  0.1815  0.1800  0.0532
17355W        W34202   3.869  11.350   0.077 -0.0061 -0.1616 -0.1814
17356W        W34203   9.150   4.318   5.484 -0.0181 -0.0372  0.0678
17357W        W34204   7.363   6.432   0.369  0.0969 -0.2709  0.1657
17358W        W34205  17.197   1.585  15.799  0.1203  0.1087  0.0942
17359W        W34206  13.841  13.826  10.944 -0.0131  0.1827 -0.2617
17360W        W34207   5.314  12.613  12.340 -0.0742  0.3492 -0.1323
17361W        W34208   0.377  11.881   4.718  0.2135 -0.0987 -0.2037
17362W        W34209  14.272   3.713  14.744  0.1866 -0.0963  0.1326
17363W        W34210   5.049   0.447  11.772 -0.0208 -0.1572  0.2767
17364W        W34211  16.901  10.697  14.583  0.0034 -0.2947 -0.3320
17365W        W34212  16.090  11.961   3.448  0.2455 -0.1425  0.0221
17366W        W34213  15.264  12.100   5.353 -0.0929 -0.0627 -0.1061
17367W        W34214  18.183   1.561   2.882 -0.1550 -0.3361  0.1096
17368W        W34215   9.896   8.988   2.413  0.0367  0.0668  0.0371
17369W        W34216  11.125   5.962   4.943  0.1316  0.0814  0.2505
17370W        W34217  16.966  10.829   0.219  0.3668  0.0238  0.0171
17371W        W34218  16.923   1.616   2.600 -0.1968  0.1022  0.1258
17372W        W34219   2.004  11.904  12.094 -0.1046 -0.0527  0.1706
17373W        W34220   5.337   5.325  12.779 -0.1954 -0.1269 -0.1531
17374W        W34221  18.242  12.560   2.483 -0.0046 -0.0290 -0.0409
17375W        W34222   8.475   9.933  15.446  0.0010 -0.0837  0.0462
17376W        W34223   0.172   0.471  13.644  0.1471 -0.1099 -0.0349
17377W        W34224   3.198   0.429   5.029  0.0160  0.3131  0.1482
17378W        W34225   5.198   5.495  14.060  0.3581  0.0856  0.3720
17379W        W34226  17.366  15.553   4.053  0.1494 -0.1124 -0.2742
17380W        W34227   7.834  14.187  12.057  0.0395  0.0691 -0.0924
17381W        W34228   8.222  12.054   5.971  0.1644 -0.2107  0.1923
17382W        W34229   2.038  13.730  15.286 -0.0190 -0.1918 -0.6450
17383W        W34230  11.422   8.278   1.859  0.1406 -0.4038 -0.4745
17384W        W34231  14.493   6.465   1.774 -0.0311  0.0629  0.2280
17385W        W34232   4.422  13.784   4.740  0.0332 -0.2065  0.0315
17386W        W34233   3.869  11.758   2.519  0.2636  0.1925 -0.1794
17387W        W34234  16.329   0.779   1.087 -0.0141  0.0483  0.1044
17388W        W34235  18.009   9.283   0.042 -0.0958 -0.3823  0.0375
17389W        W34236  10.425   5.611   3.254  0.1576  0.1022  0.0073
17390W        W34237   9.359  11.074  14.364 -0.1581  0.1714  0.1876
17391W        W34238   6.774   8.736   0.289  0.0491  0.0922  0.2146
17392W        W34239   6.266   5.387  15.394 -0.0238  0.1183 -0.0978
17393W        W34240  12.199  15.763  12.610 -0.1210 -0.1992 -0.3509
17394W        W34241  18.131  16.337  13.166 -0.0068  0.2363  0.0793
17395W        W34242  18.292   8.803   5.069  0.1914 -0.1138  0.2596
17396W        W34243   3.827   4.866   2.775  0.0867  0.2688  0.1625
17397W        W34244   6.639  12.419   5.362  0.0089 -0.1721  0.0450
17398W        W34245   5.846   1.719  16.186  0.0947  0.3620  0.2580
17399W        W34246   1.037  11.032   4.467  0.0598 -0.0180  0.1829
17400W        W34247   8.158  15.563   4.759  0.0605 -0.0370 -0.3539
17401W        W34248  16.866   7.875  12.438  0.0026  0.0183 -0.2007
17402W        W34249   6.880  14.018   0.065  0.0875  0.0657  0.1250
17403W        W34250   2.970   4.455   2.730  0.0729 -0.2686  0.1474
17404W        W34251   3.360   8.137  15.809  0.1080 -0.0713  0.1678
17405W        W34252   2.794   3.471   0.714 -0.2617  0.2490 -0.0018
17406W        W34253   4.075  16.499   5.383 -0.2640  0.1094 -0.0685
17407W        W34254  12.526  11.166   0.367  0.0325 -0.1833 -0.0705
17408W        W34255  10.774   7.308  15.754 -0.0361 -0.2919  0.0153
17409W        W34256  15.775   7.431  14.686  0.1088 -0.2351  0.0519
17410W        W34257  11.306   4.558   1.047 -0.0719 -0.2106 -0.3506
17411W        W34258  16.607   0.544  14.236 -0.2327  0.0793 -0.2621
17412W        W34259   4.006   6.671   3.099 -0.1457 -0.0432 -0.3370
17413W        W34260   1.382   9.636   4.563  0.0311 -0.0389 -0.4705
17414W        W34261  15.714  16.067   5.693  0.1117  0.1686 -0.0359
17415W        W34262   2.119   0.104  12.028  0.1687 -0.0184 -0.0789
17416W        W34263  13.012   6.259   2.583 -0.0822  0.0511  0.1636
17417W        W34264   1.452   0.389   2.063  0.3776 -0.1297 -0.2542
17418W        W34265  11.890   8.947  12.418 -0.3284 -0.1226 -0.1071
17419W        W34266   0.680   9.869   5.460 -0.2405  0.1016  0.2035
17420W        W34267   3.564   7.627  13.370 -0.0952 -0.3734 -0.2880
17421W        W34268   6.350   8.588  12.523 -0.0192 -0.2199 -0.2660
17422W        W34269   5.391   6.471  11.098 -0.3734 -0.1394  0.1364
17423W        W34270  14.709   8.988   4.154 -0.0558  0.0045  0.0969
17424W        W34271  10.505   3.757  15.438 -0.2139 -0.1499  0.0260
17425W        W34272   5.833  12.385  15.902  0.1513  0.2893 -0.0216
17426W        W34273  16.327   1.542  15.519  0.3345 -0.0309 -0.0970
17427W        W34274   2.443  18.175   6.119  0.2815 -0.1597 -0.0190
17428W        W34275  10.340   8.278   4.032 -0.0812 -0.0534  0.1071
17429W        W34276   3.532   9.278  15.743 -0.1491  0.0868 -0.0774
17430W        W34277   7.116  13.006  12.635 -0.0498 -0.2127 -0.2495
17431W        W34278  13.470   0.015   3.040  0.0342 -0.1647 -0.1385
17432W        W34279  15.205   7.620   2.577 -0.0633 -0.0427 -0.1871
17433W        W34280  17.545  16.594   1.455  0.1791 -0.0259  0.0433
17434W        W34281  10.868  12.013  14.390  0.2220 -0.2897  0.1553
17435W        W34282   3.487  16.267   4.863 -0.0019 -0.0308  0.1880
17436W        W34283  17.836   0.060   4.626 -0.1362 -0.2551  0.3618
17437W        W34284   8.531   6.161   4.304 -0.1224 -0.1986 -0.1433
17438W        W34285  11.994   9.947   3.673 -0.1457 -0.0574 -0.2972
17439W        W34286  12.526  10.370   1.623  0.1979 -0.1352  0.0362
17440W        W34287  15.141  10.778   5.777 -0.0245  0.2612  0.0860
17441W        W34288   5.079   5.153   0.728 -0.2185 -0.2917 -0.3780
17442W        W34289   2.417  18.304  16.046 -0.0028  0.4976 -0.1275
17443W        W34290   3.902   7.129   1.888 -0.2622  0.1526  0.2905
17444W        W34291  11.787  18.248   0.028 -0.3204 -0.0615 -0.1410
17445W        W34292  13.309   1.629  13.805  0.0874 -0.2192 -0.4776
17446W        W34293  17.753   2.214   0.438 -0.0559 -0.0780  0.0212
17447W        W34294  12.366  14.229  13.791  0.0619  0.1177 -0.5491
17448W        W34295  12.361  11.507  12.236 -0.0135  0.0294 -0.2425
17449W        W34296  14.254  14.466  15.628  0.0275 -0.1046  0.0856
17450W        W34297  16.187   3.780   4.472  0.1322 -0.3757 -0.0530
17451W        W34298   4.700   4.228   3.548  0.0642 -0.0706 -0.0600
17452W        W34299  12.253  11.232   3.767 -0.2211  0.2226  0.2830
17453W        W34300  16.599   9.019  15.435 -0.1512 -0.2844  0.1194
17454W        W34301   2.115   2.082   0.937 -0.2327  0.1044  0.0041
17455W        W34302  16.670  15.142  13.226  0.0418  0.2395 -0.1486
17456W        W34303   2.237   2.243  12.986  0.0311  0.2398  0.0474
17457W        W34304  16.410  14.516  10.997 -0.0078  0.1630  0.1899
17458W        W34305   5.893   3.324  15.948 -0.0890  0.1572 -0.0421
17459W        W34306  11.529   7.297   2.824  0.2163  0.3059 -0.0686
17460W        W34307   1.292  17.884  12.748  0.1101 -0.0032  0.0186
17461W        W34308  17.655   8.386  15.765  0.2697 -0.1277  0.1484
17462W        W34309   5.465  12.548  15.576  0.3318 -0.2955 -0.0271
17463W        W34310   7.667  11.570   2.863 -0.2480 -0.1517  0.1421
17464W        W34311   7.837  12.979  15.731 -0.4144  0.0097  0.1009
17465W        W34312   9.332   4.742  13.018 -0.1650  0.1044 -0.1686
17466W        W34313   6.963  12.807   4.975  0.0526 -0.0679  0.0781
17467W        W34314  16.540   2.389   5.550  0.0868  0.0861  0.0023
17468W        W34315  12.161   5.148   1.805  0.2022 -0.1222  0.0940
17469W        W34316   5.389  11.561  12.762  0.0932  0.1471 -0.0984
17470W        W34317  16.779  16.609   4.559 -0.1549  0.0339 -0.0648
17471W        W34318  10.308   6.898   1.224  0.1513  0.1749  0.1300
17472W        W34319  13.752  14.930   2.533  0.0009 -0.3058  0.0268
17473W        W34320   7.563  16.863   0.108 -0.2378  0.2896 -0.0612
17474W        W34321  11.837   2.176   5.610  0.1105  0.0610 -0.0211
17475W        W34322  18.197   1.052  12.531 -0.1363  0.0111 -0.1816
17476W        W34323   0.840   7.385   6.184  0.2600  0.3395 -0.0672
17477W        W34324   8.251   4.243  12.907 -0.0281 -0.0817 -0.0112
17478W        W34325   9.173   5.111  13.401 -0.1075  0.0730 -0.0591
17479W        W34326  16.428  15.176  14.243 -0.2253  0.0794  0.0383
17480W        W34327  16.260   7.513   1.404 -0.0574  0.2128 -0.2012
17481W        W34328   3.877  11.969   1.233  0.0476  0.1125  0.1293
17482W        W34329   8.504  16.396  15.933  0.0239  0.0536  0.0867
17483W        W34330   2.957  16.085  15.404  0.4517  0.3034  0.0715
17484W        W34331  11.154   8.942   1.966  0.0735  0.3437 -0.0238
17485W        W34332  16.696   6.280  15.719 -0.3077  0.0431 -0.1378
17486W        W34333  11.863  11.210   4.640  0.0053 -0.2991  0.0988
17487W        W34334  14.326   4.252   3.769 -0.0740 -0.1611 -0.1007
17488W        W34335   5.020   7.202   6.148 -0.1509 -0.0208 -0.3769
17489W        W34336  16.236  10.210  14.342 -0.0081  0.0442 -0.1486
17490W        W34337   4.672   4.380   4.317  0.0815 -0.2173 -0.3288
17491W        W34338   5.974   0.936  15.388  0.1778 -0.1933  0.0606
17492W        W34339   7.141  17.166   4.689 -0.3850  0.1281 -0.0317
17493W        W34340   2.813  10.679   2.617 -0.2277 -0.1285 -0.0334
17494W        W34341   4.075   9.825   3.203 -0.1114 -0.1515 -0.0562
17495W        W34342   0.331   7.372   3.688  0.1040  0.2106 -0.0558
17496W        W34343  15.639  11.241   2.729  0.1308  0.0559  0.0167
17497W        W34344  14.533  11.405  15.919  0.2537 -0.1947  0.1923
17498W        W34345   3.551   6.206   3.447  0.4151 -0.2598 -0.1367
17499W        W34346  12.216   8.265   4.085  0.0507  0.1662  0.1129
17500W        W34347   9.861  13.771  15.353  0.2010 -0.1620 -0.0434
17501W        W34348  15.016   2.952   0.842 -0.2131  0.0091 -0.0430
17502W        W34349   1.099   4.167   0.999  0.1204  0.2704 -0.0126
17503W        W34350  12.786  11.473  14.187  0.1651 -0.0845 -0.0890
17504W        W34351  15.650  16.344  15.540 -0.0824  0.3611 -0.0984
17505W        W34352   1.739  14.383   1.920 -0.0140  0.0657 -0.1326
17506W        W34353  10.299   1.988  15.165  0.0127  0.0191  0.2325
17507W        W34354  13.171   4.552  14.096 -0.0732 -0.1939  0.0204
17508W        W34355   7.486   1.030   3.409 -0.1647  0.1427  0.0471
17509W        W34356   1.647   9.921   2.857 -0.3710 -0.2002  0.2667
17510W        W34357  12.043   9.082  14.136 -0.0814  0.1420  0.1808
17511W        W34358  16.858   5.231   4.353  0.0852  0.1262  0.2670
17512W        W34359   0.597   5.309   3.487  0.0308  0.1585 -0.1078
17513W        W34360   0.316  12.521   4.056 -0.0857  0.0313 -0.0607
17514W        W34361  13.630   1.414  12.829  0.2080 -0.0476 -0.1296
17515W        W34362  14.728   9.278  14.485  0.1044 -0.2280  0.1491
17516W        W34363  16.583  14.810   2.708 -0.2979  0.0578 -0.1645
17517W        W34364  13.782   9.483   4.904 -0.0925  0.0779  0.0168
17518W        W34365  13.320  16.792  11.561  0.0149  0.1039  0.0413
17519W        W34366  15.029   4.855   2.466 -0.4956  0.0079  0.0741
17520W        W34367   0.395   5.331  15.007 -0.0006 -0.0157  0.3185
17521W        W34368  17.921  11.937   5.445 -0.0944  0.2461 -0.1729
17522W        W34369  12.520   7.882  14.742 -0.0817 -0.0174 -0.0584
17523W        W34370  16.043   9.786   1.280  0.0574  0.0509 -0.0761
17524W        W34371  13.259   2.452   4.584 -0.1249 -0.2460  0.0689
17525W        W34372  10.218  12.783   0.200  0.1017  0.2352 -0.2469
17526W        W34373  12.869  11.472  11.557 -0.1545 -0.1268  0.3692
17527W        W34374  10.650  12.771  15.924  0.0260 -0.0079 -0.1708
17528W        W34375   7.235   9.504   5.260 -0.2318 -0.1746  0.0464
17529W        W34376  11.083  16.511  12.450 -0.2626  0.0804 -0.2990
17530W        W34377  10.655   6.982   2.574  0.4096 -0.1622  0.2974
17531W        W34378   2.740   3.872  10.874 -0.1880 -0.1643 -0.0984
17532W        W34379  12.294   3.828  13.384 -0.1929  0.1148 -0.2114
17533W        W34380   0.860   0.193   5.358 -0.0495  0.1192 -0.1754
17534W        W34381   4.847  12.317   4.353 -0.0979 -0.0184 -0.2460
17535W        W34382   4.751  13.601   6.196 -0.1830 -0.1601 -0.2217
17536W        W34383  11.233   9.576  12.405  0.2993  0.1116 -0.1699
17537W        W34384   5.873   8.665  11.788  0.0396 -0.0869  0.1120
17538W        W34385  14.796  12.452   1.644 -0.1707 -0.2266 -0.0100
17539W        W34386   6.964  15.751  11.580 -0.0077  0.1050 -0.2997
17540W        W34387   8.382   9.431  15.691 -0.1690 -0.0627  0.1364
17541W        W34388   7.705   6.542   0.742  0.0182 -0.0798 -0.0117
17542W        W34389   7.706  17.745  12.059 -0.2408  0.0392 -0.1121
17543W        W34390   5.721  13.881   4.438  0.0619 -0.2866  0.1404
17544W        W34391  13.772   5.905  11.951 -0.0684 -0.0975 -0.3506
17545W        W34392  15.679  14.362   4.228  0.0342  0.0087  0.1502
17546W        W34393   5.249  14.894  13.950 -0.1832  0.1496 -0.2474
17547W        W34394   1.036   4.157  11.977 -0.1717 -0.1538 -0.2614
17548W        W34395   1.722  17.695  12.738  0.1375  0.1465 -0.0489
17549W        W34396  12.312   5.588   3.262  0.1440  0.2097  0.1804
17550W        W34397   4.306   6.535   4.059  0.1530  0.1502  0.0281
17551W        W34398   9.503  17.616  14.906  0.3057 -0.1516  0.0658
17552W        W34399   9.908  14.691   5.034 -0.0645  0.0141 -0.1412
17553W        W34400   5.683   7.625  14.153  0.0722  0.1052 -0.0060
17554W        W34401  15.788   8.269   4.274 -0.1682  0.0507 -0.0865
17555W        W34402   0.701   3.909   4.665 -0.1464  0.1515 -0.2752
17556W        W34403  15.757   9.106   2.291 -0.0768 -0.1279 -0.0502
17557W        W34404   1.432   7.641   5.881  0.0663  0.0658 -0.2539
17558W        W34405   5.342  14.852  11.974 -0.1933  0.0876 -0.0413
17559W        W34406   1.513   8.326  11.686  0.0297  0.1958  0.1623
17560W        W34407  13.770  13.678   1.962 -0.0155 -0.0945  0.0070
17561W        W34408  15.942   1.130   0.886  0.0537 -0.1574  0.1215
17562W        W34409  10.803  12.449  14.694  0.2217  0.1889 -0.2858
17563W        W34410  12.444   6.217  12.201  0.0699 -0.0177 -0.1193
17564W        W34411   4.544  16.457   0.296 -0.1711  0.0914  0.1443
17565W        W34412   0.637  14.652  14.323 -0.1010  0.1070 -0.0249
17566W        W34413   3.940   6.702  12.495 -0.2117 -0.5195  0.1710
17567W        W34414  16.543  10.663  11.496 -0.0710 -0.1329  0.2218
17568W        W34415   5.792   9.132  14.730  0.1021 -0.1341  0.0569
17569W        W34416   8.328   4.244   1.761  0.1946 -0.1962  0.0448
17570W        W34417  14.911  12.270   0.636 -0.0069 -0.2206  0.2184
17571W        W34418   3.548  16.294  14.097 -0.1549  0.0759  0.3597
17572W        W34419  18.115   8.605   3.870 -0.0852  0.0756  0.0503
17573W        W34420   6.618   1.372   3.003 -0.1816  0.0940 -0.0078
17574W        W34421   2.469   6.914  12.429 -0.1693  0.1111  0.2566
17575W        W34422  11.163  17.611   2.081 -0.0976  0.0619  0.1513
17576W        W34423   5.759   0.548   0.352 -0.0114 -0.0482  0.0703
17577W        W34424   6.060  18.070  11.670 -0.1461  0.4174  0.2432
17578W        W34425  12.958  12.700   4.533  0.2503  0.1838 -0.0423
17579W        W34426   7.327   0.292   4.543  0.0785 -0.0354  0.3512
17580W        W34427  10.592  17.023  13.719  0.0549  0.1659 -0.1663
17581W        W34428   3.739  11.729  13.572 -0.0547 -0.0389  0.0865
17582W        W34429  15.246   9.291  11.576  0.0158  0.1255 -0.1067
17583W        W34430  14.935  12.802  13.059  0.1593  0.1746 -0.2350
17584W        W34431  12.219   5.983   4.389  0.0787 -0.3412 -0.0098
17585W        W34432   6.127   1.412   2.298 -0.0162 -0.2035 -0.0504
17586W        W34433   8.678  14.437  14.378  0.0514  0.1238 -0.0532
17587W        W34434  13.994  16.064  11.842 -0.4491  0.4875 -0.0486
17588W        W34435   0.982   3.314  14.310 -0.0751 -0.3188  0.0786
17589W        W34436   4.316  12.195  11.861  0.1992 -0.1620  0.0611
17590W        W34437  18.152  12.442  10.313 -0.0219 -0.1323  0.4470
17591W        W34438  10.394   9.873   4.965 -0.0415  0.0600  0.0741
17592W        W34439   9.735   6.120  12.841 -0.0580  0.1863  0.1915
17593W        W34440   4.571   9.599   4.867  0.2157  0.1168  0.1544
17594W        W34441  18.260  12.548  13.689 -0.0735  0.1276 -0.1265
17595W        W34442   2.645  13.269  13.548  0.2754 -0.2868  0.1029
17596W        W34443   9.025   5.397   1.962  0.0847  0.3242  0.0159
17597W        W34444  15.845  12.655  13.584 -0.0489 -0.0974 -0.3101
17598W        W34445  14.716   7.725  12.187 -0.0632 -0.2003 -0.2600
17599W        W34446   3.272  14.845   2.613 -0.0341 -0.0562  0.0420
17600W        W34447   3.181   5.709  13.320 -0.2073 -0.0376 -0.2562
17601W        W34448   4.280  14.680  14.270 -0.0286 -0.0413  0.2489
17602W        W34449  13.457  13.865   4.200  0.0455 -0.2768  0.0970
17603W        W34450  16.929   8.378   3.285 -0.0371 -0.0714  0.0404
17604W        W34451   9.978  17.626  14.923 -0.0654 -0.2702 -0.2036
17605W        W34452   6.518  15.083  15.868 -0.0960  0.0090 -0.1502
17606W        W34453  11.242  10.141   4.806  0.0124 -0.1436 -0.2782
17607W        W34454  11.963  16.308  13.557  0.2399  0.1161 -0.0356
17608W        W34455   4.249   6.991   2.261 -0.2815  0.0187  0.0666
17609W        W34456  10.667  13.320   1.308 -0.1461 -0.1970 -0.0308
17610W        W34457   6.389  11.629  15.015  0.1985  0.1332 -0.2174
17611W        W34458  15.672  17.098  14.362  0.1109 -0.0890  0.0269
17612W        W34459   9.787   4.732  12.809 -0.2304 -0.0049 -0.3318
17613W        W34460   1.314   4.007  13.900  0.0423  0.1751  0.0405
17614W        W34461  16.456   7.196  13.376 -0.5394 -0.2546 -0.1430
17615W        W34462   2.379  14.936   4.777  0.1502  0.1416 -0.1193
17616W        W34463  10.812   6.633   4.643 -0.2302  0.2586  0.0803
17617W        W34464   8.188  14.937   5.254  0.4080  0.1927  0.1203
17618W        W34465   8.989   5.716   0.687 -0.2190 -0.2140 -0.0729
17619W        W34466   8.219  13.029  15.346 -0.1463 -0.2510 -0.0409
17620W        W34467   2.319  18.056   2.418  0.0605 -0.1626  0.1317
17621W        W34468   3.523  14.416  13.544 -0.2114  0.4622 -0.1676
17622W        W34469   5.282   6.888   2.225  0.1753 -0.0298 -0.0736
17623W        W34470   1.774   5.005   3.765  0.1222 -0.0817 -0.1956
17624W        W34471   2.505   9.572  15.798  0.0771 -0.1660 -0.0362
17625W        W34472   0.564   3.475  16.100  0.1253 -0.3143  0.0455
17626W        W34473   5.386  14.690   0.401 -0.3161 -0.0066  0.0539
17627W        W34474  14.264   0.807   0.087  0.1189 -0.0422  0.3135
17628W        W34475  12.594  17.274  12.954 -0.1421 -0.0171  0.1902
17629W        W34476  17.094   9.624   3.312  0.1812  0.1157 -0.0097
17630W        W34477   1.860  10.434  15.714 -0.0607  0.2510  0.2870
17631W        W34478  17.499  12.886   5.431  0.0857  0.1872  0.1848
17632W        W34479   9.877   8.381   5.574  0.0468  0.0816  0.1924
17633W        W34480   5.338   1.448   3.095 -0.2132  0.0582  0.0964
17634W        W34481   3.725   6.194   0.863  0.0187  0.3411  0.0095
17635W        W34482   6.511  13.967  13.610 -0.0212  0.0106  0.0118
17636W        W34483   8.702   7.326   0.502  0.0975 -0.1191 -0.0967
17637W        W34484   9.382   1.202  13.666  0.0026  0.2149 -0.1655
17638W        W34485  12.709   5.371   3.483  0.2340  0.3008 -0.0083
17639W        W34486   4.236   0.793   2.505 -0.2176 -0.0369  0.0487
17640W        W34487  14.786   7.553   1.005 -0.1485  0.1992 -0.0417
17641W        W34488   7.690   0.634  16.118  0.0290 -0.1997  0.0951
17642W        W34489  18.042  13.562  14.345  0.0441 -0.3537 -0.2274
17643W        W34490  15.136  13.406   3.179 -0.1968  0.1096 -0.0679
17644W        W34491  11.177  17.690  10.614  0.2444 -0.2639  0.1337
17645W        W34492  17.669  16.113   0.033  0.2740 -0.0832  0.0525
17646W        W34493  10.640   0.357  15.730 -0.0633 -0.3727  0.0070
17647W        W34494   5.680   4.770  12.261 -0.3466  0.2988 -0.1457
17648W        W34495   3.936   7.021   4.079 -0.1452  0.2310 -0.2231
17649W        W34496  10.989  14.603  12.583  0.1192 -0.1150 -0.0633
17650W        W34497  12.049   6.267  13.984  0.2423 -0.2304 -0.3022
17651W        W34498   2.588   9.185   1.250  0.0439  0.0038 -0.0195
17652W        W34499  15.768   6.829   4.297 -0.0973  0.2537  0.2157
17653W        W34500  11.858   1.695   0.850 -0.1802  0.0042  0.3866
17654W        W34501   0.897  10.546   4.335 -0.0276  0.2820 -0.0746
17655W        W34502   0.541   5.312  14.510  0.0536  0.2561 -0.0898
17656W        W34503   7.353  16.007  11.902 -0.2525 -0.0574 -0.2522
17657W        W34504   5.301   6.600  12.666 -0.2378 -0.1546  0.0867
17658W        W34505   0.933  15.423   0.670 -0.1357  0.2546  0.1601
17659W        W34506   9.518   8.684   3.115  0.3167  0.0454  0.0776
17660W        W34507  16.824   4.216  12.629 -0.0513 -0.1383  0.1705
17661W        W34508   0.431  11.465   2.521 -0.0846 -0.0228  0.0843
17662W        W34509   5.888   1.246  12.207 -0.1125 -0.0183 -0.2024
17663W        W34510   7.476   1.381  11.698 -0.2040  0.0563  0.1539
17664W        W34511  17.848  12.960  11.255 -0.0083  0.0660 -0.0213
17665W        W34512   9.583   6.369  10.577  0.1527 -0.0759 -0.1169
17666W        W34513  14.000   9.659   3.769 -0.0399 -0.0363 -0.0270
17667W        W34514  11.242   6.964  12.811  0.2409 -0.0177 -0.2578
17668W        W34515   6.371   8.424  11.996  0.0064  0.0112 -0.2385
17669W        W34516   5.656   7.167  13.287  0.3411 -0.0244 -0.1129
17670W        W34517  16.723  14.871   1.151  0.0515  0.0691 -0.2118
17671W        W34518   7.419   8.679  14.515 -0.0344 -0.1060  0.0199
17672W        W34519  11.236  13.667   1.608  0.0695 -0.0325  0.0857
17673W        W34520  17.942  12.401  12.099  0.0019  0.0359 -0.0731
17674W        W34521   5.874  15.193   2.158  0.0524 -0.0134  0.0765
17675W        W34522   9.021  14.499  11.958 -0.2315 -0.1568  0.2034
17676W        W34523   9.436   1.873  11.404  0.0330 -0.1161 -0.3876
17677W        W34524   5.782  10.191  14.756  0.2690  0.0906  0.0494
17678W        W34525   7.959   9.009   4.022  0.5250 -0.0686 -0.2584
17679W        W34526  14.819  12.878   1.912  0.1283 -0.2878  0.0045
17680W        W34527  14.527  13.454   2.647 -0.0660 -0.0088 -0.0090
17681W        W34528   5.011   5.694   1.356  0.2161  0.2045 -0.1526
17682W        W34529   9.315  16.721  14.150  0.3827 -0.0185 -0.1203
17683W        W34530  17.173   9.461   0.512  0.1849 -0.0508 -0.1639
17684W        W34531  15.584  15.983  12.924  0.2121 -0.0067  0.0893
17685W        W34532  13.074  16.573   1.091  0.0890  0.2448 -0.1461
17686W        W34533   2.476   6.663   0.462 -0.1991  0.0211  0.2400
17687W        W34534  10.448   5.341  13.867  0.2356  0.0619  0.2330
17688W        W34535   6.430   4.678  12.867 -0.1877  0.1271  0.2045
17689W        W34536   8.947  11.825   0.416 -0.2178 -0.1819  0.3086
17690W        W34537   2.800   6.555   6.219 -0.1764  0.1622 -0.1577
17691W        W34538  16.622   7.444  12.400 -0.1341 -0.0211 -0.1107
17692W        W34539  13.704   7.301  14.237 -0.1280 -0.1465  0.0005
17693W        W34540   1.688   4.311   4.315  0.0388 -0.0592  0.1324
17694W        W34541  13.023  14.679  13.288  0.1721  0.1038 -0.0722
17695W        W34542  10.916   9.341   1.739 -0.1031  0.1264  0.0868
17696W        W34543   5.274   3.913  12.905  0.1920 -0.1869 -0.0882
17697W        W34544   1.640  18.058   3.825 -0.0236 -0.0522 -0.2107
17698W        W34545   2.069  17.819   0.650  0.0275  0.0401 -0.0827
17699W        W34546  15.639  10.303  11.129  0.0445  0.0337  0.0613
17700W        W34547  14.210   2.814  14.732 -0.2636  0.0152 -0.2827
17701W        W34548  17.900   6.368  13.677  0.0909 -0.3917 -0.3751
17702W        W34549   0.093   5.446   5.238 -0.0550 -0.3720 -0.0343
17703W        W34550  10.631   4.408  13.300  0.2255  0.1775  0.0030
17704W        W34551   9.330   8.771   2.014  0.0408 -0.0490 -0.3461
17705W        W34552   8.086  15.651   2.972  0.1225  0.1450 -0.0117
17706W        W34553  16.578   1.071  15.317 -0.0180  0.1898 -0.0918
17707W        W34554  16.335  10.429   4.038 -0.1286 -0.1342  0.1003
17708W        W34555   0.480   8.480   2.782 -0.0839 -0.0916  0.3287
17709W        W34556  12.132   4.510  14.058 -0.1561  0.1114  0.1051
17710W        W34557  15.081   0.121  16.095  0.2761  0.0511  0.0505
17711W        W34558   6.347  12.489  14.661  0.0377  0.0259  0.1296
17712W        W34559  15.172   5.868   0.599  0.0249  0.0218  0.0905
17713W        W34560  17.842   1.525   1.157 -0.1764 -0.1264  0.0419
17714W        W34561   2.145  14.794   5.577 -0.0321  0.3379 -0.0085
17715W        W34562   2.866   6.799   1.234 -0.3793  0.2228 -0.0252
17716W        W34563  11.004   4.501  12.888 -0.0686 -0.1949 -0.1882
17717W        W34564   6.803  17.106   5.972  0.0533  0.1387  0.1033
17718W        W34565   4.978  17.601  13.233  0.0367 -0.1111 -0.3285
17719W        W34566   4.621  13.770   2.511 -0.1550 -0.2374  0.0642
17720W        W34567  13.931   1.861  10.853  0.0534 -0.2461  0.1080
17721W        W34568   1.826   8.880   1.112 -0.2254 -0.2199  0.1011
17722W        W34569   5.650   6.747  14.124  0.1037 -0.0166 -0.2628
17723W        W34570  15.364  17.782  11.829  0.1703  0.2135 -0.0706
17724W        W34571   0.953   7.972   4.379  0.2014  0.0345 -0.0114
17725W        W34572   0.024   6.761  15.000  0.1604 -0.3338  0.2517
17726W        W34573  18.169   4.628  13.350  0.0746  0.1616 -0.0110
17727W        W34574  11.208   6.144   0.975 -0.0832 -0.0677  0.0018
17728W        W34575   0.230  16.492   3.008  0.3938  0.2823  0.1471
17729W        W34576  17.240   0.445  15.012 -0.1831  0.1746  0.1607
17730W        W34577  17.538   2.785   1.593 -0.3431 -0.0238 -0.0388
17731W        W34578   1.108   2.486   3.824 -0.1232 -0.2697 -0.1983
17732W        W34579  16.153  16.886   5.294  0.1630  0.2995  0.0971
17733W        W34580  10.702   8.672   1.202  0.1125 -0.2292  0.0297
17734W        W34581  16.511  13.449  13.438 -0.0045  0.1590 -0.0592
17735W        W34582   7.160  15.390   0.083  0.0656  0.2695 -0.2418
17736W        W34583  14.858   6.415   4.047 -0.1660 -0.0268 -0.1007
17737W        W34584  17.943  17.433   3.829  0.0969  0.3418 -0.1755
17738W        W34585   4.245   6.209   5.284 -0.0045  0.1326  0.0739
17739W        W34586   8.678   8.836   1.050  0.3056  0.1023 -0.2255
17740W        W34587  13.819   1.994  11.543  0.2446 -0.3442 -0.0060
17741W        W34588   6.470   9.940   5.316 -0.0069  0.1753 -0.0812
17742W        W34589   0.819  17.405  12.094 -0.2167  0.0703  0.1500
17743W        W34590   9.306  15.310   1.987 -0.0378 -0.2415 -0.0018
17744W        W34591   5.385  12.678   3.633  0.0358  0.0235  0.0127
17745W        W34592   2.707  18.214   2.728 -0.1064  0.1388  0.1455
17746W        W34593   7.579  14.068   0.977 -0.0384 -0.1178  0.0455
17747W        W34594  18.234  15.807   2.945  0.1200  0.2039 -0.0639
17748W        W34595  17.978  11.572  12.750  0.1980  0.0734  0.2536
17749W        W34596   2.351   7.702   4.452  0.1247 -0.0977 -0.2871
17750W        W34597  12.760   3.689   4.530  0.0464  0.2581 -0.0770
17751W        W34598   5.667   1.009  13.730 -0.1341 -0.1415  0.1643
17752W        W34599   6.805   4.022   3.466  0.4336  0.1953  0.0158
17753W        W34600   0.294   6.080   4.072  0.0622  0.2810 -0.3880
17754W        W34601   7.066   1.191   0.090  0.0624 -0.0891  0.3092
17755W        W34602  14.480   4.346  12.623 -0.0267  0.0537  0.1382
17756W        W34603  13.334   6.883  14.330  0.0075  0.3445 -0.1715
17757W        W34604  10.971   5.557  15.126  0.0736  0.3312 -0.3037
17758W        W34605  13.984   3.098   4.377  0.1565 -0.0173 -0.3575
17759W        W34606  12.939  12.571  14.753 -0.1460  0.2207 -0.1730
17760W        W34607  17.985   0.775   3.408  0.2664 -0.1240  0.0969
17761W        W34608  10.267   9.376   4.659 -0.0125  0.4647  0.3049
17762W        W34609  18.123   4.706   3.927 -0.0246 -0.0216 -0.1444
17763W        W34610   7.764  14.850  13.414 -0.5230 -0.0197  0.0551
17764W        W34611  18.211   1.194   3.818 -0.0146 -0.0050  0.3522
17765W        W34612   5.656   3.476  12.438  0.1490  0.0387  0.1541
17766W        W34613   7.711   3.567   0.499  0.0586 -0.1329 -0.0980
17767W        W34614  10.956   9.660  13.771  0.1862 -0.1461  0.0843
17768W        W34615   9.085  15.077  15.613  0.0208  0.1728  0.1745
17769W        W34616  11.371   2.833  13.200 -0.1295  0.1886  0.2110
17770W        W34617   9.548   7.439   0.462 -0.0685  0.1129  0.1420
17771W        W34618  13.352  17.535   3.734  0.0075  0.3811 -0.0620
17772W        W34619  10.435  17.251  12.741  0.0170 -0.1776 -0.1878
17773W        W34620   4.216   3.568  11.875 -0.1376 -0.1431  0.0237
17774W        W34621  14.715  11.656   2.984  0.1425 -0.0526  0.2175
17775W        W34622  17.484  16.432  11.251  0.1691  0.0672 -0.1189
17776W        W34623   5.432   8.783  15.502 -0.3229  0.1663  0.4983
17777W        W34624   5.784  15.418   4.784  0.0528  0.0633  0.2213
17778W        W34625   8.628   5.661   3.706  0.2303 -0.0428  0.0117
17779W        W34626  16.634   1.203  13.522 -0.2144  0.0479  0.1307
17780W        W34627   0.651  16.323   1.048  0.0685 -0.1998  0.0555
17781W        W34628  15.129   6.348   3.163 -0.0230  0.0637 -0.3216
17782W        W34629   7.623   6.999   1.027 -0.1511  0.1397 -0.0938
17783W        W34630   4.837  14.406   3.631 -0.0381 -0.0442  0.1148
17784W        W34631   3.391   6.312   4.532 -0.1402  0.2187 -0.1484
17785W        W34632  13.300   5.248   2.210  0.0363 -0.3930 -0.0770
17786W        W34633  13.289  14.283   0.797  0.1528  0.0816 -0.1366
17787W        W34634   6.424   8.547   1.561  0.4745 -0.5054 -0.0446
17788W        W34635   1.035  12.008   0.671 -0.1523 -0.2799 -0.2599
17789W        W34636   7.805   3.050  12.799  0.1165 -0.1220  0.0563
17790W        W34637   6.321   6.370  15.338 -0.0061 -0.1373 -0.1407
17791W        W34638  12.063   9.922  12.432 -0.0807  0.0601  0.0180
17792W        W34639   6.195   1.420   0.434 -0.1545  0.0543 -0.1931
17793W        W34640  10.699  16.410  14.795  0.1871  0.3129  0.3433
17794W        W34641  14.155  12.244   0.165 -0.2132 -0.0446 -0.0598
17795W        W34642   9.600   5.740  15.110 -0.0292 -0.0207  0.0917
17796W        W34643   1.196  14.553  12.347 -0.0605  0.4563  0.1240
17797W        W34644   3.280   6.791   4.793  0.0770 -0.0254  0.1300
17798W        W34645  13.810   0.758   3.622  0.4005 -0.2285 -0.1005
17799W        W34646   4.940   6.931   3.361  0.2862  0.0884  0.1693
17800W        W34647   8.042  10.631   1.628  0.0137 -0.1496 -0.3020
17801W        W34648   4.370   9.637  14.418 -0.0127 -0.1191  0.1086
17802W        W34649   5.071   1.341  15.230 -0.1233  0.1347  0.0337
17803W        W34650   8.606   2.438  12.799  0.0958 -0.0040 -0.0001
17804W        W34651  13.154  12.293   3.665  0.1464  0.0508 -0.3799
17805W        W34652   2.027   0.055   5.452 -0.1358  0.1719 -0.0457
17806W        W34653   9.161   8.825   1.522 -0.1643  0.0406 -0.0049
17807W        W34654  16.735  11.685  14.161  0.3200  0.1958  0.1682
17808W        W34655  12.767   9.179  12.428 -0.3674 -0.1121 -0.2730
17809W        W34656  17.467  10.772   4.596  0.0577  0.0171  0.2916
17810W        W34657  10.781  12.685   4.761  0.0571  0.0122  0.2387
17811W        W34658   6.511   6.565   0.484  0.0914  0.1684 -0.0843
17812W        W34659   4.479  15.783   0.669 -0.0899 -0.0615 -0.0614
17813W        W34660  13.090  12.098   3.186  0.0531  0.0493  0.1334
17814W        W34661   3.055   0.043  13.782 -0.2084  0.0138 -0.0791
17815W        W34662  10.163   0.810  11.924 -0.0453 -0.1387 -0.1390
17816W        W34663   5.556  10.362   1.066 -0.5244 -0.1652 -0.1956
17817W        W34664  16.866  18.118  11.400 -0.2343  0.3206 -0.1720
17818W        W34665   0.415  14.633   2.685 -0.2161 -0.2595  0.1943
17819W        W34666   4.775  17.330   0.350 -0.1481  0.0089 -0.2266
17820W        W34667  12.331   4.253  13.062 -0.5144  0.0251 -0.1490
17821W        W34668  14.897  12.688  15.984 -0.0899  0.1940 -0.0096
17822W        W34669  14.197  13.994  15.806 -0.2305 -0.0438  0.2560
17823W        W34670   8.425  15.871   1.428 -0.0594 -0.0459  0.2416
17824W        W34671   1.591   9.104   2.538 -0.0987  0.3456  0.0530
17825W        W34672  15.832   8.475  12.561 -0.1973 -0.1989  0.3054
17826W        W34673   6.180   4.519   1.430 -0.0149 -0.0305 -0.1673
17827W        W34674  16.775   9.226   2.546  0.0200  0.0631  0.0846
17828W        W34675   9.433  17.139  15.128  0.2097  0.1991  0.1424
17829W        W34676  16.722  13.938  14.076 -0.0472  0.0938  0.3027
17830W        W34677   4.338  15.279   2.111 -0.2304  0.0015 -0.1439
17831W        W34678   7.965   8.367  11.262  0.0766  0.2629  0.1675
17832W        W34679  14.741   8.019  13.952 -0.0095  0.0406 -0.4315
17833W        W34680   7.137   6.117   5.369  0.3746  0.0152 -0.1274
17834W        W34681  13.215   2.275  12.268 -0.1860  0.0122 -0.2260
17835W        W34682  15.193   4.332  13.144  0.1615 -0.0626  0.3055
17836W        W34683   7.067   1.087   2.560 -0.1112 -0.0432  0.0749
17837W        W34684  13.867  12.875  13.828  0.1329  0.0761 -0.2214
17838W        W34685   1.496  14.837  15.313 -0.1630 -0.2805  0.2043
17839W        W34686  16.333   6.004  11.787 -0.0698  0.2458  0.2953
17840W        W34687   9.475  15.921   2.734  0.4113 -0.0577 -0.1068
17841W        W34688   1.658  10.612   4.099 -0.1943  0.1513 -0.2495
17842W        W34689   7.168   8.233  11.553 -0.3950 -0.1458  0.2394
17843W        W34690   9.711   3.478  12.016  0.2585  0.0068 -0.1658
17844W        W34691   0.778   2.185  10.093 -0.0375 -0.0549 -0.0221
17845W        W34692   5.777  14.631  14.846  0.2510  0.1059  0.2678
17846W        W34693  17.040   2.843  14.026  0.1128 -0.1030 -0.0517
17847W        W34694  13.223   7.393   3.621  0.1286  0.2531  0.0670
17848W        W34695   9.121  15.636  15.400 -0.0990  0.0258 -0.0326
17849W        W34696   6.566   2.382   5.129  0.0342  0.0707 -0.0332
17850W        W34697   7.452  15.730  14.891  0.0487 -0.3119  0.2845
17851W        W34698   0.407   4.011   0.808  0.1064 -0.1790  0.1195
17852W        W34699  12.311   3.566   2.788  0.0499 -0.1635 -0.1519
17853W        W34700  14.356   7.502  15.434 -0.3392  0.4114  0.0232
17854W        W34701  12.108  18.145  11.828 -0.1300 -0.1447  0.0637
17855W        W34702   6.021   2.028  12.279  0.1697  0.1683 -0.0079
17856W        W34703  18.134  18.172  11.291  0.1431  0.1642 -0.0014
17857W        W34704   6.815   9.992  13.515 -0.3562  0.0836  0.2497
17858W        W34705  12.722  11.302  10.766 -0.2429  0.1751  0.2813
17859W        W34706  11.726  12.125   3.002 -0.0978 -0.2249  0.1996
17860W        W34707   8.906   4.415   3.629  0.1308  0.2047 -0.1227
17861W        W34708  13.064   7.136  11.466 -0.1764 -0.1407 -0.0956
17862W        W34709   8.922   4.476   3.039 -0.1440  0.0222  0.0818
17863W        W34710   7.989   9.200  13.556 -0.0954  0.2526 -0.2385
17864W        W34711  11.902   4.637  14.457 -0.0380 -0.0095  0.0370
17865W        W34712  10.604   3.220  13.651 -0.0876 -0.1416 -0.3217
17866W        W34713   0.538   5.477  12.115 -0.1112  0.0536 -0.2446
17867W        W34714   3.943  16.974  11.657  0.1372 -0.0955 -0.2851
17868W        W34715   3.513  12.347  11.338  0.1559 -0.1904 -0.2264
17869W        W34716  11.079  16.401   2.757 -0.1324  0.0695 -0.1882
17870W        W34717   3.396  16.215  12.659 -0.1662  0.4918 -0.0035
17871W        W34718  15.911   5.064   2.174  0.0394  0.3312 -0.1466
17872W        W34719  13.136  18.221  16.188 -0.1061  0.2030  0.0409
17873W        W34720  17.224  16.249   4.670  0.0177 -0.0190 -0.2048
17874W        W34721   8.755   9.378   5.533 -0.1671 -0.4274 -0.1364
17875W        W34722   1.239   0.455  12.810  0.2815 -0.0053  0.0681
17876W        W34723  11.665  17.546  13.142  0.1390 -0.1903  0.3907
17877W        W34724   8.121   4.740  12.941 -0.0620 -0.1837 -0.1427
17878W        W34725   5.719  10.013   2.904  0.0127 -0.0689 -0.0229
17879W        W34726  16.196   9.985   4.686  0.1226 -0.0982  0.2621
17880W        W34727  15.022  12.458   1.087  0.2526 -0.0189  0.3489
17881W        W34728  13.251   6.953   2.500  0.2883 -0.0396  0.2777
17882W        W34729   8.094  11.742  13.437  0.0696 -0.0952 -0.1766
17883W        W34730  12.988   7.339   2.714 -0.0849  0.2453 -0.3753
17884W        W34731  14.855   2.761   2.090  0.2925  0.4193 -0.0285
17885W        W34732  13.965   7.892  11.008 -0.0627  0.2483  0.1088
17886W        W34733  14.910   7.595  15.647 -0.1929  0.3677 -0.0364
17887W        W34734  10.174  10.312  11.249 -0.0871 -0.0894 -0.0707
17888W        W34735   8.357  13.527  15.226  0.0110 -0.2137  0.1656
17889W        W34736   3.690  16.979  12.198  0.2448  0.3243 -0.2083
17890W        W34737   6.322   5.758  10.217  0.0714 -0.1107 -0.0219
17891W        W34738   6.616   3.730   0.756 -0.2578  0.2272  0.0458
17892W        W34739   8.181  16.263   1.109 -0.0159  0.1254 -0.2203
17893W        W34740   4.468   5.879   5.568 -0.0902 -0.0751 -0.1809
17894W        W34741   6.950   9.882   3.726 -0.1038  0.1565 -0.0256
17895W        W34742  10.961   9.778  11.820 -0.1361  0.0605 -0.2828
17896W        W34743   8.017  15.022   3.571 -0.3768  0.3509 -0.1482
17897W        W34744   0.834   6.155   4.051  0.2008  0.2248  0.1947
17898W        W34745  13.673   0.943   1.591 -0.4127  0.1201 -0.1140
17899W        W34746   9.296   1.290  11.393 -0.2258 -0.3943  0.0811
17900W        W34747   4.082   6.422  15.045 -0.0764 -0.1728 -0.0820
17901W        W34748  17.630   1.835   2.005  0.0902  0.0288  0.3845
17902W        W34749  11.160   9.113   0.023 -0.1713 -0.1236 -0.1147
17903W        W34750   1.455  16.418   3.596 -0.1422 -0.1031  0.0391
17904W        W34751   1.351   8.549  15.669 -0.0712 -0.3003  0.1826
17905W        W34752   0.293   0.323   1.320 -0.1134 -0.1253 -0.0603
17906W        W34753   3.831  12.704   6.059 -0.1811  0.2404  0.1293
17907W        W34754   8.817   0.546  13.175 -0.4334 -0.1208 -0.2261
17908W        W34755   7.662  15.827  13.802  0.2998 -0.0564 -0.3337
17909W        W34756   3.635  16.134   5.346 -0.2083  0.2383 -0.1560
17910W        W34757  12.670  10.102  14.724 -0.0078 -0.3028  0.1438
17911W        W34758  16.352  10.113   0.478 -0.1382 -0.0240  0.2745
17912W        W34759   7.467  11.919  15.790  0.0919  0.1668  0.3349
17913W        W34760   8.319   0.507  11.509  0.2052  0.1881  0.2424
17914W        W34761   5.507  11.897   3.750  0.0270 -0.0510 -0.0182
17915W        W34762  11.590  13.176   3.475 -0.3042 -0.0300 -0.0223
17916W        W34763  11.554   1.837  16.148 -0.0700  0.1669  0.0105
17917W        W34764  13.060   4.653  15.033  0.1062 -0.3853 -0.0038
17918W        W34765   1.548   2.290   5.157 -0.0680 -0.0160  0.4377
17919W        W34766  14.829   3.394  15.942  0.1613 -0.0624 -0.0442
17920W        W34767   0.238  17.726   0.870  0.0311 -0.0733  0.0899
17921W        W34768  13.728   0.002   0.646  0.0796  0.0273  0.4698
17922W        W34769   5.483  11.134  13.084  0.0468 -0.0335 -0.2129
17923W        W34770  13.474   8.537   4.495 -0.1571 -0.1578  0.1122
17924W        W34771   7.586  13.735   3.579  0.2152 -0.1334 -0.4324
17925W        W34772   4.093   9.923  16.086  0.0215  0.0310 -0.0724
17926W        W34773  16.063  14.392  16.000  0.1599  0.2366  0.2960
17927W        W34774   9.178  13.725   1.737 -0.2085 -0.0060 -0.1929
17928W        W34775  12.289  17.542   1.156 -0.1179  0.1219 -0.3152
17929W        W34776  11.276  16.770   0.685  0.2117  0.1023  0.1221
17930W        W34777   4.515  12.218   1.726 -0.0785  0.0586 -0.0795
17931W        W34778   2.626  14.013  12.351 -0.0082  0.1241  0.0713
17932W        W34779   6.922   4.022   2.475 -0.2651 -0.0501 -0.1594
17933W        W34780   5.811   9.074   0.106  0.1850 -0.1976  0.2280
17934W        W34781  14.465   0.070   5.085 -0.0027 -0.1634 -0.2994
17935W        W34782   9.725   8.587   4.331  0.3586  0.0156  0.1541
17936W        W34783   3.905   4.981  15.912  0.0047  0.0752  0.4550
17937W        W34784  10.067  10.313   1.764  0.0551 -0.3530 -0.1480
17938W        W34785  16.754   8.874  12.628 -0.0318  0.0556  0.1318
17939W        W34786   5.319  11.579  14.416  0.0319 -0.1022  0.1918
17940W        W34787   5.950  14.203  14.150  0.0394  0.0130 -0.0035
17941W        W34788  12.163  12.144  13.003  0.5036 -0.0194  0.1694
17942W        W34789  15.998   5.882   0.030  0.2962 -0.1964  0.0026
17943W        W34790   9.180  17.839  13.008  0.0349  0.1958  0.0497
17944W        W34791  15.748   1.522   1.153  0.0910 -0.3812 -0.0928
17945W        W34792  16.253   2.992   1.600  0.1129  0.1893  0.0639
17946W        W34793   1.233   7.868   3.525  0.1876  0.1474 -0.5262
17947W        W34794   2.098  17.390   4.917 -0.2332 -0.2428 -0.0347
17948W        W34795  17.298  12.409   5.620  0.0560 -0.0928  0.2788
17949W        W34796  17.697   5.417  14.030 -0.1650 -0.1313  0.0310
17950W        W34797  17.243   8.353   2.849 -0.1359  0.0258 -0.2394
17951W        W34798   7.801   6.138  15.460 -0.3797  0.0338  0.1336
17952W        W34799  16.106   1.783   0.760  0.3728  0.0560  0.1194
17953W        W34800   0.140   4.811   0.646 -0.0449  0.1055  0.0550
17954W        W34801   6.639  14.852   3.980 -0.0354  0.1143 -0.0929
17955W        W34802  18.108  13.993  13.758  0.0651  0.0506 -0.2505
17956W        W34803  17.246   4.659  13.607 -0.2773 -0.0839  0.2263
17957W        W34804   1.097   4.106  13.182 -0.1633  0.0726  0.4062
17958W        W34805  17.591   7.453  11.448 -0.1072 -0.2382  0.2594
17959W        W34806  17.053  10.491  12.478  0.0270  0.0802 -0.1950
17960W        W34807   7.867  13.897   1.387 -0.3311 -0.1424  0.3309
17961W        W34808  13.866  17.391   2.598  0.4016  0.0335 -0.0807
17962W        W34809   0.142   2.320   1.314  0.1150  0.4404 -0.2746
17963W        W34810   2.816   2.888  14.228 -0.0521 -0.1560  0.0209
17964W        W34811   0.146   4.303  11.066  0.0165 -0.1332 -0.0062
17965W        W34812   4.788  17.800   5.267 -0.1686  0.0580  0.3495
17966W        W34813  13.041  16.070   0.956 -0.1072 -0.0265  0.0358
17967W        W34814   0.729   1.487  11.179  0.0465  0.0722  0.1147
17968W        W34815  15.692   3.304  15.134  0.0246  0.1182 -0.1422
17969W        W34816   4.257  15.052   3.889 -0.1698 -0.2629  0.1385
17970W        W34817   1.724  10.766  11.615  0.1703 -0.0151 -0.3489
17971W        W34818  12.257  17.819  13.356  0.0850  0.0474 -0.0841
17972W        W34819   2.153   6.969  11.281  0.0011 -0.3793  0.2173
17973W        W34820   6.258  17.108   0.650  0.1153  0.2824 -0.0323
17974W        W34821   9.944   9.293  14.914  0.0735  0.0634 -0.4156
17975W        W34822   8.499   1.654  13.108 -0.2326  0.0692  0.0696
17976W        W34823   9.509  13.258   3.836  0.1261 -0.1558  0.0779
17977W        W34824  12.833   5.299   5.288  0.0438  0.1489 -0.1564
17978W        W34825  14.462  15.507   0.378  0.0926 -0.0073 -0.0615
17979W        W34826   8.542  16.957  15.137  0.2757 -0.2326 -0.3224
17980W        W34827   7.073   3.402  12.068 -0.2126 -0.1486  0.0114
17981W        W34828  14.777  17.453   3.340  0.1883  0.0500  0.0607
17982W        W34829   5.686  10.723   4.372  0.2077  0.2189 -0.0986
17983W        W34830   5.611  12.536  12.822  0.0809  0.0953 -0.2889
17984W        W34831  17.725   0.952  15.722 -0.1076 -0.0400  0.0188
17985W        W34832  12.645   1.162  13.784  0.0309  0.0428  0.1032
17986W        W34833  12.944  17.008   3.542 -0.0311 -0.2426 -0.1745
17987W        W34834  15.714   6.078  15.845 -0.2212 -0.1171 -0.0683
17988W        W34835   8.869   4.964  12.353  0.1854 -0.0168  0.1326
17989W        W34836   7.289   3.792  11.237  0.0925 -0.1608  0.5087
17990W        W34837   8.047   7.057  10.398  0.0644 -0.0457 -0.1331
17991W        W34838  15.281   6.454   2.124  0.3423  0.1159  0.2559
17992W        W34839  10.866   3.105  11.051 -0.0584  0.0811  0.5485
17993W        W34840   4.421  13.900  12.502 -0.1107  0.1551 -0.0374
17994W        W34841  10.418  16.892  11.671 -0.0185  0.1984  0.2918
17995W        W34842   7.083  15.788   4.948  0.0514 -0.0948  0.0714
17996W        W34843  14.645   4.004  14.517 -0.0036 -0.0354 -0.0159
17997W        W34844   0.064   8.255   0.061 -0.1719 -0.2204  0.2351
17998W        W34845   6.825  14.428   3.790 -0.0372  0.0290  0.1516
17999W        W34846   8.147  12.679  11.293  0.0954  0.0439  0.0969
18000W        W34847  17.728  11.826   2.230  0.1553  0.0581  0.2159
18001W        W34848   4.074   5.288   3.373 -0.1748 -0.0402  0.2986
18002W        W34849   8.729   8.528  10.869  0.2101  0.0217  0.0455
18003W        W34850  16.768  15.308  15.125  0.0672 -0.0541  0.0176
18004W        W34851   4.832   8.771   4.931  0.2284  0.2712 -0.0631
18005W        W34852  12.414   1.360  10.950 -0.0259  0.0152 -0.2338
18006W        W34853   2.878   6.182   0.067  0.0296  0.0220  0.0920
18007W        W34854  16.293   2.780   3.607 -0.2326 -0.2607  0.0007
18008W        W34855  13.056   2.945   2.666 -0.2224 -0.4505 -0.3940
18009W        W34856  14.910   3.650   3.815  0.0057  0.0313  0.0170
18010W        W34857   1.447  10.121   2.298 -0.1861  0.2889  0.2817
18011W        W34858   7.989   2.642   2.476 -0.0198 -0.2426 -0.0982
18012W        W34859   4.506   9.566   3.381 -0.3034  0.0167 -0.1095
18013W        W34860  17.680   3.355  14.506 -0.2797 -0.0388 -0.1445
18014W        W34861  12.838  15.072  13.609 -0.1341 -0.0236  0.0515
18015W        W34862  15.193  11.215   0.378 -0.2704 -0.1457 -0.0724
18016W        W34863  15.643   8.424  15.436  0.0734 -0.0103 -0.1354
18017W        W34864   8.873   0.395   4.714 -0.0397 -0.0021 -0.0302
18018W        W34865   0.720  11.437   6.407  0.2584 -0.1898  0.3505
18019W        W34866  14.195   8.331   1.966 -0.0222  0.3850  0.1387
18020W        W34867  12.447   9.973   0.244  0.1835 -0.1744  0.1595
18021W        W34868   6.709  15.006   0.370  0.0238  0.0569  0.0002
18022W        W34869   3.374  11.931  13.241  0.3120  0.2034  0.1363
18023W        W34870   1.365   6.034   5.087 -0.0424  0.2764  0.0494
18024W        W34871   2.746   8.938  13.611 -0.1798 -0.0667 -0.1035
18025W        W34872  16.018   0.257   5.315 -0.0426 -0.0005 -0.2925
18026W        W34873   4.216  18.017   3.617  0.0551 -0.0554  0.0752
18027W        W34874  18.092   2.387  14.456 -0.3552  0.0009  0.0059
18028W        W34875   4.404  10.458   4.415  0.2281 -0.0424  0.1586
18029W        W34876   6.666  11.742  10.497  0.0631  0.3076  0.2236
18030W        W34877  17.893   1.523  15.380  0.1009 -0.0054  0.1077
18031W        W34878   9.467  14.505   5.351 -0.3124 -0.0684 -0.1099
18032W        W34879   2.940   1.059   0.564 -0.1246  0.1397  0.4159
18033W        W34880   5.829   6.719  14.710 -0.2187 -0.0887 -0.1226
18034W        W34881  10.608   0.944  14.827  0.1655  0.1615  0.2246
18035W        W34882   5.955  13.765  14.460 -0.1166  0.0130 -0.0264
18036W        W34883   3.135  13.849   4.529 -0.0802  0.0879 -0.0166
18037W        W34884   1.855   7.183   3.760  0.4523  0.0490  0.0515
18038W        W34885  12.141   5.093  12.607  0.0621  0.2161  0.1289
18039W        W34886  11.334   1.469   3.602 -0.0323 -0.0048 -0.0229
18040W        W34887  13.615   1.597   3.579  0.3465 -0.0107  0.0373
18041W        W34888   9.524  18.248  15.053  0.3472  0.1032  0.3330
18042W        W34889   7.954  11.141   2.919  0.0475 -0.0232 -0.0937
18043W        W34890  18.138  13.058   1.754 -0.1891 -0.2582  0.0913
18044W        W34891   4.930   7.048  11.899  0.2686 -0.0700 -0.1168
18045W        W34892  16.245  14.832   1.951  0.1467 -0.4704  0.2030
18046W        W34893  11.420   4.495   5.727  0.0651 -0.1046  0.2349
18047W        W34894  14.974  10.529  13.015  0.0381 -0.0651 -0.1341
18048W        W34895  17.182  12.794  13.648  0.0357 -0.0831 -0.2712
18049W        W34896  14.612   6.700  11.163 -0.1199  0.2432  0.0367
18050W        W34897  11.078   1.760  11.251 -0.0636 -0.0760 -0.0279
18051W        W34898   4.423  13.665  12.036 -0.2613  0.1020 -0.0768
18052W        W34899   3.627   2.839  12.061  0.2071  0.0389 -0.0541
18053W        W34900  15.023   1.296   1.706  0.0772  0.2219 -0.0781
18054W        W34901   1.192   6.802   0.391 -0.2651 -0.1788  0.0785
18055W        W34902   3.277   6.413   2.161  0.0396 -0.1101  0.1485
18056W        W34903   0.056   2.819   1.446  0.0515 -0.0627  0.0736
18057W        W34904   2.870   6.493   0.861  0.1342  0.2059  0.0297
18058W        W34905  13.860   1.955   3.402  0.1450 -0.0727  0.0255
18059W        W34906  15.285  14.950   2.051  0.1757  0.0080  0.1509
18060W        W34907   0.150   0.333  15.583  0.1350 -0.0141 -0.1643
18061W        W34908   2.588  12.630  15.987 -0.0398  0.0169  0.0171
18062W        W34909  12.370  13.385   3.145  0.0710 -0.1063 -0.1546
18063W        W34910   2.737   3.567  11.278  0.0438  0.2099  0.1093
18064W        W34911   7.478   1.269   1.293  0.0508 -0.1330  0.0670
18065W        W34912   3.874   2.360   0.226 -0.0656  0.1563 -0.0926
18066W        W34913  12.981   7.377   4.088 -0.3670  0.1174  0.2407
18067W        W34914   1.344   8.727   1.135 -0.2796 -0.1875  0.1717
18068W        W34915   8.322   5.300  14.566 -0.2023 -0.0531 -0.0986
18069W        W34916   0.063  13.226   5.314 -0.0511  0.4444 -0.1120
18070W        W34917   3.093   6.636   1.672  0.1381 -0.3429 -0.1580
18071W        W34918   4.602  11.745   1.913  0.0597  0.0658  0.1213
18072W        W34919  13.771   2.861  13.638  0.0876  0.1598  0.2926
18073W        W34920  17.799  10.498   1.622  0.2026 -0.2000  0.2631
18074W        W34921   0.242  12.350   4.845  0.0360 -0.1691  0.0018
18075W        W34922   4.808  13.131  11.401  0.1658 -0.0839 -0.2833
18076W        W34923   5.050   7.856  14.726  0.2921  0.0295  0.0906
18077W        W34924   2.255   5.764  11.062 -0.4042 -0.1773 -0.1323
18078W        W34925   3.524   9.181  13.202  0.1542 -0.1898 -0.1953
18079W        W34926   9.304   5.462   5.875  0.2626 -0.3603 -0.2628
18080W        W34927  10.395  12.261   1.076  0.0362 -0.1262  0.0387
18081W        W34928  11.503  11.438  15.524 -0.1160 -0.1579 -0.1159
18082W        W34929   3.886   6.593  11.231 -0.0033  0.2307  0.2669
18083W        W34930  10.491   3.548  12.072 -0.1170 -0.0960  0.0041
18084W        W34931  10.802   2.789  15.772 -0.0882 -0.0529  0.0536
18085W        W34932   9.255  15.654  12.623  0.1392  0.0298 -0.1132
18086W        W34933   8.384  12.908   4.377  0.1677 -0.1179  0.1991
18087W        W34934   2.237   8.309  12.107  0.1785  0.1224  0.0595
18088W        W34935   7.921  18.197   5.628 -0.1055  0.2048  0.2554
18089W        W34936  17.888  12.832   5.122  0.2442 -0.0542  0.0188
18090W        W34937   1.329   9.456   2.772  0.0159 -0.3493 -0.0957
18091W        W34938   5.593   3.186   3.329  0.0405  0.1219  0.2034
18092W        W34939   5.198   3.904  13.429  0.2346 -0.0148 -0.0060
18093W        W34940  15.389   3.614  11.519 -0.2174  0.0729 -0.1961
18094W        W34941   9.772   2.584   3.751  0.0888 -0.2341  0.0481
18095W        W34942  16.217  11.654  13.045  0.1464  0.2975  0.0549
18096W        W34943  11.934   1.366  12.245 -0.0391 -0.2099 -0.5051
18097W        W34944   5.025  16.604  15.719  0.3335  0.0764 -0.0521
18098W        W34945   8.050  16.052   4.714  0.2020  0.0832 -0.0981
18099W        W34946   1.170  10.561   1.909 -0.2137  0.2113 -0.2123
18100W        W34947   6.973  10.895  13.650 -0.0091 -0.0735  0.1915
18101W        W34948   2.320  10.306   5.283  0.2891  0.2007  0.1016
18102W        W34949   8.616  11.421   3.586  0.0567 -0.2356 -0.0028
18103W        W34950   7.118   0.489  11.321  0.2467 -0.1619  0.0652
18104W        W34951  14.889   4.488   0.878 -0.0359 -0.0869  0.0770
18105W        W34952   8.060   3.715   5.636  0.0966 -0.0146  0.0604
18106W        W34953   2.282  15.332   4.422 -0.1329  0.0800 -0.1582
18107W        W34954   2.870   5.266   5.805 -0.1308  0.0548 -0.1260
18108W        W34955   2.584  16.185  11.578  0.1883  0.0669 -0.0054
18109W        W34956   7.021  10.401   2.450  0.1747 -0.2914  0.0012
18110W        W34957  15.595   4.321   5.250  0.2353  0.2658  0.4439
18111W        W34958   7.154   0.654   3.305  0.2211  0.1987  0.2142
18112W        W34959  17.698   9.512   0.618  0.0114  0.0134 -0.0454
18113W        W34960   6.949   2.729   5.341  0.1614  0.3522  0.3252
18114W        W34961  15.744   7.542   3.544  0.0348  0.3746 -0.0292
18115W        W34962  13.089  14.803   1.658  0.4209 -0.0783 -0.1020
18116W        W34963  15.864  11.263  12.189 -0.0433 -0.1076  0.1597
18117W        W34964   0.298   2.131   3.546  0.1012  0.3102 -0.0977
18118W        W34965   5.252  12.901  12.895  0.1028 -0.0803 -0.2785
18119W        W34966  10.478  14.003   0.599 -0.0532 -0.0225 -0.0825
18120W        W34967  17.400   9.441  12.989  0.3457  0.0597  0.1764
18121W        W34968   5.606  12.380   3.901 -0.0148  0.0944  0.0150
18122W        W34969  15.668   2.705  14.026 -0.0170  0.3054 -0.2730
18123W        W34970  10.064   7.270   3.323 -0.0406 -0.3637  0.1753
18124W        W34971   3.869  15.959  14.878 -0.1705  0.0770 -0.0498
18125W        W34972   1.936   4.268  13.257 -0.3598 -0.0700  0.1523
18126W        W34973   8.203   4.410   4.900  0.2066 -0.2077  0.0635
18127W        W34974  11.863  17.830  13.635  0.1888 -0.0939 -0.0280
18128W        W34975   5.372  14.713  15.171 -0.0444  0.0354  0.0263
18129W        W34976  12.725   3.231   4.744  0.1248 -0.0863  0.2765
18130W        W34977   6.187   4.582  14.763  0.1206 -0.4002  0.0133
18131W        W34978  15.422   3.580  15.465 -0.0165  0.0974  0.0477
18132W        W34979  13.175  10.388   4.208 -0.0930  0.1883 -0.0789
18133W        W34980   5.115   1.484   1.703 -0.0225  0.1200  0.2154
18134W        W34981   9.780  10.899   5.452 -0.0446 -0.2160  0.0832
18135W        W34982  17.049   2.618   0.580  0.2279 -0.2046 -0.1549
18136W        W34983   0.614  13.022  12.751 -0.0370  0.1450 -0.0535
18137W        W34984  10.647   4.802  10.710  0.0989  0.0533 -0.1106
18138W        W34985   7.097  14.382  13.061  0.1873  0.0074  0.1189
18139W        W34986   9.430  10.965   3.293  0.4802  0.0596  0.1745
18140W        W34987  10.121   8.651   3.882  0.0780 -0.0544 -0.3662
18141W        W34988   9.549  15.037  14.559  0.0254  0.1234  0.1975
18142W        W34989  12.004   3.702  15.217 -0.1379  0.1581 -0.0425
18143W        W34990   1.542   8.375   4.728  0.0662  0.1359 -0.0650
18144W        W34991   0.824   3.972   3.093 -0.1645  0.1057  0.1615
18145W        W34992   0.867   6.187  11.999 -0.1367  0.1446  0.0522
18146W        W34993   1.214  15.714   5.223 -0.1249  0.0517  0.2555
18147W        W34994  18.312  10.625  12.134 -0.0532 -0.0787 -0.2575
18148W        W34995   5.659  11.667   5.450  0.0317  0.2230 -0.1406
18149W        W34996   2.453   8.810  15.007  0.2045  0.1118  0.1191
18150W        W34997   3.168   3.329   4.684 -0.0619 -0.1056  0.0933
18151W        W34998  15.143  16.933  15.598  0.1551  0.0264 -0.0235
18152W        W34999  15.341  18.018   6.262  0.1459 -0.0662  0.0920
18153W        W35000  12.900  12.837  10.264  0.4467 -0.0226  0.1526
18154W        W35001   9.816   3.051   0.916 -0.1742  0.1318  0.1082
18155W        W35002   6.392  15.487   0.491  0.1694 -0.1750 -0.2131
18156W        W35003   2.704   0.117  14.189  0.1525  0.0958 -0.0598
18157W        W35004   7.003  15.013  11.386 -0.0427  0.2690 -0.0456
18158W        W35005  16.125  16.361  12.875 -0.0498  0.2126 -0.1334
18159W        W35006   6.338  11.881  12.723 -0.4179 -0.1769  0.2267
18160W        W35007  16.507  13.996  15.960 -0.1402 -0.4263  0.1464
18161W        W35008   8.582  10.213   0.684 -0.2639 -0.2130 -0.0454
18162W        W35009  15.818   7.548  11.230  0.3836 -0.2539 -0.0388
18163W        W35010  12.913  10.774  12.157  0.1243  0.0306 -0.1752
18164W        W35011   0.457  11.053   4.899  0.2042  0.0819  0.1497
18165W        W35012   7.943   3.064   4.452 -0.2476  0.2359 -0.1529
18166W        W35013   9.080   4.539  12.598 -0.0686  0.0830 -0.0425
18167W        W35014  14.894  13.249   2.273 -0.1092 -0.0207  0.1973
18168W        W35015   4.299   9.441   0.007 -0.2527 -0.1805 -0.0005
18169W        W35016   8.281  11.761   0.386 -0.1222 -0.0279 -0.1895
18170W        W35017  11.361   6.683   2.167 -0.2230 -0.0342 -0.4451
18171W        W35018   3.331  12.664  14.475  0.0089 -0.1492  0.1569
18172W        W35019  12.363  13.849   3.466 -0.0804  0.0903  0.1631
18173W        W35020  12.597  17.927  15.022  0.2915  0.1092  0.1206
18174W        W35021  17.628  16.601   3.343 -0.0841  0.1920 -0.1322
18175W        W35022   4.413  11.853  13.012  0.0935  0.1124 -0.1671
18176W        W35023  15.547   4.438  11.540 -0.0155 -0.0472 -0.0648
18177W        W35024  12.740   1.105  14.961 -0.0779  0.1824  0.0667
18178W        W35025  16.128   5.828   3.200 -0.1369  0.2776  0.1690
18179W        W35026   0.434   7.137  13.996 -0.0772 -0.0096 -0.0899
18180W        W35027   8.779  13.924  11.323 -0.0578 -0.1229 -0.0634
18181W        W35028   9.226  13.328   0.979 -0.0923 -0.0959 -0.1166
18182W        W35029   9.871  17.917  12.257 -0.0169  0.1639 -0.2856
18183W        W35030   3.261   0.783  11.425 -0.1210  0.2359 -0.1092
18184W        W35031   5.666  15.501   1.824  0.0235 -0.1505  0.1185
18185W        W35032  10.241   3.426   4.170  0.1276  0.1693 -0.1811
18186W        W35033   7.415  12.827  13.052  0.3491 -0.3995 -0.0382
18187W        W35034  17.599   8.538  12.510  0.2963 -0.0465  0.2709
18188W        W35035   1.025  17.211  10.154 -0.1691  0.0677  0.0352
18189W        W35036   4.539   8.268   4.126  0.1387  0.0249  0.1806
18190W        W35037   8.894   8.037  12.051 -0.0605  0.0036 -0.0735
18191W        W35038  10.706  16.236   1.202  0.1490  0.2045  0.0714
18192W        W35039   5.069  12.483   5.203 -0.2355 -0.1447  0.1213
18193W        W35040   0.382  12.266  11.175 -0.1099  0.1260 -0.2700
18194W        W35041  12.577  16.175   2.978  0.1608 -0.0695  0.2616
18195W        W35042   0.264  15.919   0.837 -0.1159 -0.0010  0.0670
18196W        W35043  11.115   9.180  15.307  0.1352 -0.3500  0.1739
18197W        W35044  13.218  14.638   6.297  0.0743  0.3148 -0.1421
18198W        W35045  14.031   8.946   0.371  0.0753 -0.1258  0.4310
18199W        W35046   4.059   3.218  13.846  0.1135  0.2730 -0.1345
18200W        W35047   3.592  16.100  13.142  0.0482  0.1858  0.2100
18201W        W35048   4.987   6.074  15.435  0.2275  0.0701 -0.1334
18202W        W35049   3.500  10.193  15.562 -0.0921 -0.2641 -0.0176
18203W        W35050  10.036   4.312   0.978 -0.2644 -0.0331 -0.0970
18204W        W35051   2.769  12.373   1.856  0.0060  0.3243 -0.0023
18205W        W35052  10.868  10.362  12.677 -0.1726  0.0771  0.2133
18206W        W35053  12.957  17.647   2.251 -0.0003  0.0327  0.0483
18207W        W35054  11.214  14.140   2.867  0.0181  0.1868 -0.0072
18208W        W35055   8.913   0.883   2.042  0.1077  0.1586  0.0651
18209W        W35056   6.281   7.074  14.843  0.2349 -0.2027  0.6494
18210W        W35057   2.487   2.050  15.026 -0.3182  0.1341  0.2689
18211W        W35058  10.594   1.305  15.953  0.0807  0.0891  0.0969
18212W        W35059   6.622   9.528   1.458  0.0166  0.2352 -0.1420
18213W        W35060  11.736  12.842   3.791  0.1509  0.1790  0.1983
18214W        W35061   9.635  11.096   1.568 -0.0589 -0.1731  0.1629
18215W        W35062   9.999   7.568  11.160 -0.0699 -0.1512  0.2288
18216W        W35063   7.069   9.392  15.590 -0.3254  0.1084  0.3473
18217W        W35064   9.241  11.752   1.297  0.0865 -0.0819 -0.2351
18218W        W35065   3.362   4.356  11.402 -0.2272  0.0665  0.1562
18219W        W35066  10.392  12.347   5.035  0.0416  0.0087 -0.3083
18220W        W35067   7.426   9.473  13.213  0.3906 -0.0031  0.0189
18221W        W35068  13.537   5.925   3.242  0.1285  0.0282  0.0223
18222W        W35069   3.874   3.385  14.393 -0.1561 -0.0838 -0.0696
18223W        W35070   8.114   2.384  12.961 -0.0274  0.0266 -0.5522
18224W        W35071  15.698  16.207   1.574  0.3371 -0.0959 -0.0669
18225W        W35072  16.207   5.392  16.122  0.0778  0.0073 -0.0220
18226W        W35073   3.589   3.456  13.927  0.0589 -0.0544 -0.0097
18227W        W35074   2.217   3.188   3.667  0.0379 -0.2092 -0.0727
18228W        W35075   5.283   9.383  12.759  0.0437 -0.2556  0.0154
18229W        W35076   2.162   3.547   4.629  0.0431 -0.1131 -0.0499
18230W        W35077  18.291  14.840   3.833 -0.0152  0.2524  0.3274
18231W        W35078   1.932  11.452  13.410 -0.3871  0.2781 -0.1306
18232W        W35079  13.429   7.864  14.495 -0.1902 -0.2046 -0.2212
18233W        W35080  15.688   7.244   0.027  0.2478 -0.2793 -0.0736
18234W        W35081   6.865   6.781   1.793  0.1380  0.3003  0.0584
18235W        W35082  17.332  14.048  12.131 -0.0261  0.1869  0.0225
18236W        W35083   7.753  18.042  15.099 -0.1389  0.1058 -0.0034
18237W        W35084   8.276  17.287  11.106  0.0715  0.1996 -0.2069
18238W        W35085   3.398  10.024   2.529 -0.1368  0.0544  0.3400
18239W        W35086   3.466   5.295   3.534 -0.2417  0.2778 -0.0813
18240W        W35087  11.336  11.884   1.321 -0.0085  0.0819  0.1340
18241W        W35088   0.998  13.667  11.842 -0.0451  0.0086  0.1807
18242W        W35089   3.010  10.262   3.843  0.2184  0.2437 -0.0568
18243W        W35090  10.733   3.569   1.145 -0.2400 -0.0923  0.3131
18244W        W35091   6.112   0.690   2.179 -0.1056 -0.0958 -0.0764
18245W        W35092   8.811   6.008  14.033 -0.2778  0.0277 -0.1835
18246W        W35093   8.443  15.236   4.959 -0.0533  0.1151 -0.0890
18247W        W35094  13.950   6.587   3.632  0.0944  0.0504 -0.0095
18248W        W35095  14.175  10.714  10.088 -0.0506 -0.1571  0.0634
18249W        W35096  12.839   8.737  15.119  0.2189 -0.2107  0.2935
18250W        W35097   9.531  11.087   0.123  0.0575  0.0377 -0.0328
18251W        W35098   2.712   7.507   0.625  0.1494 -0.3225 -0.2327
18252W        W35099   4.858  10.837   0.399  0.2730  0.0209  0.1309
18253W        W35100   0.841  14.062  13.151  0.1437 -0.0973 -0.0731
18254W        W35101  17.364   6.089  12.691 -0.0905 -0.3015 -0.3436
18255W        W35102   7.232  14.399  13.924 -0.0429 -0.2417  0.1756
18256W        W35103  12.623   9.319   1.510  0.0242 -0.2767  0.1466
18257W        W35104  18.258   0.013  13.683  0.1923 -0.3705 -0.1248
18258W        W35105   5.682   8.808  14.224 -0.3354 -0.1152 -0.0284
18259W        W35106   3.934   0.371  11.595  0.0046 -0.0930  0.3940
18260W        W35107   3.637   5.202   2.087 -0.4807 -0.2652 -0.0198
18261W        W35108  10.737   9.339  11.959 -0.1484 -0.1625 -0.2301
18262W        W35109  11.457   1.803  13.962 -0.2098 -0.0975  0.4603
18263W        W35110   7.905   6.235  15.980 -0.4885 -0.0472  0.0625
18264W        W35111   5.113  15.740   2.765  0.3715  0.2620  0.1609
18265W        W35112   4.487  14.307   2.511  0.1758 -0.0304 -0.0617
18266W        W35113  12.564   6.034   4.713 -0.1690  0.3634  0.1013
18267W        W35114   3.408  17.994  13.660 -0.1491 -0.0974  0.1547
18268W        W35115  10.672   5.433  15.567  0.1077 -0.0318  0.0248
18269W        W35116   9.068  14.934  14.625  0.2733 -0.0973 -0.1071
18270W        W35117  13.498  10.410   1.728  0.2646  0.0899 -0.0808
18271W        W35118   5.244  16.665  15.199 -0.3553 -0.0173  0.3246
18272W        W35119   3.137   5.216   3.935 -0.0768  0.1214  0.0160
18273W        W35120   4.205   1.947  15.033 -0.0768  0.2542  0.0978
18274W        W35121   8.845   0.569   5.650  0.1141 -0.2914  0.1941
18275W        W35122  18.280  14.097   2.613 -0.1779  0.3214 -0.2443
18276W        W35123  10.964  15.622  11.135 -0.0969  0.1748 -0.1134
18277W        W35124  16.490  18.037   3.544  0.2068  0.4274  0.2707
18278W        W35125   4.743  16.820   0.986 -0.5382  0.1040 -0.0802
18279W        W35126  15.780   7.922   9.943 -0.3172 -0.3512 -0.1328
18280W        W35127   7.272  15.576   2.496  0.1892  0.1469 -0.2369
18281W        W35128  11.292   0.811  11.495 -0.2853 -0.0680  0.1804
18282W        W35129   3.735   5.576   1.099 -0.2362 -0.0731  0.1722
18283W        W35130   1.223   9.027  12.778 -0.1226 -0.1369  0.0237
18284W        W35131   1.115  14.081  12.045 -0.1099  0.1182 -0.0914
18285W        W35132  11.102  16.606   5.029 -0.0465 -0.0112 -0.2930
18286W        W35133   1.620   6.090   0.477  0.1021  0.0316  0.2941
18287W        W35134   7.551  11.190   4.138  0.0688 -0.1102  0.1090
18288W        W35135   9.956  12.371   0.804 -0.0662 -0.2713 -0.1686
18289W        W35136   0.087   7.727   4.493 -0.1994  0.0554 -0.0656
18290W        W35137   9.648   7.918  15.792  0.0662 -0.5190  0.0184
18291W        W35138  15.408  12.120  12.580 -0.2010 -0.2180 -0.1923
18292W        W35139   8.941   0.540   5.175  0.1555  0.0602  0.0076
18293W        W35140   7.753   5.644  15.229  0.0196  0.3821 -0.1309
18294W        W35141   6.199  14.159  15.497  0.2142  0.0532  0.1366
18295W        W35142   2.265  12.794  13.040  0.2305 -0.3078  0.0186
18296W        W35143   6.267   2.772   2.765  0.1127  0.0481 -0.0591
18297W        W35144   2.804   8.511  11.558 -0.2396 -0.1526  0.2745
18298W        W35145  13.995  15.110   0.498 -0.0785 -0.1205 -0.0309
18299W        W35146   3.088  17.985   3.857 -0.0162 -0.1561  0.2788
18300W        W35147   4.591   7.341   2.461 -0.1270  0.1082  0.0246
18301W        W35148  12.407  16.767  12.965  0.1299  0.1507 -0.1238
18302W        W35149   1.235  10.053   1.872  0.2368  0.2467 -0.0022
18303W        W35150   4.006  14.462   3.247  0.1779 -0.2528  0.1180
18304W        W35151   5.104  12.723   4.730 -0.2703 -0.2348  0.4124
18305W        W35152  13.553  17.377   1.415 -0.0711  0.1263 -0.3125
18306W        W35153   4.324   7.708  11.738  0.0094 -0.1297 -0.0499
18307W        W35154  13.187   6.642   4.234  0.1360  0.1578  0.0841
18308W        W35155   4.544  16.373  12.010  0.0329  0.2384  0.0020
18309W        W35156  12.374   2.978  11.684  0.0264 -0.0865 -0.0701
18310W        W35157  16.368   3.738   4.009 -0.4494 -0.0895  0.5347
18311W        W35158   0.596  16.038  11.859  0.1023  0.3313 -0.0087
18312W        W35159  17.769   9.236   2.747  0.0965 -0.0658 -0.1306
18313W        W35160   3.160   0.645  12.666 -0.0655 -0.2778  0.2513
18314W        W35161  11.559   7.269  11.864  0.1144 -0.1080  0.1000
18315W        W35162  13.137   7.519   0.098 -0.1216  0.1797  0.0234
18316W        W35163  11.155   9.599  15.575  0.0577 -0.6087 -0.0393
18317W        W35164  18.030  16.489   0.131 -0.0886 -0.1458  0.0375
18318W        W35165   5.927   5.846  11.646 -0.1181  0.1121  0.0010
18319W        W35166  18.071  14.390   4.022  0.3686  0.4262 -0.0255
18320W        W35167   0.646  10.754   3.314  0.3111 -0.0775 -0.0626
18321W        W35168  13.573   0.155   5.169 -0.0316  0.0304 -0.2617
18322W        W35169   3.300  10.219   3.115 -0.0754  0.1505  0.1259
18323W        W35170  10.136  16.170   3.581 -0.2314 -0.1456 -0.1211
18324W        W35171   5.219  14.504  14.688 -0.1160 -0.0775 -0.2975
18325W        W35172  15.074  12.809   5.184  0.3053  0.0294 -0.0371
18326W        W35173  15.260  14.381  12.646  0.1811 -0.1837  0.0325
18327W        W35174  11.565   1.741  11.453 -0.1270  0.1196  0.3436
18328W        W35175   4.989   5.814   2.840  0.1074  0.3245  0.1906
18329W        W35176   4.276   7.015  16.147  0.2600  0.0034 -0.1144
18330W        W35177   2.147  17.973   4.089  0.1653 -0.1327  0.1129
18331W        W35178  12.537  16.453  16.088  0.0726 -0.2562  0.3255
18332W        W35179   9.190   8.773  13.238 -0.0820 -0.3586  0.1500
18333W        W35180   0.144   5.077  12.707 -0.1339  0.0643 -0.3504
18334W        W35181   5.474   9.446  11.772 -0.1105 -0.2459  0.2321
18335W        W35182  11.891   4.602  15.524  0.2727 -0.1443 -0.0723
18336W        W35183  14.417  14.688   4.366 -0.1157 -0.0464  0.2443
18337W        W35184  17.652  14.913  12.557 -0.0862 -0.1081  0.1977
18338W        W35185   4.027  14.035  15.089 -0.4929 -0.4415  0.2232
18339W        W35186  14.242  16.951   3.714 -0.2083 -0.0332 -0.3448
18340W        W35187   1.714  11.588   4.741 -0.0795 -0.2249 -0.0806
18341W        W35188   5.699   6.107   5.063  0.0473  0.1722  0.0462
18342W        W35189  12.917  15.985  13.238  0.4212 -0.2083 -0.1003
18343W        W35190  17.494   4.887  11.154 -0.1444 -0.1086 -0.1676
18344W        W35191   8.563  13.369   2.313  0.2396 -0.0385  0.1440
18345W        W35192  16.775   0.997  12.458  0.0004 -0.0665  0.1596
18346W        W35193  11.026   0.323   1.779 -0.1017  0.0010 -0.1978
18347W        W35194   1.606  12.554   1.245 -0.0213  0.0368 -0.3440
18348W        W35195   5.386  11.849  14.020  0.0352  0.0158  0.0026
18349W        W35196  17.204  15.727  12.095 -0.0625  0.3294 -0.0562
18350W        W35197  17.696   0.892   2.517 -0.2003 -0.1160  0.1559
18351W        W35198   2.618  13.749  16.015  0.0278 -0.0054  0.0474
18352W        W35199   3.203   8.114  14.222 -0.0029 -0.3502 -0.0883
18353W        W35200   3.497   1.464  14.435 -0.1030 -0.1763 -0.2361
18354W        W35201  14.136  17.429   5.178  0.0876  0.2753  0.0043
18355W        W35202  10.870   1.397  11.522 -0.1100  0.0041  0.0748
18356W        W35203  10.768  17.561  11.698  0.1510 -0.0505  0.2161
18357W        W35204   3.956  16.463   4.280 -0.1596  0.1258  0.1655
18358W        W35205  11.959  13.320   2.202  0.2275 -0.3043 -0.2440
18359W        W35206  11.914  14.722  12.765  0.1068  0.0884  0.0943
18360W        W35207   5.420   0.648   3.327  0.2733  0.1361  0.0592
18361W        W35208  14.919   1.312   0.612 -0.0924  0.1500  0.1358
18362W        W35209  15.245  10.016   4.966  0.2273  0.1792  0.0020
18363W        W35210  15.645  10.631   0.252 -0.1387  0.1025  0.3333
18364W        W35211   9.357  12.373  14.391  0.2255  0.2147  0.1648
18365W        W35212  18.100   2.895   1.048 -0.0608  0.0404  0.0541
18366W        W35213   7.105  16.173  13.160 -0.0362  0.1628  0.1401
18367W        W35214  17.382   3.482   5.022 -0.0740  0.0456  0.1917
18368W        W35215   1.520   2.489  11.320  0.0073 -0.1514  0.0811
18369W        W35216  12.731   4.953   3.833  0.2066  0.2640 -0.1445
18370W        W35217   6.259   2.874  12.238  0.0974 -0.2062  0.0258
18371W        W35218   5.009   6.571   0.488  0.0073  0.0803  0.0323
18372W        W35219   6.131   2.858  11.778 -0.0631  0.0618  0.0991
18373W        W35220   9.957   8.834   5.747  0.2585  0.2840 -0.1750
18374W        W35221  10.851   3.795  13.906  0.0377  0.1131  0.1936
18375W        W35222  10.137   3.315  15.319  0.0520  0.0693 -0.0282
18376W        W35223   0.443  14.419  10.381  0.0935 -0.2549 -0.2061
18377W        W35224  13.077  11.516   0.378 -0.2831  0.1349 -0.1120
18378W        W35225  15.716  14.223  11.527  0.0918 -0.2586 -0.0920
18379W        W35226   7.815   2.069   4.446  0.0807  0.0249 -0.1600
18380W        W35227   0.801   9.253  12.916  0.0606 -0.2124 -0.0393
18381W        W35228  11.182   8.616   5.757  0.0275 -0.1122 -0.1905
18382W        W35229   4.034  11.256   3.766 -0.0634 -0.1087 -0.3195
18383W        W35230  14.686   3.477  12.190  0.1938 -0.1714  0.0752
18384W        W35231   0.967  13.258  15.803  0.1433  0.1798 -0.0269
18385W        W35232   2.787  10.165   5.921  0.1949 -0.0674 -0.0197
18386W        W35233  12.768   3.611   5.069 -0.1188 -0.2814 -0.1808
18387W        W35234  15.929  10.790   3.977 -0.1325  0.0056  0.2421
18388W        W35235   6.322   9.112   0.044 -0.0824  0.0380  0.1590
18389W        W35236   1.360   8.596   0.645 -0.0542 -0.1422 -0.0254
18390W        W35237   1.962  11.343   0.840 -0.0523  0.2027 -0.3671
18391W        W35238  11.125   8.755  13.881 -0.0428 -0.2681 -0.0252
18392W        W35239   2.571   0.300  14.673  0.2211 -0.0689 -0.1438
18393W        W35240   3.170   6.281  15.405  0.0286 -0.0923  0.1649
18394W        W35241   5.710   0.427  13.249  0.2149 -0.0383 -0.2250
18395W        W35242  13.729  18.325   2.046 -0.1370 -0.0388 -0.1755
18396W        W35243   6.548  16.694   1.845 -0.2608 -0.0930  0.2160
18397W        W35244   3.805  12.023   5.580  0.0353  0.0380  0.1181
18398W        W35245   5.100  10.655   2.599 -0.0274  0.2254  0.0676
18399W        W35246  15.160  16.349  12.541 -0.1229 -0.1157  0.0467
18400W        W35247   8.784   2.654  15.436  0.2674  0.2727 -0.1781
18401W        W35248  16.030   4.981   0.229 -0.1121  0.0661  0.1410
18402W        W35249  14.827  17.619  16.187 -0.0394  0.0366  0.1426
18403W        W35250   2.810  15.639   3.743 -0.1698 -0.2201  0.4729
18404W        W35251  10.379  10.904   2.593 -0.1083 -0.0678 -0.1201
18405W        W35252   0.464   8.886  13.121  0.2831  0.0765  0.0347
18406W        W35253  14.199  12.048   4.579 -0.1620 -0.0445  0.1641
18407W        W35254   9.059  17.958   1.783  0.0168  0.1180  0.2491
18408W        W35255  13.192   4.170  12.669  0.2160 -0.4101 -0.2892
18409W        W35256  18.197  12.340   0.415 -0.4747 -0.0199 -0.0998
18410W        W35257  12.696   1.552   5.872 -0.0211 -0.1656 -0.1355
18411W        W35258   0.229   1.897   1.593 -0.1385 -0.1109 -0.2921
18412W        W35259  17.065   3.279  13.707 -0.1106  0.1058 -0.1738
18413W        W35260  11.086   7.966  11.615  0.0130  0.0816 -0.3354
18414W        W35261  12.710  10.966   3.773 -0.0448  0.0462 -0.1397
18415W        W35262  14.217  15.947  15.078  0.0302  0.3383  0.3536
18416W        W35263   9.231   8.865   0.257  0.1345  0.0933 -0.0628
18417W        W35264   6.379   8.614  11.447  0.3470  0.2736  0.0100
18418W        W35265   4.161   8.754  14.738  0.2764  0.0331 -0.1221
18419W        W35266  15.240  13.601  16.006  0.0266  0.1224 -0.0705
18420W        W35267   7.159   0.877   4.993 -0.0867 -0.1677  0.5075
18421W        W35268   5.631   9.297   4.022  0.0755 -0.0893 -0.2173
18422W        W35269  14.453  12.599   2.008  0.4594  0.0340  0.1517
18423W        W35270   5.343  16.253   3.565 -0.2268 -0.0397 -0.3045
18424W        W35271   3.169  10.913   4.553  0.3510 -0.1081 -0.2210
18425W        W35272   6.615  11.977   5.193 -0.0159  0.2792 -0.0346
18426W        W35273  14.311  11.223   2.297 -0.2518  0.2303  0.0599
18427W        W35274   8.922   2.720   0.539  0.1770  0.1609 -0.3288
18428W        W35275   8.094  18.322   0.989  0.1121  0.0453 -0.6227
18429W        W35276  16.035  13.745  12.853  0.0978  0.2987  0.2397
18430W        W35277   5.495   5.920  13.915 -0.0576  0.2096  0.1074
18431W        W35278   2.388   0.729  11.851  0.0180 -0.2035 -0.0768
18432W        W35279  11.565  15.788  12.556  0.2064  0.1048 -0.1602
18433W        W35280   2.949   9.166   5.438  0.0108 -0.0939 -0.0989
18434W        W35281   4.361   7.243  14.335  0.2580 -0.0516 -0.0453
18435W        W35282  13.264   4.436  15.438  0.0766 -0.1592 -0.3003
18436W        W35283  12.263   0.049   2.316  0.1858  0.0881  0.0531
18437W        W35284   8.950  17.608   2.714  0.0269 -0.0234  0.1929
18438W        W35285  13.612  10.560  11.646  0.1544 -0.1843 -0.0635
18439W        W35286   7.219  17.931   1.019 -0.2551 -0.2452 -0.1272
18440W        W35287  17.005   9.783   2.309 -0.1549  0.0195  0.1502
18441W        W35288   2.785   1.856  12.278  0.2944 -0.1855  0.0862
18442W        W35289  16.815   9.165  13.029  0.0676 -0.0739 -0.2389
18443W        W35290   4.024   0.596  12.058  0.0884 -0.1347  0.1580
18444W        W35291  17.752  17.238  12.457 -0.0578  0.1491  0.0724
18445W        W35292   7.583   7.419   5.134  0.0205 -0.2168 -0.0103
18446W        W35293   3.592   4.763   5.694 -0.1452  0.0478  0.1449
18447W        W35294  15.514   9.178   4.679  0.0134  0.0615  0.2812
18448W        W35295  12.818   0.709   2.699  0.1303  0.1124 -0.0983
18449W        W35296   6.828   0.230  12.053  0.2033  0.0786 -0.0321
18450W        W35297  13.240   8.899   1.913 -0.0661 -0.0757  0.0577
18451W        W35298  17.949  11.391   4.341  0.1751  0.0977  0.0994
18452W        W35299   6.870  13.334   5.098  0.1366  0.0830  0.2103
18453W        W35300   6.200   1.815   5.640 -0.1941  0.3804 -0.1180
18454W        W35301  12.156   8.427  15.623 -0.0863 -0.0297  0.1276
18455W        W35302   7.021   9.253  12.430  0.1730  0.1498 -0.2416
18456W        W35303  17.563   2.964  14.249  0.1158 -0.5241  0.1239
18457W        W35304   2.066   5.543  14.228  0.2474 -0.0579  0.0124
18458W        W35305  15.842   3.246  14.660  0.0401 -0.1529  0.0602
18459W        W35306  13.742   4.423  13.610 -0.3341 -0.2503  0.1007
18460W        W35307   7.234  18.141  13.319 -0.0402 -0.1743  0.3488
18461W        W35308   5.770  11.229   0.725  0.2839 -0.1043  0.3246
18462W        W35309   7.783   3.935  12.777 -0.0824  0.1072  0.1967
18463W        W35310   0.963   4.918   4.375 -0.0801  0.1896  0.0747
18464W        W35311   6.364   4.487   5.686 -0.1229  0.0789  0.1288
18465W        W35312  16.284   0.650  12.281  0.1035 -0.3850 -0.0205
18466W        W35313  10.681   7.992  14.157 -0.0670  0.1927  0.2087
18467W        W35314   7.323  13.715  16.173  0.3946 -0.0613  0.0912
18468W        W35315   6.950   2.539  11.789  0.4206  0.2302 -0.1532
18469W        W35316  11.922   8.525  16.043  0.1171 -0.0722 -0.3330
18470W        W35317  12.443   2.576   1.693 -0.3675 -0.1772 -0.1868
18471W        W35318  18.077  10.238  13.329 -0.4196 -0.1622 -0.1957
18472W        W35319  15.442  14.917  15.250 -0.0653  0.1235 -0.1479
18473W        W35320  13.693   4.200   5.393  0.0571  0.0435  0.3680
18474W        W35321   8.792   0.500   1.665  0.1795  0.1818 -0.0247
18475W        W35322   2.653  13.418   2.544  0.0172 -0.0906 -0.1494
18476W        W35323   2.511   3.924  11.620  0.0052 -0.1163  0.2269
18477W        W35324  11.491  15.949  14.615 -0.2156 -0.2645 -0.0043
18478W        W35325   6.492   0.343   4.762 -0.3218 -0.1017 -0.0791
18479W        W35326  12.820  12.337  12.438 -0.0669 -0.5053 -0.4350
18480W        W35327   3.639   0.978   2.317 -0.0439  0.0974 -0.1154
18481W        W35328  12.554  11.619   3.192  0.2252 -0.1793  0.1527
18482W        W35329  11.173   7.101   1.845  0.0588 -0.0295  0.1677
18483W        W35330  16.993   7.224  12.005  0.2866  0.0400  0.2780
18484W        W35331  13.198   3.694  12.535  0.0541 -0.1566 -0.1452
18485W        W35332   4.496   7.789   2.358  0.2624 -0.1750  0.0391
18486W        W35333   2.435  13.849  11.934 -0.2073  0.4697 -0.1157
18487W        W35334   7.382  16.574  15.932 -0.1877  0.1607 -0.2575
18488W        W35335   1.585   5.964   3.701  0.0406  0.2385  0.0224
18489W        W35336  11.951   0.966  13.868  0.2868 -0.0306 -0.2554
18490W        W35337   8.068  17.910   2.906 -0.1465 -0.3989 -0.0372
18491W        W35338  16.666   2.463  11.576 -0.1193  0.0361  0.0604
18492W        W35339  16.327  13.345   0.485  0.0808  0.4484  0.0287
18493W        W35340  11.558   5.361  16.104  0.0989  0.0283 -0.0110
18494W        W35341   3.372  17.611   4.048 -0.0464 -0.0583  0.5433
18495W        W35342   0.887   7.810  15.113  0.2015 -0.0454  0.0287
18496W        W35343  16.366   4.782  13.804  0.0269 -0.1117 -0.1744
18497W        W35344  10.559   0.033  13.374 -0.1478 -0.0490  0.0048
18498W        W35345  13.074   6.755  14.786  0.0499 -0.0218  0.0912
18499W        W35346  16.852  10.299   5.377  0.1470  0.0289  0.1205
18500W        W35347   9.073   2.194   2.670  0.1597 -0.1404  0.0422
18501W        W35348   8.062   6.623   3.239 -0.0751  0.1214 -0.0733
18502W        W35349  15.987  12.989   5.632 -0.0893  0.0350 -0.0217
18503W        W35350   9.233   6.246   2.709  0.3011 -0.2461  0.1793
18504W        W35351   0.630   0.389  11.920 -0.2495 -0.2364  0.1490
18505W        W35352  17.693   6.351   1.333  0.1590 -0.2980  0.0048
18506W        W35353  15.274   9.642  15.362 -0.1158 -0.3803 -0.0186
18507W        W35354   9.742  15.353   5.573  0.2285 -0.1449  0.0663
18508W        W35355   0.641   9.985   2.639  0.1759 -0.0451  0.0581
18509W        W35356  15.108  10.488   5.382  0.2362  0.0997  0.0466
18510W        W35357   5.599   2.654  12.929 -0.2080 -0.0483 -0.2787
18511W        W35358  15.211   2.367   4.307  0.0425 -0.0348  0.0933
18512W        W35359  17.002  15.865   5.938  0.1492  0.1154 -0.3201
18513W        W35360   4.502  12.817   0.881  0.2241  0.2446  0.1670
18514W        W35361  10.051   2.200  10.232 -0.2556 -0.0825 -0.0082
18515W        W35362   1.649   5.002   2.362  0.0675 -0.0541 -0.1225
18516W        W35363   2.910   8.449  15.785 -0.2028  0.1970  0.1556
18517W        W35364  18.002  10.218   5.402 -0.2224  0.1686  0.2343
18518W        W35365  14.980  17.467  11.598  0.0321 -0.1837  0.1565
18519W        W35366   9.271   7.094   2.239 -0.0316  0.0204 -0.2167
18520W        W35367   5.557  16.583  11.779  0.1927  0.0285 -0.2401
18521W        W35368  16.100  14.824   2.514  0.2678  0.2315 -0.1309
18522W        W35369   9.941   4.266  12.844 -0.0999 -0.0219  0.0721
18523W        W35370   7.121  15.856   0.346  0.2078 -0.3254 -0.0739
18524W        W35371  11.948  17.666   2.847  0.2916 -0.0303 -0.2392
18525W        W35372   4.074  13.828   3.796  0.1803  0.0293  0.1422
18526W        W35373  18.073   0.536   0.235  0.0553 -0.0059  0.0458
18527W        W35374  18.203   4.006   5.005 -0.0256  0.0025 -0.2314
18528W        W35375   6.448   1.164   0.766 -0.0041  0.0431  0.1205
18529W        W35376  17.098   5.350  13.369 -0.0112  0.0275  0.0152
18530W        W35377   0.771  13.116  15.234 -0.0492 -0.1560 -0.3653
18531W        W35378   1.834   7.642  14.680 -0.2267 -0.1848 -0.3500
18532W        W35379   2.183  12.746   4.304 -0.2424 -0.1075 -0.2068
18533W        W35380   0.961  11.065   5.225  0.0880  0.1658 -0.2077
18534W        W35381  11.373   2.719   3.973  0.0976  0.2705 -0.0200
18535W        W35382  14.137   1.928   0.696 -0.2089  0.3335  0.0986
18536W        W35383  10.249   7.742  12.821  0.1871 -0.1285 -0.1634
18537W        W35384   5.296   8.638   1.013  0.1636 -0.1692  0.1263
18538W        W35385   4.348  11.423  16.014  0.1169 -0.0023 -0.2298
18539W        W35386  14.544  17.538   1.388  0.0417 -0.0926 -0.1882
18540W        W35387   4.970   9.897  13.626  0.0491 -0.2557 -0.0610
18541W        W35388  16.205   3.561   0.926 -0.4920  0.0776 -0.0197
18542W        W35389  16.844   0.415   1.927 -0.3791 -0.1073 -0.2651
18543W        W35390  14.143   2.851   1.408  0.0485 -0.0144  0.0831
18544W        W35391  18.119  17.403   2.919 -0.2404 -0.1295 -0.1816
18545W        W35392   1.990   2.963  13.548  0.2112  0.0348 -0.1094
18546W        W35393   1.373   5.033   4.084  0.4039 -0.1693 -0.1797
18547W        W35394   3.186   7.429   0.757  0.1974 -0.1190  0.3589
18548W        W35395   3.624  16.565   2.947  0.0212  0.0608 -0.1469
18549W        W35396   2.563   7.282   3.402  0.2361 -0.0037 -0.2386
18550W        W35397  17.376   7.301  13.930  0.1577  0.0117  0.1109
18551W        W35398   0.783  17.793  12.994  0.1783 -0.1386  0.0426
18552W        W35399  13.316  14.145  13.881  0.1256 -0.3892  0.1093
18553W        W35400  10.618   1.339   0.512  0.2151  0.2211 -0.1579
18554W        W35401   1.025  11.431  12.082  0.0255 -0.1535 -0.0500
18555W        W35402  12.319   2.287   5.624  0.0523 -0.0919 -0.1440
18556W        W35403   7.112  13.322  13.953  0.1495 -0.0638  0.1083
18557W        W35404  15.151   6.503   2.676  0.1176  0.3267 -0.0699
18558W        W35405  12.475   8.906   0.650  0.2258  0.0689 -0.2163
18559W        W35406   5.809  14.151   4.960 -0.0716 -0.2286  0.0141
18560W        W35407   1.111  17.939   4.670 -0.1089 -0.0649  0.3123
18561W        W35408   3.251   3.161  11.707  0.2747  0.2773  0.0381
18562W        W35409  13.133   5.735   1.518 -0.1105 -0.0019 -0.0857
18563W        W35410  14.838   0.423   4.976  0.3998 -0.1198 -0.1394
18564W        W35411   6.530   6.445  14.424  0.1097 -0.0224  0.0123
18565W        W35412   9.433   3.746   3.569 -0.2685 -0.0447  0.0412
18566W        W35413  13.918  11.222  12.588  0.0702  0.0127 -0.1623
18567W        W35414   2.176  11.994   2.961 -0.1117  0.0664  0.0165
18568W        W35415   0.442  14.288  15.079 -0.2043  0.0200 -0.0287
18569W        W35416  15.936  17.814  14.848  0.1815  0.0836 -0.0793
18570W        W35417  11.836   2.694  12.982 -0.1939 -0.0531 -0.0789
18571W        W35418   0.768  16.842   0.102 -0.0109 -0.3264 -0.3888
18572W        W35419   1.524   7.641   5.069  0.0071 -0.0305 -0.1324
18573W        W35420   6.929   8.410   2.716 -0.0446  0.1159  0.3011
18574W        W35421   7.449  14.816  11.280  0.0563  0.1912  0.1866
18575W        W35422  12.716  16.253   3.448 -0.1119 -0.2759 -0.0693
18576W        W35423   9.624  11.683  14.961 -0.0051 -0.0865  0.2286
18577W        W35424  14.359  11.238   3.359  0.0117 -0.1331  0.2505
18578W        W35425  16.176   7.171  12.559 -0.1084  0.0753  0.0078
18579W        W35426  16.145   9.818  13.155 -0.0012 -0.1301  0.1710
18580W        W35427   7.786  10.167   4.889 -0.0081  0.0178 -0.0274
18581W        W35428  14.059   5.969  12.366  0.2423 -0.0746  0.2815
18582W        W35429  10.954   8.921   3.607 -0.0794 -0.0471  0.1054
18583W        W35430   6.698   5.109  13.738  0.1097  0.0088  0.1441
18584W        W35431   4.306   6.229   3.047  0.0269 -0.0366 -0.0964
18585W        W35432   2.151   9.575   6.504 -0.0925  0.1220 -0.0900
18586W        W35433   2.644  15.580  14.287  0.2049 -0.2831  0.1066
18587W        W35434   9.995  11.546   3.735  0.0258 -0.1678 -0.0677
18588W        W35435   1.348   7.279  15.334 -0.2358 -0.1496 -0.0487
18589W        W35436   1.694  18.147  13.249 -0.2696 -0.0471  0.0949
18590W        W35437   6.685  14.478  13.306 -0.0708 -0.0344 -0.0697
18591W        W35438  15.466   2.084   0.189 -0.0268  0.0010 -0.0924
18592W        W35439  18.290   7.584   3.310  0.3311 -0.2283  0.0085
18593W        W35440   6.756  16.825   2.386 -0.0031 -0.1907  0.0699
18594W        W35441  11.023  10.669  14.321  0.1195  0.0538 -0.1763
18595W        W35442  15.669   7.107   3.793 -0.2654 -0.1045  0.0124
18596W        W35443   2.845  12.980  12.608 -0.0769 -0.1455 -0.0091
18597W        W35444   6.998   6.771   2.524 -0.3988 -0.1994 -0.0001
18598W        W35445  17.600  14.413   0.530 -0.2735  0.0332  0.2847
18599W        W35446  12.345  13.024  15.174 -0.1391 -0.4794 -0.1062
18600W        W35447  12.893   3.677  12.150 -0.0866  0.1361 -0.0215
18601W        W35448   4.194   0.021   3.252 -0.1319 -0.1301  0.0271
18602W        W35449   8.226  13.188   3.948  0.0537 -0.2589 -0.0103
18603W        W35450  14.467  13.189   5.615 -0.0170  0.1820 -0.0237
18604W        W35451   6.562   0.182   2.803 -0.1215 -0.2679  0.2274
18605W        W35452  14.829  16.684   1.657 -0.1435 -0.2377 -0.0519
18606W        W35453  15.380  12.838  11.843 -0.0593 -0.0688  0.2263
18607W        W35454   0.136  11.490  15.085 -0.0936  0.2059 -0.1684
18608W        W35455  10.453   1.611   3.288 -0.0343  0.2696  0.0084
18609W        W35456   7.397   2.854  13.940  0.1850  0.1315  0.1145
18610W        W35457  15.530   1.204  13.085  0.3036 -0.0737  0.2479
18611W        W35458  14.515   6.146  14.641 -0.0498  0.1596  0.0650
18612W        W35459  10.768   7.876  11.997  0.1758  0.3155  0.3729
18613W        W35460   5.628   4.457   4.250 -0.0752  0.1840  0.1964
18614W        W35461  18.281  13.542   0.945  0.2116  0.0801  0.1949
18615W        W35462  14.111   4.703   5.073  0.0220  0.3254 -0.1717
18616W        W35463   1.255  12.084   5.385  0.1595 -0.2125 -0.3329
18617W        W35464   9.827  16.247   4.848  0.0796 -0.0959 -0.2540
18618W        W35465  18.089   0.861  14.643  0.2343 -0.2014 -0.3141
18619W        W35466  10.182   8.523  11.340 -0.1236 -0.1752 -0.1305
18620W        W35467  14.240   8.740   5.060 -0.0624 -0.3134  0.1201
18621W        W35468   0.997  10.912  14.357 -0.3147 -0.0938  0.1035
18622W        W35469   4.236  15.065  13.520 -0.1343  0.1112 -0.3114
18623W        W35470   7.056   8.067   0.764  0.1098  0.1606 -0.1011
18624W        W35471  11.464   6.512   1.269  0.0239  0.1650 -0.1220
18625W        W35472  13.069   8.085   5.715 -0.0518  0.1140 -0.4738
18626W        W35473   7.910  17.491  14.342  0.1075 -0.0178  0.2513
18627W        W35474   7.096  10.887   1.417  0.0347 -0.3228  0.1231
18628W        W35475   0.533  15.395  11.613  0.0610 -0.3168 -0.1234
18629W        W35476  12.188   4.574  12.735  0.0644 -0.1870 -0.1144
18630W        W35477   8.628  12.524  16.170  0.0553  0.0212  0.3854
18631W        W35478  13.004   4.906   5.110  0.2781 -0.1479 -0.0900
18632W        W35479  12.424  13.181   1.184 -0.1071  0.0540  0.1964
18633W        W35480   0.410   5.577  11.333 -0.0335  0.2671  0.0335
18634W        W35481  10.894   7.298   2.268 -0.0581 -0.1901  0.2999
18635W        W35482   8.002   8.370   0.836  0.1044  0.2928 -0.0453
18636W        W35483   8.105   5.630  12.125 -0.0614  0.2831  0.3142
18637W        W35484  17.396   1.779   1.524 -0.0330 -0.2283  0.3855
18638W        W35485   3.844  16.591  11.334 -0.1495 -0.1255  0.0611
18639W        W35486  10.392   6.463   3.966 -0.0882 -0.0928 -0.2832
18640W        W35487   2.157   0.069   2.811  0.0431  0.0224 -0.0387
18641W        W35488  11.465   3.551  11.004 -0.1830 -0.2629 -0.0941
18642W        W35489   4.818   5.655  12.010  0.0299 -0.3732  0.1221
18643W        W35490  16.466   8.979   0.856 -0.1612 -0.2651 -0.2594
18644W        W35491   4.627   4.801   1.412  0.2631 -0.0494 -0.3156
18645W        W35492   4.668  17.837  16.009 -0.2859  0.1731 -0.0671
18646W        W35493   9.959  15.614  15.786 -0.3930 -0.2718 -0.1050
18647W        W35494  15.888  16.581  15.037 -0.1246 -0.4005 -0.1535
18648W        W35495  13.896  11.684   3.127 -0.2310 -0.0191 -0.0080
18649W        W35496   2.641  12.381  14.995  0.2424 -0.3069  0.2401
18650W        W35497   9.967   6.657  11.484  0.0946  0.1511  0.4044
18651W        W35498  10.060  12.319   0.280 -0.3022 -0.0264  0.1865
18652W        W35499   5.240   3.576   1.556 -0.0996 -0.1701  0.2888
18653W        W35500  15.468   5.806  15.547 -0.0916  0.1792 -0.5320
18654W        W35501   4.764   6.232   5.433  0.2496 -0.0679  0.0420
18655W        W35502  16.991  11.759   5.241 -0.1523 -0.0271  0.0864
18656W        W35503  18.180  18.070  14.863 -0.0657  0.1670 -0.4398
18657W        W35504   6.363  12.440   3.835 -0.1353 -0.2595 -0.1193
18658W        W35505  11.226  13.668   2.603 -0.2263  0.2045 -0.0683
18659W        W35506  16.017  11.631   5.124  0.2687 -0.0823 -0.0349
18660W        W35507  17.345  15.669   5.629  0.1510  0.1388  0.2078
18661W        W35508   5.862   1.823   2.163 -0.1716  0.0929  0.1063
18662W        W35509   8.718   2.144   4.667  0.1904 -0.0749  0.0552
18663W        W35510  11.474   3.293  15.179 -0.2811  0.2401  0.2306
18664W        W35511  16.186   9.578  11.544  0.2495 -0.3116  0.2292
18665W        W35512   0.356  16.221   0.426  0.0907 -0.0143 -0.0520
18666W        W35513   1.898   8.081   5.953 -0.0323  0.0397  0.1201
18667W        W35514   5.919  17.528  12.497 -0.2461 -0.0512 -0.1213
18668W        W35515  12.453   7.361   1.348  0.1381 -0.3130  0.1577
18669W        W35516  13.068   1.494  12.982 -0.1171  0.1180  0.0806
18670W        W35517  16.970   2.549   4.619  0.1673  0.1755 -0.0912
18671W        W35518   9.539  17.253  13.639 -0.0255 -0.2516 -0.1093
18672W        W35519  14.150   4.242  14.564  0.2023 -0.2304 -0.0430
18673W        W35520   5.487  11.172   4.545  0.2885  0.2130 -0.2390
18674W        W35521   9.994  15.330  12.022  0.1000 -0.2505 -0.1568
18675W        W35522   1.196   4.202   3.951 -0.0885  0.3217  0.1116
18676W        W35523   2.762   4.062  12.863  0.2084  0.1294  0.0017
18677W        W35524   9.036   0.826  11.232 -0.0270  0.2855 -0.0328
18678W        W35525   4.541   4.489  15.832  0.0092 -0.0248 -0.0057
18679W        W35526   1.321  17.320  14.841  0.1077 -0.1512  0.0045
18680W        W35527   6.779  11.955  12.454 -0.0172  0.1020 -0.1127
18681W        W35528  16.825  10.760   5.492 -0.0810 -0.0460  0.1723
18682W        W35529  16.888   8.471  13.492  0.2090  0.1880  0.0255
18683W        W35530  14.367  13.194  15.381 -0.3005  0.1612  0.0878
18684W        W35531   1.596   6.964   3.079 -0.0602 -0.1062 -0.2337
18685W        W35532   1.649  15.764   1.128 -0.2373 -0.0626 -0.0191
18686W        W35533   4.434  14.247  12.043  0.1165  0.0788 -0.6142
18687W        W35534  16.749  10.808   1.505 -0.1448 -0.0963 -0.2917
18688W        W35535   7.607   6.061   5.587 -0.1024  0.1256 -0.1355
18689W        W35536   2.009   0.311   3.294 -0.2275  0.0532  0.0677
18690W        W35537   4.238  11.850  11.245 -0.0373 -0.2066 -0.0522
18691W        W35538   6.987   3.267  14.848  0.0693 -0.2984 -0.0778
18692W        W35539  14.148   1.638   3.682 -0.0194  0.0445 -0.3014
18693W        W35540   3.502  14.789  13.918  0.3492 -0.1289  0.0364
18694W        W35541  10.052  11.843   0.950  0.0266  0.2253  0.2179
18695W        W35542   4.846   8.689  13.447  0.0045 -0.0727 -0.0372
18696W        W35543   5.116   9.917   2.281  0.0841 -0.2078  0.0487
18697W        W35544   6.995  14.216  13.534 -0.1135  0.1170  0.0162
18698W        W35545  18.294  13.247  15.420 -0.1752 -0.1022 -0.0744
18699W        W35546   2.842   1.664   2.316 -0.0712  0.4303  0.0569
18700W        W35547  13.957   9.053  11.520  0.0956  0.0394 -0.2025
18701W        W35548  11.164   9.789   0.430  0.1297 -0.0995  0.1558
18702W        W35549  17.535  12.634   1.235 -0.0413 -0.1262  0.1625
18703W        W35550   9.960   3.063   0.000  0.1863 -0.0520 -0.0225
18704W        W35551  14.069   8.243  11.791  0.1415 -0.0772  0.2725
18705W        W35552   7.389  11.684  15.371  0.1230 -0.3568  0.2980
18706W        W35553  15.686   2.691   4.941  0.0226  0.1105  0.0020
18707W        W35554   3.441  16.361   4.390  0.1414 -0.1881 -0.3228
18708W        W35555   5.398  15.577  13.226  0.1011  0.0842 -0.1713
18709W        W35556   6.470   4.762  12.291  0.1741 -0.0775  0.2731
18710W        W35557  15.080   6.116  15.421 -0.2004 -0.1460 -0.4272
18711W        W35558   9.036  16.648  14.577  0.5113 -0.4327 -0.0896
18712W        W35559   6.263   3.268  15.427 -0.2966 -0.0057 -0.1708
18713W        W35560   2.066   6.007  15.689  0.3656 -0.2087  0.2175
18714W        W35561   4.854   0.946  12.232 -0.1439 -0.1218 -0.1314
18715W        W35562   0.406  16.809   1.038 -0.1067 -0.3693  0.2675
18716W        W35563   5.500  12.123  14.422  0.1152  0.1486  0.2466
18717W        W35564   4.956  13.995  15.394 -0.2519 -0.0109  0.2416
18718W        W35565  18.016   4.183  13.223  0.4096  0.0462 -0.1668
18719W        W35566   9.462  10.444   3.452  0.2102  0.0009 -0.1878
18720W        W35567   0.226  12.753   3.558 -0.0365  0.0971 -0.2655
18721W        W35568  13.070   2.252  15.062 -0.3961  0.2416 -0.0637
18722W        W35569  13.956   2.665   1.880 -0.0917 -0.1308 -0.0435
18723W        W35570  12.965   3.197  12.407 -0.3198  0.0925 -0.3316
18724W        W35571  10.489   7.896  11.268  0.2137  0.1674  0.0164
18725W        W35572   2.457   2.085  11.569 -0.2078  0.1890  0.0992
18726W        W35573   4.856  16.403  13.187  0.0602  0.0454  0.4072
18727W        W35574  16.138  12.897   3.862 -0.1253 -0.2620  0.1565
18728W        W35575   5.922   5.368   2.819 -0.1370 -0.0765  0.0989
18729W        W35576  13.336   0.311   1.432  0.0494 -0.0557  0.2682
18730W        W35577  13.893   6.424  12.574 -0.2107  0.1056  0.4692
18731W        W35578  16.997  15.223   1.853 -0.1631  0.2182 -0.3085
18732W        W35579  17.447  11.930   5.537  0.1545  0.1620  0.2321
18733W        W35580  11.913   0.042   1.927  0.0441  0.1812  0.1173
18734W        W35581   2.304   1.229  15.947 -0.4028 -0.0013 -0.1591
18735W        W35582   1.235   8.194  14.286 -0.0102 -0.1124 -0.2366
18736W        W35583  12.772   6.359   3.098 -0.2550 -0.0694 -0.0967
18737W        W35584  16.362  16.869   4.461 -0.0588 -0.0106  0.2427
18738W        W35585   1.542  11.088   4.348  0.0567  0.0492  0.0512
18739W        W35586   5.658   5.346   5.846 -0.0465 -0.1257  0.1733
18740W        W35587  13.197   8.791   2.943 -0.1516  0.2731 -0.2123
18741W        W35588   8.549   4.936  14.783 -0.0220 -0.0033 -0.0767
18742W        W35589  17.638  14.066  11.115  0.0896 -0.1278  0.1619
18743W        W35590  14.352   2.853   4.135  0.1468  0.1330  0.0131
18744W        W35591   4.908  11.294   1.470  0.0669 -0.5384  0.1232
18745W        W35592   8.780  12.440   2.098  0.1167  0.0157  0.1199
18746W        W35593   9.377   5.276  10.373 -0.0787  0.1614 -0.0248
18747W        W35594   4.227   4.775   4.347  0.1388 -0.0732  0.0165
18748W        W35595  14.917   9.535   3.282  0.0937 -0.0019 -0.1061
18749W        W35596   4.329   1.059  12.041  0.1131 -0.1951  0.0099
18750W        W35597  14.388  12.465   4.413 -0.0621 -0.0029 -0.0691
18751W        W35598  16.341   3.008   0.825 -0.1635 -0.0457  0.0291
18752W        W35599   4.598  18.260  14.360  0.1449  0.5689  0.2130
18753W        W35600   7.577   7.938   2.152 -0.0028 -0.1907  0.0844
18754W        W35601   8.384  16.156  11.423  0.2081  0.2271  0.0306
18755W        W35602   7.804  15.232   5.052  0.4078 -0.1139 -0.1872
18756W        W35603   2.734  16.161  14.913 -0.2075 -0.1322 -0.0530
18757W        W35604   4.262   2.676  13.246 -0.0696  0.3422 -0.3254
18758W        W35605  17.239   2.353   3.609  0.0474 -0.1708 -0.0962
18759W        W35606   0.953   0.028  12.748 -0.0542 -0.0769 -0.0877
18760W        W35607   4.903  15.516   5.099  0.1067 -0.1625 -0.2004
18761W        W35608   4.519   5.495   2.557  0.2865  0.0083 -0.2464
18762W        W35609   1.885   5.627  10.669 -0.4575  0.0630  0.1572
18763W        W35610   1.975  15.099   0.142 -0.2696 -0.0372 -0.0870
18764W        W35611   3.557   2.020  16.142 -0.2712 -0.2757 -0.0302
18765W        W35612  14.500   3.197   0.375  0.0982 -0.1455 -0.0444
18766W        W35613  10.636   0.650  12.627  0.1183 -0.4660 -0.0836
18767W        W35614   3.751   8.954  11.546  0.3451  0.0500 -0.2113
18768W        W35615  17.466   3.241   3.625 -0.2669  0.1843  0.2702
18769W        W35616   5.308  16.568  10.943  0.0808  0.1105 -0.0061
18770W        W35617  13.906   2.720   0.890 -0.2378  0.1041 -0.1505
18771W        W35618  10.069  13.530  11.644 -0.0468 -0.2771  0.4911
18772W        W35619   0.916  12.791   1.429  0.0202  0.1268  0.1749
18773W        W35620  12.295   2.541  12.821  0.0723  0.1251  0.2247
18774W        W35621  16.968   4.288   4.350 -0.3562 -0.0726  0.1450
18775W        W35622   6.606  12.754  12.704  0.0428  0.1493  0.1397
18776W        W35623  16.661  11.384  13.790  0.0899 -0.0087  0.1531
18777W        W35624   4.557   2.217   2.036 -0.2025  0.0837 -0.0381
18778W        W35625  16.193   9.145   0.474 -0.2888 -0.0049  0.0931
18779W        W35626   8.211  16.210  10.890 -0.3265 -0.2680 -0.0315
18780W        W35627  14.118  13.250   0.711  0.1195  0.2180  0.3097
18781W        W35628   1.887   4.276  10.887  0.0610  0.3008  0.1736
18782W        W35629  15.096   2.543   0.071  0.0545  0.0738 -0.0480
18783W        W35630   3.458  12.295  14.152  0.1587 -0.0288  0.0420
18784W        W35631   3.925   4.174   4.439 -0.0974 -0.1475 -0.0291
18785W        W35632   8.377  16.397   3.966 -0.0379  0.1101  0.2931
18786W        W35633   5.408   8.963  11.907  0.2365 -0.0297 -0.1989
18787W        W35634   4.302  14.163   3.453  0.2154  0.1611  0.3580
18788W        W35635   8.312   0.473   0.834  0.1986 -0.1919 -0.1350
18789W        W35636   8.135  12.289  12.103  0.0424  0.1884  0.3637
18790W        W35637  16.981  12.955  12.289 -0.1957  0.1179  0.0158
18791W        W35638   3.765  15.201   4.039  0.2509 -0.2514  0.0962
18792W        W35639  11.531   8.985  11.597  0.1627  0.0160  0.0038
18793W        W35640   4.096  16.533   0.467 -0.0428 -0.3667  0.3805
18794W        W35641   2.484   8.614  12.462 -0.1841  0.3891  0.0837
18795W        W35642   8.756   2.942   3.939 -0.2275 -0.0018  0.3979
18796W        W35643   1.444   9.182   3.624  0.1892  0.2179 -0.1096
18797W        W35644  17.644  15.217   0.246 -0.0262 -0.1309  0.0522
18798W        W35645  17.165  11.646  13.164 -0.1820  0.2256 -0.0010
18799W        W35646   5.416  14.922   5.363  0.2006  0.1000 -0.0850
18800W        W35647   8.322  13.499  12.047 -0.0126  0.1324  0.1065
18801W        W35648   7.778   9.677  13.809 -0.0743 -0.1926 -0.1477
18802W        W35649   2.121   4.643   1.539 -0.4444  0.2010  0.0740
18803W        W35650   7.042  12.121  11.660  0.0122  0.0933  0.3369
18804W        W35651  16.217   7.105   5.184  0.0768 -0.1526  0.1650
18805W        W35652   4.768  17.946   4.582 -0.1540  0.1422  0.2349
18806W        W35653  11.844   4.067  12.146  0.0711 -0.1868  0.0542
18807W        W35654  16.764   2.820   2.058  0.2517 -0.0822  0.1943
18808W        W35655   8.706   8.991   3.569 -0.1236 -0.5239  0.2000
18809W        W35656  18.072  15.199   0.557  0.1791  0.0469  0.0565
18810W        W35657  16.211  11.205  14.024 -0.1237  0.0317 -0.0934
18811W        W35658   5.580   2.216   4.372  0.2602  0.0219 -0.0436
18812W        W35659   0.059  12.602  12.076 -0.3113 -0.0656 -0.0849
18813W        W35660  16.952   0.640   4.794 -0.2069 -0.0038 -0.2136
18814W        W35661   7.125   1.863   5.404  0.1811  0.6580  0.5242
18815W        W35662   8.583  13.673  15.735  0.2428 -0.1351  0.0927
18816W        W35663  12.091  16.737  13.373 -0.1280 -0.0187 -0.1505
18817W        W35664   0.341  15.092   2.429  0.1035 -0.2835 -0.0362
18818W        W35665  12.892  15.786   1.821 -0.0152  0.1651 -0.3970
18819W        W35666  17.703   9.065  12.781 -0.0081 -0.2135  0.0637
18820W        W35667  16.086  12.476   0.344  0.0755  0.0633  0.1989
18821W        W35668   2.119  13.181   3.966  0.1132  0.1032  0.4253
18822W        W35669   5.993  13.319  15.758 -0.1300  0.0060  0.1249
18823W        W35670   2.917  15.434  12.795  0.1303  0.0444 -0.0851
18824W        W35671  12.331   6.944   4.602 -0.0262  0.0840 -0.2031
18825W        W35672  13.917  17.131  13.718  0.2860 -0.0563  0.1910
18826W        W35673  15.715   8.462  13.014  0.1755  0.0531 -0.2632
18827W        W35674  10.291   4.610  11.954 -0.2007  0.1277  0.0007
18828W        W35675  11.574   5.671   5.665 -0.4428 -0.0250  0.0121
18829W        W35676   1.364   0.634   2.866 -0.1606  0.1172 -0.0276
18830W        W35677  12.477   6.363  11.695  0.0212  0.3086  0.1755
18831W        W35678  11.936  13.637   5.626 -0.1088  0.0374  0.2026
18832W        W35679   4.178   4.078  12.013  0.1615 -0.4200 -0.0106
18833W        W35680  15.822   8.934  15.420  0.2846 -0.1137  0.1728
18834W        W35681   8.349  16.081  14.064  0.0176  0.0700  0.0711
18835W        W35682  17.425  10.298   3.844 -0.0148 -0.0417  0.0987
18836W        W35683  15.100   4.452  13.603  0.0935  0.0069 -0.1636
18837W        W35684  16.746   2.989   0.429  0.3757 -0.1430 -0.0645
18838W        W35685  11.225   2.077   4.849  0.3913  0.0515 -0.1495
18839W        W35686  17.752   4.505  14.890 -0.2102  0.1700  0.1991
18840W        W35687   7.753   3.978   0.790  0.0820  0.0810 -0.2394
18841W        W35688   2.266   9.498   4.732  0.1515 -0.1423 -0.0030
18842W        W35689   8.755   6.015   2.791 -0.1401  0.0026  0.0816
18843W        W35690   2.505  10.252   2.452 -0.2009  0.0281  0.1327
18844W        W35691   5.969  18.276   3.579 -0.0373 -0.3107  0.1518
18845W        W35692   0.444   3.471  13.506 -0.2177  0.0203  0.1628
18846W        W35693   7.461   8.297   1.770  0.0488 -0.1128  0.0022
18847W        W35694   4.328   9.022  15.198 -0.1572  0.2025  0.2316
18848W        W35695   5.241   3.177   5.100  0.2067 -0.1378  0.3551
18849W        W35696  10.616  10.664  14.577 -0.2098  0.1108 -0.2390
18850W        W35697  17.458  15.153  15.931 -0.3497 -0.2788 -0.1658
18851W        W35698   6.501   1.432  15.416  0.0487  0.2700  0.1732
18852W        W35699   2.247  11.572  14.549 -0.1389 -0.1399 -0.1923
18853W        W35700   3.827   0.502   2.399  0.1964  0.1488  0.1236
18854W        W35701   7.465   3.332   3.657  0.1054 -0.2092 -0.0265
18855W        W35702   6.693   1.018  12.988  0.0302  0.1845 -0.4297
18856W        W35703  16.627  12.724   3.210  0.2097 -0.2054  0.2275
18857W        W35704  10.612  16.606   2.154 -0.1133  0.1328  0.0445
18858W        W35705   3.245   7.052   5.290  0.1564 -0.1204 -0.0286
18859W        W35706   8.348  10.614  12.989  0.0339 -0.0987 -0.1468
18860W        W35707  13.148   3.976   5.536  0.1764 -0.1701  0.1067
18861W        W35708   9.840   5.486   0.437 -0.1286 -0.0003  0.0498
18862W        W35709  18.115  11.670  11.644 -0.0062  0.3513 -0.1818
18863W        W35710   2.547   7.793   0.984 -0.0476  0.1394 -0.0859
18864W        W35711  13.065  10.829  15.825  0.2912  0.1062  0.3311
18865W        W35712   9.214   9.400  14.336 -0.1909 -0.1580 -0.2406
18866W        W35713   5.253   8.663   2.894  0.0211 -0.1004  0.0742
18867W        W35714   1.292  12.919  14.989 -0.1243  0.1404 -0.1687
18868W        W35715   9.108   1.963  13.501  0.0434  0.2583 -0.2003
18869W        W35716   4.557  17.214  11.988 -0.0261  0.1379 -0.1934
18870W        W35717   2.353  11.962   5.419 -0.1183  0.0935  0.0552
18871W        W35718  15.576   7.692   2.269 -0.1645  0.2234 -0.1535
18872W        W35719  17.065  13.617   4.925 -0.1928  0.1330  0.3599
18873W        W35720   0.342   3.683   3.241  0.1932  0.3368 -0.0093
18874W        W35721   9.721   6.139  14.622 -0.0698 -0.0603 -0.2211
18875W        W35722  11.860  12.986  12.717  0.0065 -0.1841 -0.0604
18876W        W35723  15.826  17.632   1.778 -0.2097  0.0326 -0.0367
18877W        W35724   0.820  11.019  12.983  0.0136  0.1133 -0.0834
18878W        W35725  16.945   2.018   4.461 -0.2109 -0.1567  0.0518
18879W        W35726   5.694  15.960  14.041 -0.2817  0.0709  0.0127
18880W        W35727  10.420   5.875  15.711  0.0106 -0.5302  0.0780
18881W        W35728   7.223  14.239   4.165  0.0055  0.1901 -0.3366
18882W        W35729  11.654   1.837   5.958 -0.2151 -0.0942 -0.1000
18883W        W35730  15.721   1.228  15.485 -0.2320 -0.1052 -0.0240
18884W        W35731   2.450  12.021   4.916  0.3607  0.2278  0.2375
18885W        W35732  18.319  18.297   4.348 -0.0672  0.1862 -0.0311
18886W        W35733  14.451  16.860  12.872 -0.0893 -0.0324 -0.0538
18887W        W35734  10.624   9.709   4.502  0.3567  0.2922 -0.2406
18888W        W35735   9.452  16.746   2.626  0.0431 -0.0339 -0.3691
18889W        W35736   5.640   0.077   0.996  0.0682  0.0724 -0.2917
18890W        W35737   3.888  14.782   3.640  0.0952 -0.1234  0.0451
18891W        W35738   8.538   5.555   0.821  0.1072 -0.1383  0.0643
18892W        W35739  16.076   0.123  16.015  0.0421 -0.0440  0.1227
18893W        W35740   1.103   0.865   1.406  0.2785  0.1214  0.0196
18894W        W35741   3.078   0.221   0.113 -0.1282 -0.1299  0.2964
18895W        W35742   3.225   5.982  13.781  0.2369 -0.0760  0.0641
18896W        W35743   7.672  13.557   2.639  0.0067 -0.1988 -0.3084
18897W        W35744  13.306   0.117   3.519 -0.0901 -0.1000  0.1392
18898W        W35745   5.539  16.324   0.547 -0.1276 -0.0887 -0.0088
18899W        W35746  12.440   4.795  14.321  0.2580 -0.0592 -0.1358
18900W        W35747   7.036   1.815  15.013  0.0784 -0.2248  0.1381
18901W        W35748  13.952   3.547   3.135  0.1934 -0.3805  0.2150
18902W        W35749  13.565   9.850  13.495 -0.1546 -0.0282  0.2499
18903W        W35750   7.326   8.261   5.443 -0.1421 -0.2068 -0.0013
18904W        W35751   3.081  12.462  15.278  0.0203  0.1512  0.1526
18905W        W35752  14.508  10.600   3.005  0.1316  0.0952 -0.2060
18906W        W35753  10.920   5.939  11.044 -0.1708  0.0215 -0.0583
18907W        W35754   6.325   3.282  10.551  0.0776  0.0470 -0.0124
18908W        W35755   2.826  10.471   1.472  0.1625 -0.0053  0.3401
18909W        W35756  13.201  12.457  14.317 -0.1033  0.0949  0.0089
18910W        W35757   5.057  11.347   3.056  0.2064 -0.0825 -0.3057
18911W        W35758  17.924  11.759  14.501  0.2434  0.1595  0.0448
18912W        W35759   6.951  13.612  12.598 -0.2807 -0.1957 -0.1521
18913W        W35760  15.704  14.631   1.136  0.1957  0.2140 -0.0450
18914W        W35761  11.350  11.037  15.148 -0.1808 -0.0799  0.1444
18915W        W35762   7.718   7.056  13.176 -0.0541 -0.5377 -0.3017
18916W        W35763  15.930   6.767   0.308 -0.0133  0.1039  0.1167
18917W        W35764   3.527  14.484  12.506  0.0231 -0.0262 -0.1861
18918W        W35765   2.284  15.745   1.338  0.0492  0.0074  0.0557
18919W        W35766  16.703   1.973  11.637  0.0528  0.3809 -0.0876
18920W        W35767  10.203  13.338  15.654 -0.1233 -0.1194  0.0565
18921W        W35768  12.506   2.579   2.765  0.2768 -0.0112 -0.1170
18922W        W35769   4.317  12.960   2.312  0.1470  0.1159 -0.2529
18923W        W35770  16.661  14.847  14.970  0.1216 -0.1616  0.1083
18924W        W35771  13.306  11.003  15.348  0.0539 -0.0714 -0.2353
18925W        W35772  17.307   9.992  15.812  0.0794 -0.4015  0.0377
18926W        W35773   6.221   2.564   1.522  0.1465 -0.0408  0.1156
18927W        W35774   4.700   1.395  12.061  0.0412  0.0237 -0.4759
18928W        W35775  17.917   6.882  12.352  0.1367  0.1350 -0.0895
18929W        W35776   1.628  15.088   4.275 -0.2043  0.4406 -0.0812
18930W        W35777  11.485  13.460  14.332  0.0754 -0.0965 -0.2739
18931W        W35778   1.077   7.473   4.388  0.0484 -0.0627  0.2125
18932W        W35779   3.865  13.294  15.905  0.1938  0.3459  0.1662
18933W        W35780  12.112  11.891   2.729 -0.1927 -0.2506  0.0045
18934W        W35781  15.291   5.492   4.722 -0.1999  0.4094 -0.1361
18935W        W35782   5.413   9.690   5.765  0.0152  0.3005 -0.2767
18936W        W35783   0.627  15.303  12.631 -0.0441 -0.2964  0.1128
18937W        W35784   4.394  17.173  12.480  0.0344  0.0165  0.2038
18938W        W35785   8.044  10.683   1.157  0.0046 -0.1893 -0.2101
18939W        W35786   1.423   4.677  15.451 -0.1134  0.3172  0.0361
18940W        W35787  11.546   8.648  11.225 -0.0164 -0.1360 -0.0419
18941W        W35788  15.146  13.342  13.264  0.2750 -0.2940 -0.1525
18942W        W35789  17.185   0.183   0.899 -0.1932 -0.1860  0.1334
18943W        W35790  11.118  11.217   1.565  0.1198 -0.0246  0.0810
18944W        W35791   5.552   4.677  15.848 -0.2728 -0.1513  0.0061
18945W        W35792   1.172   5.961   1.389  0.1059 -0.2033 -0.2301
18946W        W35793   5.499  13.363  13.856  0.2496  0.0578 -0.1218
18947W        W35794  13.162   1.374  14.819  0.0223  0.3096 -0.0298
18948W        W35795  10.950  15.811   3.516  0.1493  0.0046 -0.1030
18949W        W35796  17.852  10.409  12.442 -0.2342  0.3915 -0.1205
18950W        W35797   1.490  14.758   3.273  0.3491 -0.2211 -0.2185
18951W        W35798  14.629   0.193  13.876  0.2800 -0.2688 -0.1931
18952W        W35799  15.122   9.278   0.151  0.1859  0.2158 -0.2881
18953W        W35800  10.863   6.278   1.345  0.0896  0.0176 -0.0639
18954W        W35801   9.936   7.354  13.802  0.0543 -0.0414 -0.2789
18955W        W35802   4.582  16.063  15.992  0.1650  0.1573 -0.3455
18956W        W35803  14.976   6.461   1.763  0.0797 -0.0144 -0.2134
18957W        W35804   0.912  17.028  15.570  0.0349  0.0094 -0.0516
18958W        W35805   5.273   4.004   0.119  0.0489  0.1137 -0.2035
18959W        W35806  14.347  12.101   1.945 -0.2071 -0.0356  0.0546
18960W        W35807   8.831   8.680   2.065 -0.1938  0.0032  0.0454
18961W        W35808  10.730  11.059   1.960  0.0606 -0.4380  0.2201
18962W        W35809   2.679  16.580   4.036 -0.1767  0.0560  0.0187
18963W        W35810   6.304   1.168  15.769 -0.2511 -0.0069 -0.2226
18964W        W35811   5.844   3.680   4.721  0.2176 -0.1591 -0.1180
18965W        W35812   4.709   8.658  12.928 -0.1154 -0.0216 -0.0205
18966W        W35813   4.478   4.008   1.385 -0.1862 -0.1602  0.1102
18967W        W35814  15.632  12.885  15.228 -0.2444 -0.0164 -0.0815
18968W        W35815  16.177  16.639  13.716 -0.1510 -0.5034  0.0466
18969W        W35816  16.684   8.122   1.008 -0.2579  0.0800 -0.2584
18970W        W35817  12.459  17.767   0.146 -0.1887 -0.1652  0.1955
18971W        W35818   2.825  11.246   4.547 -0.0036  0.0404 -0.0514
18972W        W35819   8.692  16.378   2.664 -0.4375  0.1451 -0.2493
18973W        W35820  15.233   6.137  11.268  0.1837 -0.0511  0.0333
18974W        W35821  14.285  15.939   0.645  0.1258  0.0570 -0.1769
18975W        W35822  16.752   0.621  11.082  0.1283 -0.0318  0.1596
18976W        W35823  17.944   4.353  11.004  0.1444  0.1243  0.0667
18977W        W35824  17.016  16.689  14.106 -0.1825 -0.0371 -0.0227
18978W        W35825  10.780  11.782  12.937  0.0642 -0.0506  0.0924
18979W        W35826  12.686  16.807   2.654  0.2491 -0.0096  0.0016
18980W        W35827   9.074  12.386  12.756  0.2489  0.0608 -0.0212
18981W        W35828  13.623   5.623   2.285 -0.3646  0.1652 -0.1780
18982W        W35829   4.731  16.819  12.277 -0.0661 -0.1771 -0.1928
18983W        W35830  11.635  13.619  13.562  0.0896  0.0895  0.2396
18984W        W35831  14.048   0.774  12.988  0.1177  0.0139  0.1137
18985W        W35832   5.258  15.072   0.102 -0.0264 -0.1131  0.0503
18986W        W35833  18.214  18.059  12.702  0.0805  0.1417 -0.0631
18987W        W35834   0.812   8.152  15.814 -0.1840  0.0870 -0.0603
18988W        W35835  10.301   3.825   5.575  0.0384 -0.5515 -0.0628
18989W        W35836   8.332   5.526  15.991  0.1659  0.1388  0.2191
18990W        W35837  11.180   3.232   0.538  0.0955  0.1404 -0.3615
18991W        W35838  15.244  17.941  12.345  0.1094  0.0574  0.2853
18992W        W35839  10.681  17.547   2.235 -0.0631 -0.0445 -0.1318
18993W        W35840  15.312  14.746  13.611  0.2137  0.0509 -0.0013
18994W        W35841   7.722  11.585   5.336  0.1705 -0.3731  0.1342
18995W        W35842  16.854  18.205   3.153 -0.1671  0.0376  0.1165
18996W        W35843  17.004   6.625   4.293 -0.2150 -0.4081 -0.0092
18997W        W35844  11.787   2.457   2.807  0.3540 -0.2296  0.0194
18998W        W35845   7.131   8.119   3.400 -0.1409 -0.0830 -0.0102
18999W        W35846   9.366   2.511   2.953  0.0330  0.2119  0.0864
19000W        W35847  16.230   5.078   2.703  0.2098  0.2212 -0.0415
19001W        W35848  10.060   0.488   4.370 -0.2051  0.0013  0.0488
19002W        W35849   9.702   3.172   5.026  0.1228  0.0393  0.0645
19003W        W35850   5.214   1.565  12.096 -0.0629  0.0221 -0.0965
19004W        W35851   5.795   5.760  10.924  0.0681  0.1169  0.0416
19005W        W35852   4.278  16.822  12.051  0.2674 -0.1841 -0.0486
19006W        W35853  15.716   6.108  13.062 -0.2062 -0.2528  0.2567
19007W        W35854  17.282  17.815  11.615  0.3896  0.0867 -0.0807
19008W        W35855  11.210   1.013   1.311  0.1513 -0.3016  0.0849
19009W        W35856   9.996  18.230   5.227 -0.0589 -0.2149 -0.0444
19010W        W35857   2.232   5.673   5.376  0.1049  0.0008  0.3199
19011W        W35858   5.740  16.510  13.216 -0.1482 -0.5709 -0.4043
19012W        W35859  11.159   7.838  14.981 -0.0986 -0.1385 -0.0772
19013W        W35860  18.251  12.288  11.333 -0.2361  0.3515 -0.0254
19014W        W35861   1.281  12.992   4.232 -0.1331  0.1734 -0.2097
19015W        W35862  17.301  11.879   3.248  0.0843 -0.1736 -0.0702
19016W        W35863   5.537  13.983  16.137  0.1287  0.4254  0.3917
19017W        W35864  13.635   9.158   1.707  0.2117 -0.1477  0.0674
19018W        W35865  17.123  16.429   4.203  0.3064 -0.4011 -0.1798
19019W        W35866  11.358  10.009  13.531 -0.0645  0.2021  0.0806
19020W        W35867  12.751   6.992   5.455 -0.2062  0.0998 -0.0056
19021W        W35868   4.364  10.041   5.066 -0.0804  0.2689  0.2561
19022W        W35869  17.358  16.432  11.959  0.2312  0.2322 -0.1987
19023W        W35870  15.747   1.924  11.344  0.0591 -0.0612  0.0804
19024W        W35871   2.061  16.780  16.133 -0.1890  0.0562 -0.1895
19025W        W35872   5.185   7.257   2.551  0.0215  0.2317  0.0284
19026W        W35873   5.412   6.592  13.184 -0.1877 -0.1678 -0.0780
19027W        W35874   2.060  17.573   3.097 -0.2980 -0.3145 -0.2581
19028W        W35875   3.922   6.960  12.913 -0.0095 -0.2586  0.1547
19029W        W35876  13.658   5.679  10.883 -0.3112 -0.0903  0.1094
19030W        W35877   4.409   9.889  15.269 -0.0657  0.0116  0.2598
19031W        W35878   2.598   8.609  15.403  0.0516  0.0503 -0.1696
19032W        W35879   8.449   4.822   3.995  0.1826  0.1580  0.1825
19033W        W35880   7.560   4.234   1.890  0.0677 -0.1899  0.0553
19034W        W35881  12.352  13.836  14.895  0.3145 -0.1905  0.0075
19035W        W35882  16.336  10.727  12.971  0.0123  0.1635  0.0131
19036W        W35883  17.544   5.264  14.507  0.2704  0.1281  0.1457
19037W        W35884  12.409  10.556   4.662  0.0531 -0.1271  0.1308
19038W        W35885   5.923   6.770  13.112  0.1129  0.1944  0.1395
19039W        W35886   1.669   3.912  14.666 -0.0820 -0.0659  0.2280
19040W        W35887  17.119   6.166  13.215  0.1612  0.1530 -0.2073
19041W        W35888   8.389   2.082   5.159 -0.1799  0.1132 -0.2624
19042W        W35889   3.870  17.912   1.969 -0.0720  0.2083  0.0160
19043W        W35890  14.505  12.968  14.288 -0.3719  0.0612 -0.0018
19044W        W35891  16.030  18.185  11.250  0.2918 -0.1794  0.0582
19045W        W35892   7.624  16.521   3.221 -0.0336 -0.0493  0.0544
19046W        W35893  12.839  16.418  12.919 -0.3048  0.0813  0.1936
19047W        W35894   4.145   4.563  14.234  0.0823 -0.1376 -0.0787
19048W        W35895   2.471   8.551  13.937  0.3548  0.0391  0.1313
19049W        W35896   5.207   4.355  11.265  0.0473  0.0118  0.1066
19050W        W35897   5.423   6.500   4.744 -0.0462  0.1502 -0.0334
19051W        W35898   7.317   8.220  14.322  0.1254  0.1473 -0.0780
19052W        W35899  15.821  18.103   5.413 -0.2074  0.2438  0.2347
19053W        W35900   3.024  11.995   0.836 -0.2335  0.1187  0.0552
19054W        W35901   1.526  14.808  14.484 -0.2110  0.1397  0.2641
19055W        W35902   0.669   0.220  15.809  0.0611  0.0950 -0.0496
19056W        W35903   3.386  12.840  15.326  0.4998  0.0363 -0.3247
19057W        W35904   3.024  14.882   1.672  0.3037 -0.0298 -0.1112
19058W        W35905  12.853  16.436   4.639 -0.2691 -0.1597 -0.1097
19059W        W35906   5.964   6.250  13.810 -0.0847 -0.0350 -0.2201
19060W        W35907  12.207  13.801  16.174 -0.0622 -0.0332  0.1515
19061W        W35908   7.100   7.756   6.591 -0.0510 -0.3141 -0.2326
19062W        W35909   7.740   6.584  11.846 -0.1804  0.0015 -0.2378
19063W        W35910   0.101  10.731  14.642  0.3975 -0.3753 -0.0577
19064W        W35911  17.467  15.452  13.356  0.0387 -0.2538  0.0115
19065W        W35912  14.502  12.642   4.887  0.0755 -0.1434  0.1689
19066W        W35913  12.946   7.022  12.011 -0.2682 -0.0470 -0.4799
19067W        W35914   5.066   7.971  16.050 -0.5635 -0.0523 -0.0253
19068W        W35915   1.198   0.005   3.723 -0.0730 -0.0181  0.0739
19069W        W35916  11.118   9.762   2.940  0.2991 -0.0299  0.1550
19070W        W35917   9.316  14.345   4.864  0.2264  0.2753  0.4420
19071W        W35918  16.554   9.408   0.683  0.2065 -0.2139  0.2439
19072W        W35919  14.872   3.097  14.186 -0.0855  0.1576  0.0220
19073W        W35920   3.056   2.049   4.195 -0.2686  0.2874  0.1727
19074W        W35921   4.618   3.892  15.676  0.1487  0.0326 -0.0156
19075W        W35922   9.687   2.768  11.375  0.2036  0.4087 -0.0241
19076W        W35923   5.059   3.568  13.782 -0.0808 -0.0405 -0.2079
19077W        W35924   9.582  14.138  11.920  0.0137 -0.2450  0.0353
19078W        W35925   7.872  11.277   4.866 -0.0376 -0.2239 -0.2502
19079W        W35926   3.313   2.476  12.377  0.0553  0.2328 -0.2287
19080W        W35927  11.587   6.246  13.786 -0.3874  0.0989  0.0789
19081W        W35928  13.302  12.893  12.989  0.0669  0.0419 -0.0565
19082W        W35929   5.436  10.463   0.244  0.0088  0.0898 -0.1540
19083W        W35930  14.690   8.885  15.635 -0.1785 -0.3137  0.0370
19084W        W35931  17.106  11.077   3.104  0.1274  0.3135 -0.0824
19085W        W35932   8.379  10.937  15.148  0.1705 -0.1183  0.2910
19086W        W35933  11.913  11.564   0.911  0.0690 -0.1179  0.0574
19087W        W35934  10.931   1.579   3.156  0.1937  0.0771 -0.1245
19088W        W35935   5.441   8.108   6.162 -0.3442  0.0019 -0.0751
19089W        W35936  13.996  16.539  11.599 -0.2645 -0.1255 -0.0623
19090W        W35937   1.405   7.032  12.654 -0.1157 -0.4018  0.2093
19091W        W35938  10.604   5.904   0.233 -0.2082 -0.0246  0.0248
19092W        W35939   1.748   5.190  14.366  0.0817  0.5120 -0.0318
19093W        W35940  13.475  18.005   0.345 -0.0858  0.0961  0.3551
19094W        W35941   2.983   9.972   5.485  0.3777  0.0137  0.2876
19095W        W35942  15.913   3.677   2.449  0.0505 -0.1336  0.0214
19096W        W35943   9.277  13.046   0.466  0.0364  0.1058 -0.2582
19097W        W35944   3.820   4.935  15.293  0.1309  0.0050 -0.1348
19098W        W35945  16.143   2.709  11.040 -0.0157 -0.2607  0.1893
19099W        W35946  14.987  15.274  14.935  0.0243  0.0406 -0.1574
19100W        W35947  11.846  15.910  15.375 -0.0127 -0.0136 -0.0392
19101W        W35948   8.260  16.178  11.954  0.1964 -0.2027  0.0341
19102W        W35949   4.625  15.174  13.146 -0.1149  0.3684 -0.0396
19103W        W35950  18.053  11.853  14.981  0.0725  0.2982  0.0047
19104W        W35951   7.603   4.231   2.860 -0.0724  0.1574  0.1927
19105W        W35952  15.124  12.166  12.146  0.1442  0.0022  0.0246
19106W        W35953  14.091   4.911   2.787 -0.0615 -0.2241 -0.1715
19107W        W35954   3.039  17.065  15.637  0.0054  0.0873 -0.1394
19108W        W35955   3.780  17.066  12.976  0.1019  0.0048  0.1963
19109W        W35956   1.865   3.460   3.866 -0.1049  0.0290 -0.0216
19110W        W35957  11.582   6.587  15.698 -0.2564 -0.1089  0.0833
19111W        W35958   2.089   6.552  14.499 -0.3653  0.1445  0.0884
19112W        W35959   7.629  15.074   1.277 -0.1971  0.1059 -0.1346
19113W        W35960   5.226  10.411  14.978  0.0381  0.2015 -0.0840
19114W        W35961   5.904   2.436   2.955  0.4049  0.2239 -0.0644
19115W        W35962  10.903   8.185   1.294 -0.0640  0.0009  0.2408
19116W        W35963  14.322   6.035  10.291 -0.4318  0.1206 -0.3813
19117W        W35964  13.072   4.465   4.830  0.1277 -0.1537 -0.0434
19118W        W35965  11.761  14.807   2.861 -0.2823 -0.0008  0.2154
19119W        W35966   0.080  13.595  13.939  0.4781 -0.2051 -0.4899
19120W        W35967   2.723  12.182   0.475 -0.0665 -0.0198 -0.0747
19121W        W35968  10.625   6.319  13.478  0.0857 -0.0942  0.3302
19122W        W35969  10.627  12.361  15.178 -0.1096 -0.2777 -0.2990
19123W        W35970   6.309   3.251   3.879  0.0657 -0.1748  0.1203
19124W        W35971  15.138   9.670   5.661 -0.1949  0.3794 -0.0206
19125W        W35972  14.029   0.769  15.293 -0.1225  0.1648 -0.1394
19126W        W35973   5.167   2.700   1.312 -0.0299 -0.2126 -0.1799
19127W        W35974   2.232  13.831   2.501  0.1022  0.2348  0.0125
19128W        W35975  17.584  18.244  11.956 -0.0027  0.0625  0.1427
19129W        W35976   4.993  11.150   0.848  0.0189 -0.2240  0.0898
19130W        W35977   0.576   1.359   1.973 -0.0678  0.1639  0.1626
19131W        W35978  15.904   7.603  15.619 -0.0581  0.0632  0.2256
19132W        W35979   6.809  12.877   5.450  0.0473 -0.2769  0.2009
19133W        W35980  13.427   1.923  13.053  0.1225  0.2292 -0.1165
19134W        W35981   0.360   0.740   0.705 -0.3257  0.0489 -0.2088
19135W        W35982   1.459   0.546  16.170 -0.0289 -0.0334 -0.0859
19136W        W35983   4.721  10.246  11.340 -0.2691  0.2410 -0.2465
19137W        W35984   7.196   9.195   2.309  0.2154 -0.0224 -0.1700
19138W        W35985   7.231  16.944  14.551 -0.1580 -0.0267  0.1438
19139W        W35986  14.660   0.433  14.325 -0.1128  0.2220  0.1712
19140W        W35987  12.133   5.093   3.002 -0.1691  0.1438  0.1202
19141W        W35988   8.383   0.985  14.055 -0.0991 -0.0386 -0.0258
19142W        W35989  13.616   4.087  11.673  0.0399  0.1984 -0.0694
19143W        W35990   6.910   4.081   4.056  0.1141 -0.1469 -0.0807
19144W        W35991   0.427   8.083   4.454  0.2010 -0.1632 -0.2480
19145W        W35992   4.685   7.837  12.318 -0.2090 -0.0713 -0.1404
19146W        W35993  16.295  15.010  11.257  0.0663 -0.0764 -0.3736
19147W        W35994  13.241  17.918   0.836 -0.0976 -0.0988 -0.0611
19148W        W35995  16.450   1.371   0.878  0.3258 -0.0734 -0.1306
19149W        W35996   0.082   0.130  15.043 -0.2225 -0.0206 -0.3310
19150W        W35997   4.111  15.774   2.157 -0.0945 -0.2265 -0.1203
19151W        W35998  14.399   0.715   1.491 -0.0022  0.3200 -0.0419
19152W        W35999  18.146   8.039   0.399 -0.1906 -0.0549  0.1070
19153W        W36000   5.948   3.622  15.563 -0.1551 -0.5412  0.2911
19154W        W36001  17.105  15.541  14.874  0.4067  0.1336 -0.2726
19155W        W36002  16.724   5.948   3.759 -0.0462 -0.2220 -0.1273
19156W        W36003  11.182  13.604   5.237 -0.1356 -0.0330  0.0765
19157W        W36004   0.390   0.854   4.502  0.2913  0.1400 -0.0572
19158W        W36005  11.740   1.508  14.984 -0.0053 -0.1974  0.1743
19159W        W36006   3.230  12.379  13.106  0.0646  0.1726 -0.1308
19160W        W36007   9.016  11.826  15.728  0.4952 -0.3107 -0.0288
19161W        W36008   7.928  17.082  11.381  0.0457  0.2991 -0.0042
19162W        W36009  17.733   0.075   2.739  0.0450  0.1411 -0.3195
19163W        W36010   9.633   3.420  15.224  0.2490 -0.0119  0.1466
19164W        W36011  13.205   7.634  11.402  0.1638 -0.1767 -0.0700
19165W        W36012   9.719   7.191   3.763 -0.0344  0.2085 -0.1198
19166W        W36013  14.223  14.143  15.239 -0.0753 -0.0383 -0.1370
19167W        W36014   2.228   3.406  15.578  0.1072 -0.1244 -0.0928
19168W        W36015  13.371  15.271  14.996 -0.1294 -0.0816  0.1120
19169W        W36016  14.006   5.700   0.237  0.2514  0.2853 -0.3465
19170W        W36017  15.095  16.934   2.101  0.1338 -0.1655 -0.0938
19171W        W36018   1.296  13.849  14.551 -0.2697 -0.0573 -0.0384
19172W        W36019   3.505  15.021  12.517 -0.0662  0.1516 -0.2459
19173W        W36020  10.426  10.862  15.939  0.2769 -0.0924  0.1383
19174W        W36021   5.033  16.975  11.108 -0.2182 -0.1017 -0.3412
19175W        W36022   4.861  13.873  12.060  0.1204  0.1022 -0.2161
19176W        W36023   5.153   7.053  13.135  0.1293  0.1640  0.0326
19177W        W36024   4.625   6.136   2.658  0.3574  0.0798  0.0599
19178W        W36025  15.910   7.045   1.565 -0.0389 -0.0119 -0.0821
19179W        W36026  17.986  16.179   5.744 -0.1006 -0.0551  0.2323
19180W        W36027  11.412  12.748   1.205 -0.1394 -0.0870 -0.0039
19181W        W36028   5.339   9.103   5.270  0.1711 -0.1449  0.2783
19182W        W36029   6.088  14.674  12.529 -0.0380 -0.0048  0.1999
19183W        W36030  15.185   3.304  13.421 -0.3711  0.0265  0.2723
19184W        W36031   2.225   4.559   4.432  0.1462 -0.0136 -0.0100
19185W        W36032   3.409  10.481  13.250 -0.1569 -0.0903 -0.1016
19186W        W36033   5.735  16.675   4.235  0.1243 -0.2058  0.0022
19187W        W36034  10.187  18.286  11.847 -0.2613  0.2139  0.0784
19188W        W36035   9.846   0.421   1.908 -0.0247 -0.2472  0.0728
19189W        W36036  18.032   1.420  14.692  0.0772 -0.2326  0.3486
19190W        W36037  14.086  12.559  11.006 -0.2722 -0.3302  0.1677
19191W        W36038   8.584   7.203  15.028 -0.1908  0.2412 -0.0302
19192W        W36039  18.060  15.193  15.168  0.0979 -0.1816 -0.0947
19193W        W36040   2.316   0.436  13.238 -0.1808  0.2965 -0.0057
19194W        W36041  15.017  10.222   4.074 -0.3097  0.0254  0.0039
19195W        W36042  16.800   5.129   3.386 -0.1322  0.0872  0.1586
19196W        W36043   6.232   0.581   2.693  0.1677 -0.0641  0.0226
19197W        W36044   7.075  15.275  13.491 -0.2129 -0.1068 -0.2754
19198W        W36045   9.684   7.393   2.395 -0.2072 -0.2084  0.0020
19199W        W36046  13.980   4.518  15.027  0.0663 -0.1321  0.1126
19200W        W36047  10.750  10.552   1.934 -0.0880  0.1577  0.0617
19201W        W36048  15.948   6.696  15.126 -0.0797  0.0355 -0.0698
19202W        W36049   7.179  17.060  16.032 -0.1214  0.3599 -0.0767
19203W        W36050   8.821   1.235  15.194 -0.1114 -0.4403 -0.0588
19204W        W36051  11.645   7.221  13.082  0.0324 -0.1006 -0.3938
19205W        W36052   9.744  11.617   1.303 -0.0373  0.2650 -0.0474
19206W        W36053  11.952   8.185   5.042 -0.1459  0.1524 -0.1210
19207W        W36054   4.098  13.880  11.748  0.0666 -0.0524  0.1188
19208W        W36055   9.776  16.599   0.555 -0.1550  0.0652 -0.2051
19209W        W36056  15.765  10.793   1.717  0.0056  0.0693  0.0258
19210W        W36057   5.742  16.433   1.651 -0.0165  0.2223 -0.0787
19211W        W36058   8.900  11.124  14.474  0.0284  0.1393 -0.0409
19212W        W36059   3.260   8.297  12.471  0.1174 -0.0727 -0.0315
19213W        W36060  13.667  10.696  12.867  0.1178  0.0426 -0.2099
19214W        W36061  17.944  16.548  14.917  0.2873  0.1422 -0.1171
19215W        W36062   6.184  16.616   1.511 -0.3398  0.0602 -0.0554
19216W        W36063  11.943   6.325  11.800 -0.0972 -0.0353 -0.0315
19217W        W36064  17.300   9.480  15.903 -0.2507 -0.1586  0.0267
19218W        W36065   8.251   7.743  14.867 -0.1235  0.2149  0.2437
19219W        W36066  13.612   3.010   0.538  0.0423 -0.2051  0.0927
19220W        W36067   7.863   1.505  14.895  0.0104  0.0248  0.2143
19221W        W36068  17.099  11.857  15.287 -0.1805 -0.2164 -0.1919
19222W        W36069   5.824   2.172  15.249  0.1160  0.2535  0.0191
19223W        W36070   9.585  17.432   2.504 -0.1426  0.0346 -0.1592
19224W        W36071   0.654  10.963   4.148  0.1922  0.0619  0.1204
19225W        W36072   4.616  11.984   4.672  0.0971  0.2541  0.0481
19226W        W36073  16.145  10.508   3.131  0.1210 -0.0021  0.0701
19227W        W36074   1.826  13.361  13.910 -0.0927  0.1145  0.1430
19228W        W36075  12.166   6.658   4.249 -0.0455  0.1324 -0.2775
19229W        W36076   9.542   4.446  12.416  0.0716  0.0071 -0.1411
19230W        W36077   8.631  13.599   4.808 -0.1346  0.0697 -0.0725
19231W        W36078  17.931   0.511  15.488 -0.1964  0.0383 -0.0929
19232W        W36079   6.498  11.834  14.588 -0.2054 -0.2915 -0.1150
19233W        W36080  17.627   7.668  12.628  0.1004  0.1273  0.0296
19234W        W36081  14.396  11.555   1.870  0.0432  0.1832  0.1637
19235W        W36082  18.114   2.864  13.534  0.1200 -0.0405  0.0901
19236W        W36083   0.716  14.988   0.937  0.0556 -0.0764  0.0924
19237W        W36084   1.379   5.061   5.439  0.2560  0.0905 -0.0991
19238W        W36085   1.426   6.439   3.400  0.0656  0.1337 -0.1477
19239W        W36086  13.353   6.190   0.647  0.2931  0.0727  0.1050
19240W        W36087  14.273  11.051   0.967 -0.3519 -0.2800 -0.1861
19241W        W36088   9.931   7.382   5.496 -0.0609  0.0833 -0.2963
19242W        W36089  13.150  15.063   4.611  0.0831 -0.0816 -0.0334
19243W        W36090  17.141  17.848   3.992 -0.1065  0.0937 -0.3708
19244W        W36091   2.526   3.859  12.182  0.3308  0.2241  0.0673
19245W        W36092  14.070   6.539   2.279  0.1043 -0.1600 -0.0650
19246W        W36093   6.485   7.998   2.854 -0.4066 -0.1875  0.0238
19247W        W36094   5.744  13.994  13.683 -0.1723  0.0713  0.1115
19248W        W36095   2.843   5.739  14.840  0.1656  0.0134 -0.1576
19249W        W36096  14.797   4.572  16.165  0.2021 -0.0378 -0.0642
19250W        W36097  14.529   9.709  14.090 -0.1979  0.1302 -0.0651
19251W        W36098  16.835  17.673   3.499  0.3914 -0.1175 -0.0168
19252W        W36099  10.007  14.378  11.787 -0.2075 -0.3061 -0.0474
19253W        W36100  13.919  14.366  16.067  0.0847  0.0513  0.0107
19254W        W36101  14.867  14.690  13.861  0.3222  0.2110 -0.1864
19255W        W36102   2.862  12.546   4.755 -0.2156 -0.2280 -0.0298
19256W        W36103   5.357  12.001   5.177 -0.0880  0.0897  0.0887
19257W        W36104  11.151  14.440   0.163  0.0679  0.2165  0.0689
19258W        W36105   3.567  10.776  12.033  0.2778  0.0547  0.1751
19259W        W36106  15.595  15.983   1.107 -0.0409  0.2132  0.1187
19260W        W36107   0.589  12.420   3.633  0.2018  0.0522  0.3091
19261W        W36108  12.745  12.260  13.981 -0.0172 -0.1064 -0.1057
19262W        W36109  16.206   3.617   3.337  0.1989 -0.0852 -0.0586
19263W        W36110   5.063   8.587   1.891  0.3515  0.0894 -0.0235
19264W        W36111  14.741   2.723  13.806 -0.1879  0.1859 -0.1220
19265W        W36112   4.069  11.230  14.814  0.2427 -0.0962 -0.0493
19266W        W36113  12.978   2.752  10.688 -0.0110  0.1846  0.1324
19267W        W36114   7.637  12.596   0.904 -0.0641 -0.1147  0.0686
19268W        W36115   0.167   8.637   2.244  0.1086  0.2230  0.3102
19269W        W36116   4.668   4.886  11.008  0.0985 -0.0754  0.2676
19270W        W36117  13.807  12.269  11.258 -0.1561  0.1760  0.0566
19271W        W36118   3.181  14.226   0.525 -0.0287  0.0153 -0.1132
19272W        W36119  17.129   7.778   1.575  0.2087  0.0118  0.1803
19273W        W36120   1.051  12.639   4.541 -0.1046 -0.0111  0.2068
19274W        W36121  16.410   5.306   3.693  0.3255  0.0083 -0.2112
19275W        W36122   8.308   8.701   3.047  0.1001 -0.0721  0.1372
19276W        W36123   3.935  10.748  15.032 -0.2720 -0.0613  0.2559
19277W        W36124  13.105   9.612  13.428 -0.1548  0.1422 -0.0354
19278W        W36125  11.667   6.880   0.393 -0.1102 -0.1352 -0.0027
19279W        W36126   4.707  12.313   0.908  0.3530 -0.1722 -0.0611
19280W        W36127   1.682  18.156   1.981  0.0506  0.1085 -0.0075
19281W        W36128   8.117  18.330   4.309  0.0791  0.2403  0.4433
19282W        W36129   7.418  14.612   1.280 -0.2977 -0.0474  0.0387
19283W        W36130  17.365  10.319   4.604  0.1447  0.0019  0.0701
19284W        W36131  16.778  11.692  12.295 -0.2743  0.0674 -0.0430
19285W        W36132  14.818   5.581   4.969  0.0131 -0.1398  0.0023
19286W        W36133  16.159  14.714  12.363  0.0768 -0.0123  0.2535
19287W        W36134  16.534   9.100   2.093  0.2691  0.0153  0.0520
19288W        W36135  17.117   7.959   2.489 -0.1867 -0.2132  0.1828
19289W        W36136   8.161  11.781  14.485  0.0767 -0.0531 -0.1177
19290W        W36137   7.487  13.619   1.246 -0.0791  0.1749 -0.0715
19291W        W36138   7.542   6.113   3.443  0.2179 -0.3548 -0.0103
19292W        W36139   7.133   1.169   1.619  0.2038  0.2924 -0.1128
19293W        W36140   8.426  16.083  15.035 -0.2403  0.2182 -0.1005
19294W        W36141   1.577  12.283   5.012  0.2985  0.0655 -0.0198
19295W        W36142   1.814  17.088  12.036  0.0803  0.0664  0.2025
19296W        W36143   7.451  18.119   4.712  0.0873 -0.2531  0.2156
19297W        W36144   4.686   4.546  14.349 -0.1360  0.0211  0.0695
19298W        W36145  15.487   9.493   2.138 -0.0175  0.0031  0.0939
19299W        W36146   4.074   0.183   2.676 -0.0949 -0.1790 -0.0681
19300W        W36147   8.238   3.301  12.757 -0.2211  0.1811  0.0246
19301W        W36148   5.811  16.292  13.628 -0.0399 -0.0035 -0.1164
19302W        W36149  14.505   2.097  14.853 -0.0422 -0.0036  0.1267
19303W        W36150   5.852  12.344  13.278  0.1613 -0.0947 -0.0874
19304W        W36151   3.237  15.696  15.528  0.0396 -0.0237  0.3002
19305W        W36152   9.957  11.095   0.441 -0.1531  0.3613 -0.0371
19306W        W36153   9.851   5.515  11.702  0.0483 -0.0788 -0.1020
19307W        W36154  15.255  12.036   0.899  0.0241 -0.1923 -0.3874
19308W        W36155   2.542  12.207  13.858  0.0376 -0.0948 -0.2177
19309W        W36156  17.543  17.405   0.026 -0.0532  0.1012 -0.1182
19310W        W36157   6.864  10.529   1.946 -0.2318 -0.1506  0.0684
19311W        W36158   3.382  15.021  14.355  0.0249 -0.1251 -0.2556
19312W        W36159   0.131  16.683   1.479 -0.3420  0.2293 -0.2493
19313W        W36160  13.399  18.035  13.282 -0.2350 -0.2239  0.0456
19314W        W36161  16.174   2.969  15.015  0.1645 -0.2810 -0.2932
19315W        W36162  18.232  18.133   1.735 -0.0901 -0.1269 -0.2664
19316W        W36163  10.214   5.661   0.118 -0.1543  0.0953 -0.2613
19317W        W36164  17.721  15.423  12.872 -0.0840 -0.0422  0.0064
19318W        W36165   8.119  13.047   2.177  0.2690 -0.2066 -0.0698
19319W        W36166   0.228   7.747  15.067 -0.0412 -0.4949  0.0704
19320W        W36167   7.443  12.558   3.761  0.1133 -0.0095  0.1826
19321W        W36168   2.281  13.717   5.396  0.1731  0.3796 -0.0776
19322W        W36169  12.854  11.694   4.453  0.2804 -0.2416  0.0754
19323W        W36170  11.323   9.575   0.842  0.0640  0.1175  0.0396
19324W        W36171   0.323  16.504  16.161  0.0697 -0.1580 -0.2674
19325W        W36172   9.474  15.929   0.100 -0.2222 -0.0103  0.2835
19326W        W36173  11.440  15.923   5.456  0.1747  0.2727  0.0066
19327W        W36174   3.456  13.608   2.047 -0.0963  0.0718 -0.0821
19328W        W36175   1.738   0.538   4.160  0.0935 -0.1324  0.1727
19329W        W36176  16.354   1.255  12.326 -0.0090  0.0994  0.0794
19330W        W36177   4.414  16.028  14.124 -0.4009 -0.1387 -0.1605
19331W        W36178  14.546  16.721  11.736  0.0259 -0.2239  0.2151
19332W        W36179   2.031   3.828   1.464  0.3145 -0.1030 -0.0532
19333W        W36180  17.845  17.909  11.618 -0.0953 -0.2089  0.0492
19334W        W36181   0.670   7.336   4.855  0.0269  0.0363 -0.0111
19335W        W36182   1.061  15.091  15.171  0.3643  0.3272 -0.0256
19336W        W36183   0.130   8.149   2.700 -0.2821  0.2851 -0.1752
19337W        W36184  12.638   2.793   4.959  0.0354 -0.2104  0.0048
19338W        W36185  12.086   7.875  11.062 -0.1897  0.1015 -0.0083
19339W        W36186  18.024  13.317   0.550  0.2657  0.0916  0.1034
19340W        W36187  14.385  14.961   1.581 -0.0729 -0.0419  0.2353
19341W        W36188   9.949  15.451   1.287  0.2338  0.1189  0.2771
19342W        W36189   2.112   6.749  14.064 -0.0579  0.1637  0.0139
19343W        W36190  16.906  11.866   0.755 -0.1627 -0.0786  0.0256
19344W        W36191  15.216  11.445   3.024  0.0684  0.1194 -0.1054
19345W        W36192   7.153   8.257  12.517 -0.0204 -0.1616  0.1075
19346W        W36193  10.394  13.377   3.864 -0.3908  0.2773 -0.0860
19347W        W36194  15.628  11.782   2.714 -0.2339  0.0386 -0.3561
19348W        W36195  12.838   7.111   4.974  0.1750 -0.1575 -0.0561
19349W        W36196  12.348   7.801  11.573 -0.2159 -0.2335 -0.3125
19350W        W36197  17.843   0.996   4.590  0.0124 -0.2263  0.0899
19351W        W36198   9.306  16.142   3.630  0.2757  0.1178 -0.0812
19352W        W36199   1.150  17.342  13.084  0.0247 -0.1198 -0.0937
19353W        W36200   1.799  11.145   2.828 -0.0540 -0.2154  0.0023
19354W        W36201   5.224   4.752   2.709  0.2156 -0.1684 -0.0562
19355W        W36202  12.741  15.343   5.686 -0.0075  0.0901  0.0494
19356W        W36203  10.937  16.685  13.539  0.2586  0.2752  0.2130
19357W        W36204  13.081   3.975  15.241  0.1927  0.3552  0.3094
19358W        W36205  13.422   7.097   4.069  0.0044  0.0295 -0.1296
19359W        W36206   8.129  14.024  15.658  0.0874 -0.0740  0.0271
19360W        W36207   8.450   0.880   1.752 -0.3736 -0.1130 -0.0775
19361W        W36208   5.910  17.258   2.333  0.4358 -0.4483 -0.0362
19362W        W36209  15.318   2.393  15.345  0.3366 -0.1075 -0.1129
19363W        W36210   1.951   5.642   3.980  0.1000  0.0371  0.2745
19364W        W36211  12.264  16.925   2.328  0.1718  0.0885  0.0596
19365W        W36212  16.670  13.509   3.445  0.2858 -0.1620  0.0240
19366W        W36213  11.943  16.374   5.088 -0.0053 -0.2718 -0.2509
19367W        W36214   4.078   8.119  13.650 -0.2157 -0.1512 -0.2010
19368W        W36215  14.588   4.682   0.439  0.0806  0.0035 -0.0657
19369W        W36216   5.149   7.323   0.752 -0.1045  0.0810  0.0203
19370W        W36217   2.657  13.505  12.168  0.1105  0.2729  0.0696
19371W        W36218   6.489  16.992  13.594  0.0671  0.1347 -0.1062
19372W        W36219   3.490   8.566  14.927  0.0291 -0.1624 -0.0310
19373W        W36220  15.389   2.923  14.953  0.1648 -0.1420 -0.3456
19374W        W36221   7.856  13.398   1.617 -0.1474 -0.0762 -0.2818
19375W        W36222   8.605   4.135   3.288  0.0354 -0.1432 -0.0904
19376W        W36223  10.848  14.364   0.565 -0.2818  0.1065  0.0637
19377W        W36224   7.908   9.457  12.145 -0.2546  0.0801 -0.5370
19378W        W36225  15.544   9.764  11.338 -0.0626 -0.1051  0.2256
19379W        W36226   6.272   7.926  11.973 -0.2690 -0.3040  0.1377
19380W        W36227   6.217  14.236  11.348 -0.1887  0.1402 -0.1790
19381W        W36228  17.292  10.581   0.898  0.0522  0.1045  0.1492
19382W        W36229   9.641  16.144   1.691  0.1087  0.2290  0.0702
19383W        W36230  14.779   0.631   3.443  0.0367  0.5010  0.6414
19384W        W36231  16.910  11.373  14.587 -0.1526 -0.1276  0.2321
19385W        W36232  16.572   9.454  14.029 -0.0900  0.1516 -0.1022
19386W        W36233   3.525  15.381   0.415  0.3127  0.3451 -0.4176
19387W        W36234  11.841   1.960  15.750 -0.2129  0.1645 -0.0884
19388W        W36235  15.652   7.816   3.129 -0.1527  0.0028  0.3256
19389W        W36236  16.741   8.966  13.469 -0.1478  0.2422 -0.1281
19390W        W36237  12.046  14.628  13.741 -0.0460  0.1471 -0.2031
19391W        W36238   6.098  13.910   0.651 -0.0921 -0.1300 -0.1650
19392W        W36239   8.691   6.601   4.026  0.0824  0.0269 -0.0609
19393W        W36240  11.852  18.011  11.343 -0.0770 -0.1479 -0.0395
19394W        W36241   6.684   0.827  11.325  0.1235 -0.0826 -0.0255
19395W        W36242   2.988  14.249   2.480  0.1527 -0.1492 -0.0017
19396W        W36243   0.860  13.596  15.299  0.1701  0.1132  0.0583
19397W        W36244   4.392   0.399  14.289 -0.1244  0.0940  0.2492
19398W        W36245  18.007  17.331  13.375 -0.1472 -0.0864  0.1417
19399W        W36246  17.042  11.387   0.213  0.0428  0.0328 -0.1967
19400W        W36247  11.468   0.787   0.698  0.1776 -0.1404 -0.0186
19401W        W36248   4.770  13.735   5.710 -0.2892  0.0542  0.0227
19402W        W36249  12.794   4.406  10.616  0.2670  0.0346 -0.2968
19403W        W36250  14.356  12.143  14.548 -0.1161 -0.4122 -0.0242
19404W        W36251  11.370   2.728  12.165 -0.0667 -0.3421  0.2533
19405W        W36252   8.381  15.592   0.084 -0.3540  0.1301 -0.2868
19406W        W36253   7.332   0.528   0.593 -0.1168 -0.2804 -0.2137
19407W        W36254  10.933  17.058  14.078  0.1761  0.2008  0.0941
19408W        W36255   7.330  13.927  12.885 -0.1667 -0.0248  0.1794
19409W        W36256  16.526   7.336  14.328  0.1358 -0.2237  0.2290
19410W        W36257  14.801   2.107   4.013  0.0024 -0.1059 -0.0225
19411W        W36258  14.743   9.380   1.417  0.2037 -0.2331 -0.1613
19412W        W36259  16.164  15.348  12.975  0.2622 -0.1029 -0.4552
19413W        W36260   0.500   3.796   0.360  0.4077  0.2268  0.1881
19414W        W36261   7.997   9.564   2.819  0.0013 -0.1002  0.0792
19415W        W36262  12.213  18.292  13.571 -0.0656 -0.0357 -0.1789
19416W        W36263  16.603   6.851   5.039 -0.3313 -0.1469  0.2759
19417W        W36264   9.733   9.873   3.128  0.0264 -0.0959 -0.3643
19418W        W36265  13.975   1.794  12.663  0.2436  0.0240  0.1327
19419W        W36266  13.950  15.828   4.759 -0.3857  0.0718  0.1757
19420W        W36267  15.193   6.618  14.089 -0.1111  0.0618 -0.2006
19421W        W36268   7.377  13.563   5.442 -0.0474 -0.0241 -0.1268
19422W        W36269  13.209   4.247   3.929 -0.0396 -0.0033  0.2839
19423W        W36270   5.627  11.232  14.772 -0.0784  0.2209 -0.0386
19424W        W36271  15.667  15.630   4.768 -0.2104  0.1145  0.1026
19425W        W36272   1.174   8.782   3.375  0.0143 -0.0160 -0.0986
19426W        W36273  11.490   7.924  11.241  0.0835 -0.0579  0.2113
19427W        W36274   1.782  18.303   0.853 -0.0835  0.2323 -0.1840
19428W        W36275  17.040  16.199  14.071  0.0830  0.1324  0.2283
19429W        W36276   7.694   9.917   0.475 -0.1820 -0.1910  0.0432
19430W        W36277  17.043   9.470  14.263  0.2543 -0.0612 -0.0116
19431W        W36278  11.423   1.189  14.789  0.0617 -0.1518 -0.0589
19432W        W36279  16.119  11.190  15.384 -0.0809 -0.0755  0.0755
19433W        W36280  13.622  11.556  14.305  0.1258 -0.2877 -0.1060
19434W        W36281  11.545   1.911   0.502 -0.0123  0.3209  0.2606
19435W        W36282   5.606   6.466   2.944 -0.0901 -0.1356 -0.1135
19436W        W36283   0.960  11.906  15.467 -0.1073 -0.0662  0.0741
19437W        W36284  18.160  17.114  12.790 -0.0809 -0.1151 -0.0201
19438W        W36285  14.596   6.900   4.045  0.3206  0.0271  0.1518
19439W        W36286  13.419  10.183   3.831 -0.1663  0.0868 -0.0829
19440W        W36287   9.253   7.342   1.653 -0.2326 -0.0047  0.0295
19441W        W36288  17.873   4.336   5.263  0.1940 -0.0906 -0.1823
19442W        W36289   5.885  13.077   2.751  0.1235  0.0338 -0.3001
19443W        W36290  14.358   2.523   5.666  0.2120 -0.1594  0.1005
19444W        W36291   5.816   5.787  13.577 -0.0298 -0.2231 -0.0085
19445W        W36292   3.157  15.512   3.419  0.0213 -0.0504 -0.0997
19446W        W36293   8.845  13.086   4.589  0.5197 -0.1098 -0.0212
19447W        W36294   6.242   1.108   3.307 -0.1787 -0.0958 -0.4928
19448W        W36295  11.438  13.635   4.768 -0.1120 -0.0573  0.0345
19449W        W36296  16.346   3.517  10.096  0.0817  0.0068 -0.2102
19450W        W36297  17.024  10.974  11.757 -0.4112  0.1450 -0.3117
19451W        W36298  12.904  16.734   5.372  0.1457 -0.0344  0.1481
19452W        W36299  16.003  16.391   3.116 -0.1675  0.1276  0.1492
19453W        W36300  11.148  16.257  11.421 -0.0355  0.1435  0.1958
19454W        W36301   9.649  11.685  14.232 -0.1137  0.1667  0.0634
19455W        W36302   8.708   4.180  12.325 -0.3187 -0.0679  0.1506
19456W        W36303  11.066   8.939   4.115 -0.0042  0.2685 -0.1001
19457W        W36304   5.291  16.253   5.035  0.0887 -0.2011  0.0662
19458W        W36305   7.193   0.717  15.760 -0.1855 -0.1204  0.1374
19459W        W36306   8.983   7.918   3.740  0.3526 -0.1726 -0.2845
19460W        W36307   1.692  17.793   4.368 -0.3293  0.0977  0.1771
19461W        W36308   0.019  15.117   5.057 -0.0064 -0.0483  0.0519
19462W        W36309   2.107  15.341  15.898  0.2153  0.0073  0.0380
19463W        W36310  16.872  12.394   0.115  0.2502 -0.1095  0.2055
19464W        W36311  10.036   2.981   4.551  0.3659 -0.0196 -0.1705
19465W        W36312   3.101  13.662   3.600  0.2111 -0.0166  0.0737
19466W        W36313   9.361  15.209  15.202 -0.2955 -0.2713 -0.1883
19467W        W36314   4.563  14.878  15.274 -0.2492  0.1773 -0.2074
19468W        W36315  10.757  12.714  12.245  0.0663  0.4085  0.1186
19469W        W36316   3.466   9.540  12.837 -0.1144 -0.1215 -0.0091
19470W        W36317  15.451  14.343   1.968  0.1024  0.1359  0.1037
19471W        W36318   9.095  12.187   3.609  0.1766 -0.1467 -0.0988
19472W        W36319  11.833  14.078  13.653  0.2348  0.3225 -0.0402
19473W        W36320  18.036  11.285   2.956  0.0056  0.0676  0.1561
19474W        W36321   0.887  11.017   0.430 -0.0061 -0.0898 -0.2301
19475W        W36322  14.326   6.395   1.210 -0.2070 -0.0416 -0.0275
19476W        W36323  14.565  12.009   0.340  0.0087  0.2661 -0.2367
19477W        W36324  11.052  12.214   4.199  0.0037 -0.1515 -0.1249
19478W        W36325  15.763   8.814  13.408  0.3188  0.0916  0.4493
19479W        W36326  10.254   9.747   0.446 -0.0702 -0.1364 -0.2998
19480W        W36327   8.525  15.843   1.940  0.0031 -0.0353  0.0783
19481W        W36328   4.844  16.120   4.316 -0.1234 -0.1855 -0.4679
19482W        W36329   7.622  17.331   5.754 -0.3112  0.1827  0.1184
19483W        W36330  12.637  13.194   1.775  0.0948 -0.0030 -0.2708
19484W        W36331   8.360   2.861   2.228  0.1032  0.0771  0.2596
19485W        W36332   8.335   1.270   4.596  0.0906  0.4679  0.1212
19486W        W36333   5.763  13.972  12.107 -0.1903 -0.1761  0.1333
19487W        W36334  10.198  18.296   4.381 -0.0308 -0.2098 -0.2286
19488W        W36335   4.860   2.686   4.920 -0.3050  0.0196  0.0805
19489W        W36336   7.147  11.687  13.854  0.0239  0.0160 -0.0179
19490W        W36337  16.365   5.734   2.147  0.2314 -0.2994 -0.1905
19491W        W36338   3.164   5.957   2.418 -0.0297 -0.1834 -0.1885
19492W        W36339   4.569   8.723   2.148 -0.4211 -0.0550 -0.2595
19493W        W36340   1.698  10.069  15.343 -0.0387  0.0095  0.0187
19494W        W36341   0.060  11.766  12.499  0.0343  0.0300 -0.2074
19495W        W36342   0.821   0.984   0.773  0.2575  0.1746 -0.3067
19496W        W36343  16.575  12.167  13.996  0.2036  0.1390 -0.2529
19497W        W36344   3.781   2.146   5.750  0.0750 -0.2127  0.0721
19498W        W36345  11.587  16.246   0.966 -0.0006 -0.0626  0.0130
19499W        W36346   1.385   4.986  12.202  0.0171 -0.2798 -0.0652
19500W        W36347  15.437   4.983  14.054 -0.4152  0.0752 -0.0280
19501W        W36348  17.681  14.298   3.671 -0.0424  0.0500  0.0287
19502W        W36349   2.717  12.464  11.978  0.0536 -0.0613  0.2322
19503W        W36350   3.839   0.608  14.220  0.0050 -0.1784  0.0918
19504W        W36351   2.466   0.408  12.271  0.2945 -0.0082  0.0454
19505W        W36352  13.404  18.279  11.889  0.1827  0.1558 -0.1594
19506W        W36353   7.353   5.144  12.827  0.2726 -0.0054  0.3481
19507W        W36354   0.181   7.749   0.099 -0.2450  0.1173  0.0811
19508W        W36355   2.899   9.988   4.920  0.1067 -0.1200 -0.0632
19509W        W36356   1.010   6.005   0.881 -0.4605  0.0615  0.3112
19510W        W36357   2.724   9.385  13.870  0.0752 -0.0247  0.2387
19511W        W36358   0.708  13.394   3.750 -0.1051  0.2166 -0.0420
19512W        W36359  17.068   7.697  15.866  0.0875  0.1117 -0.2064
19513W        W36360  17.931   4.366  12.727 -0.2509  0.1503 -0.0219
19514W        W36361   2.398  17.535   2.394  0.0426 -0.0637 -0.1079
19515W        W36362  10.793   6.978   1.430  0.3000 -0.0841 -0.0064
19516W        W36363  14.736  10.266  10.974 -0.2312  0.0045  0.0204
19517W        W36364  15.159   5.020   1.125 -0.0668 -0.2975 -0.0223
19518W        W36365   3.021   6.445  11.062  0.0142 -0.0424 -0.1468
19519W        W36366  14.125   9.535   4.385 -0.1331  0.0712 -0.0209
19520W        W36367  11.762   0.680   2.455  0.1637  0.0989 -0.0137
19521W        W36368   7.276  11.058   0.735  0.1118 -0.0110  0.1525
19522W        W36369  17.773  17.608  15.826 -0.2556 -0.1131  0.0278
19523W        W36370  10.178   6.467   3.437  0.2697  0.1706  0.0116
19524W        W36371   6.842   3.236   3.863 -0.0215 -0.0730  0.1208
19525W        W36372  11.941   2.222   0.581  0.2535  0.0912 -0.2961
19526W        W36373   3.739   7.932  11.702 -0.3185 -0.3135  0.1462
19527W        W36374  15.551   4.392  10.494 -0.3555  0.3082  0.0328
19528W        W36375  11.170   1.370   4.109 -0.1610 -0.3390 -0.1533
19529W        W36376   7.883   1.969  16.161  0.0038 -0.0866  0.1067
19530W        W36377  17.440  15.316   4.533  0.0445  0.0748 -0.1598
19531W        W36378   3.649  16.039   2.958 -0.0614 -0.0696  0.1279
19532W        W36379   0.316   4.189  11.491 -0.2974  0.0119  0.2419
19533W        W36380  16.302  14.359   4.021 -0.0010  0.2018  0.1575
19534W        W36381  14.215  10.900  14.154 -0.0573 -0.0095 -0.2635
19535W        W36382   6.115   0.268  14.110 -0.1241 -0.1501 -0.2359
19536W        W36383   4.602   1.864  12.176 -0.2012 -0.1818  0.3727
19537W        W36384  12.102  15.454   5.109 -0.0243 -0.0063 -0.3444
19538W        W36385  10.310   2.689   3.094 -0.1089  0.1464  0.1304
19539W        W36386  13.009  14.458  14.675  0.1293 -0.0184  0.4154
19540W        W36387   1.995   4.217   2.259 -0.0775  0.4029 -0.0363
19541W        W36388  11.117   3.737   4.124  0.0941  0.2005  0.1816
19542W        W36389  10.324  13.259  15.170  0.1332 -0.0545 -0.0276
19543W        W36390   3.216  15.831   5.282  0.0802  0.0848 -0.0156
19544W        W36391  12.570  11.827  12.835  0.0599 -0.0206 -0.5503
19545W        W36392  16.534   5.573   3.303 -0.0109 -0.0570 -0.0994
19546W        W36393  17.804  11.261  14.434 -0.0126 -0.1029  0.1399
19547W        W36394   6.742  15.121   0.919  0.2336  0.0768 -0.0466
19548W        W36395  15.702  17.330   2.186 -0.3468 -0.0572  0.1823
19549W        W36396   1.464   5.433   3.740 -0.0371  0.1222 -0.2929
19550W        W36397   5.545   8.170  16.028 -0.0588  0.2482 -0.0731
19551W        W36398   1.134   2.280   5.508 -0.3569  0.0554 -0.0422
19552W        W36399  12.280  15.859  11.542 -0.0748 -0.3113 -0.2790
19553W        W36400  11.516  14.938  15.656 -0.0354  0.2038 -0.0891
19554W        W36401  16.461   9.181  16.183 -0.0431 -0.2496 -0.1203
19555W        W36402   5.457   6.877  15.678  0.4717 -0.1788 -0.0621
19556W        W36403   3.472  15.538  15.050 -0.1165  0.2906 -0.1534
19557W        W36404  11.689   5.131   2.061 -0.2034  0.2254  0.5374
19558W        W36405  12.386  13.326   5.577 -0.0013  0.3745  0.2742
19559W        W36406   8.577   1.161   2.439  0.1284  0.1511 -0.0508
19560W        W36407  14.599  15.188   4.401  0.1775  0.0862 -0.2054
19561W        W36408   9.293   7.864   3.295  0.0895  0.0777 -0.0085
19562W        W36409   9.328  12.418   1.755  0.1989  0.0884  0.2389
19563W        W36410  11.971  17.969   1.033 -0.0621 -0.3006 -0.2447
19564W        W36411   3.520   2.280   0.602  0.0555  0.2632  0.0459
19565W        W36412   6.686  11.967  11.978 -0.0262 -0.1334  0.3985
19566W        W36413  10.057   8.080  11.009 -0.0776 -0.0622  0.0273
19567W        W36414   9.429  13.666   1.280  0.0914  0.2224 -0.3260
19568W        W36415  17.910   2.535   1.351 -0.1930 -0.0159 -0.1715
19569W        W36416   3.633  11.149   1.741 -0.1599  0.1608  0.1473
19570W        W36417   0.386   5.750  15.353 -0.2560 -0.1011  0.3257
19571W        W36418  16.944  11.137  15.121  0.2807  0.1869 -0.3893
19572W        W36419   8.873   9.557   4.465  0.1665 -0.2460  0.0840
19573W        W36420  12.267  16.285  14.887 -0.1951 -0.2493 -0.1019
19574W        W36421  13.921  14.231  11.782  0.0400 -0.0802  0.0203
19575W        W36422  11.714   2.075  11.098  0.0065  0.0463  0.1368
19576W        W36423  11.868  13.659  14.057  0.1284  0.4380  0.0773
19577W        W36424   0.299  18.140  14.627  0.0353 -0.1355  0.0283
19578W        W36425   5.242   2.054  12.479 -0.1351  0.0950  0.0789
19579W        W36426   7.821  12.101  13.266  0.0944  0.0201 -0.4359
19580W        W36427  17.181  11.138  16.043 -0.0135  0.0180 -0.5889
19581W        W36428  17.819   8.049   3.432 -0.2122 -0.0215 -0.1878
19582W        W36429  14.315   4.316   5.431 -0.3541  0.1340  0.0529
19583W        W36430  13.347  12.284  14.807  0.2521 -0.0026 -0.2782
19584W        W36431   6.215   6.867  15.270  0.1292  0.1298 -0.0318
19585W        W36432   9.537   2.180  13.311 -0.1171 -0.1091 -0.0880
19586W        W36433  13.992  16.639   4.641 -0.2121 -0.0792  0.1064
19587W        W36434  16.213  15.212  13.445 -0.0321  0.0718 -0.1063
19588W        W36435  11.467  12.895  15.018  0.2967  0.1081  0.0116
19589W        W36436  16.051   3.471   2.032 -0.0041 -0.0877 -0.1348
19590W        W36437  12.257   7.713   2.377 -0.1183  0.1985  0.4062
19591W        W36438   9.919   1.661   5.453  0.2332  0.0620  0.0291
19592W        W36439  12.963   6.142  12.972  0.0027  0.0040 -0.3503
19593W        W36440  13.621   1.569   4.624  0.0231  0.1448  0.0913
19594W        W36441  14.485   1.274   3.570  0.0664  0.2950 -0.0098
19595W        W36442  12.601   1.509   0.620  0.0587 -0.0717  0.1963
19596W        W36443   6.050  16.787  12.900 -0.2252 -0.0506 -0.1700
19597W        W36444   8.736  13.263   5.770  0.0649 -0.0916  0.0253
19598W        W36445  12.172   8.071   1.909 -0.0181  0.2469 -0.0976
19599W        W36446  10.425   7.758   4.023  0.2853 -0.1629  0.1279
19600W        W36447  17.396   9.915   0.681  0.1488  0.2637  0.0864
19601W        W36448  13.112   6.078   4.001  0.1723 -0.3133 -0.0840
19602W        W36449   5.997   5.074   5.072  0.1064  0.2353  0.1491
19603W        W36450   3.424   4.365  14.334 -0.0201 -0.3539 -0.1106
19604W        W36451   0.225   0.070  12.488 -0.1741 -0.1141  0.0591
19605W        W36452   7.052   9.883   6.046  0.3529  0.0438 -0.0437
19606W        W36453   3.580  16.062  11.685  0.0589  0.0693  0.2997
19607W        W36454   2.537  10.155  11.833 -0.1006 -0.0132 -0.1735
19608W        W36455  15.123   2.478  14.797  0.0433  0.0706  0.0297
19609W        W36456  16.933  15.421   3.700 -0.3119 -0.0374 -0.1617
19610W        W36457   6.071   8.419   1.962 -0.0754 -0.1529 -0.1980
19611W        W36458  16.029  17.557  16.117  0.1302  0.1606  0.2304
19612W        W36459   2.744  13.701   5.074 -0.1465  0.4171 -0.1588
19613W        W36460  12.902   0.870   0.957 -0.0564 -0.1130 -0.0179
19614W        W36461  17.070  12.696  15.163 -0.2349  0.4062  0.0308
19615W        W36462   0.196  16.375  15.121  0.1566  0.2505 -0.0689
19616W        W36463   8.929   6.078   5.171 -0.0834 -0.1680  0.1637
19617W        W36464  12.341  11.545  10.383 -0.0096  0.0173  0.0066
19618W        W36465   6.410  17.639  14.859 -0.1344  0.2443  0.1031
19619W        W36466  16.970   4.020   4.957  0.2822 -0.1377 -0.2481
19620W        W36467   0.724   7.389  11.655  0.0178  0.3304 -0.0705
19621W        W36468   2.532  13.447  13.989  0.0023 -0.1009  0.1462
19622W        W36469   3.345   0.615   0.283 -0.0157  0.4205 -0.1040
19623W        W36470   6.390   1.364  12.680 -0.1362  0.0469 -0.1346
19624W        W36471  16.348   2.077  15.207 -0.1925  0.1442  0.1848
19625W        W36472  18.271  17.676   2.009 -0.1062 -0.2752 -0.1680
19626W        W36473   2.982  13.366   0.935  0.1298 -0.1242  0.0897
19627W        W36474   8.729   2.889  13.746 -0.1135  0.0359 -0.1210
19628W        W36475   3.433   3.961   3.638  0.0793 -0.0441  0.3642
19629W        W36476   6.072  14.297  10.772  0.0181 -0.0881  0.2776
19630W        W36477  14.846  14.214  15.382  0.2030 -0.2536  0.1243
19631W        W36478   1.590   7.764   0.094  0.0194 -0.1988  0.0960
19632W        W36479  17.737  11.529  15.393 -0.3684 -0.1762 -0.0281
19633W        W36480   6.920   4.196   4.936 -0.1236  0.1471 -0.0067
19634W        W36481   2.032   0.601   2.153 -0.1020  0.0788  0.4007
19635W        W36482   2.224   7.099   1.733  0.1338 -0.0666  0.0828
19636W        W36483  12.632   0.936  11.110 -0.1549  0.2606 -0.3910
19637W        W36484  17.623  10.867  13.256 -0.3624  0.1108 -0.1579
19638W        W36485  10.803  12.296   3.252 -0.2192 -0.1461  0.3055
19639W        W36486   4.621  10.609   3.406  0.1805 -0.3942  0.0321
19640W        W36487   7.420  16.418   1.908 -0.0806  0.0502  0.0927
19641W        W36488  16.741   8.176  14.670 -0.1620  0.1302 -0.0464
19642W        W36489   2.348   3.633   2.935 -0.1524 -0.2753 -0.0331
19643W        W36490  14.868  13.828  13.753 -0.2095 -0.0202  0.1638
19644W        W36491  15.814  13.954   4.809 -0.0181 -0.2859 -0.0806
19645W        W36492  13.855   6.173   3.921  0.0028 -0.2216 -0.2192
19646W        W36493   3.934   2.839   6.140 -0.1252  0.1812 -0.2437
19647W        W36494   0.627  18.049  14.146  0.1344 -0.2248 -0.0570
19648W        W36495   5.551   1.359   6.030  0.0092  0.3540  0.3497
19649W        W36496   9.704  13.006   0.040 -0.2001 -0.3351  0.2667
19650W        W36497  12.239   0.204  11.371 -0.0240  0.0388 -0.0886
19651W        W36498  10.977   6.821   5.086 -0.2247 -0.2688 -0.2348
19652W        W36499   2.148  16.115  15.667 -0.1402 -0.1160  0.1124
19653W        W36500  10.104   3.832  12.228  0.1966  0.2394  0.2129
19654W        W36501  13.595  15.223   3.750  0.0939  0.0926 -0.0556
19655W        W36502  15.572   6.670  13.701 -0.1693  0.1542  0.3167
19656W        W36503  15.211   3.672  11.022 -0.1202  0.1001  0.1799
19657W        W36504   1.622   0.225  14.804 -0.1078  0.0997  0.0651
19658W        W36505   7.408   7.615  12.693  0.1268 -0.0657  0.0557
19659W        W36506   2.105   4.526  16.022 -0.1661 -0.0008  0.0363
19660W        W36507   5.995  17.999   3.074  0.0216 -0.0372  0.2577
19661W        W36508  15.990  10.466   2.092  0.0927 -0.1512 -0.1641
19662W        W36509  17.119   3.717  13.891  0.1834 -0.0502 -0.2699
19663W        W36510   9.060  13.352   4.975 -0.0023 -0.1546 -0.4671
19664W        W36511   6.457   9.296  12.996 -0.0269 -0.0465  0.1526
19665W        W36512   8.590   9.327  11.422  0.2361 -0.2324  0.0514
19666W        W36513  10.377   2.978  14.055  0.0284 -0.0914  0.0670
19667W        W36514   8.155   3.310   1.962  0.1404  0.0175  0.2993
19668W        W36515  11.034   7.682  14.399 -0.0286  0.0931  0.0772
19669W        W36516  10.298  15.148  14.200 -0.0753 -0.2427 -0.0822
19670W        W36517   7.892   3.514  12.480 -0.0177  0.0936  0.1029
19671W        W36518   1.106   1.411  10.853  0.1700  0.3848  0.0849
19672W        W36519   7.658   7.476  11.562  0.0597  0.0624 -0.0402
19673W        W36520   5.578   6.529   0.314 -0.1368  0.0733  0.2531
19674W        W36521   1.102  11.668   0.307 -0.3590  0.0387  0.5345
19675W        W36522   9.501  15.674  15.853  0.3515  0.0990 -0.1497
19676W        W36523   1.108  14.811  11.490  0.4922  0.1573 -0.1547
19677W        W36524  12.909   9.958   0.011 -0.2791  0.0159  0.0624
19678W        W36525  10.818  15.954   5.275  0.1463  0.0861  0.1454
19679W        W36526   1.246  10.848   0.867 -0.0778 -0.3537 -0.0296
19680W        W36527   7.751   5.593   4.705 -0.1045 -0.1313  0.1534
19681W        W36528   8.222  12.347   4.332  0.0195 -0.0361  0.0197
19682W        W36529  17.172   4.016   2.393 -0.2937 -0.2925  0.1946
19683W        W36530  16.067   3.382   2.920  0.1263  0.2234 -0.1946
19684W        W36531  16.017  15.263   4.654  0.2662 -0.0440 -0.1572
19685W        W36532  13.470  13.778   4.931  0.1644 -0.0738 -0.1221
19686W        W36533   8.065   1.041   2.447  0.0172  0.2485 -0.0177
19687W        W36534  15.056   9.877   0.626  0.1075  0.2312  0.0726
19688W        W36535  11.751   4.111   5.634 -0.0165  0.2476 -0.1165
19689W        W36536   6.790  13.100  13.718 -0.0631  0.1711  0.2692
19690W        W36537  16.173   0.426  13.903  0.0853 -0.0577 -0.0533
19691W        W36538  11.167  17.517  14.182  0.2772  0.2228 -0.1206
19692W        W36539  16.277  10.010   2.387  0.1914 -0.0113 -0.2091
19693W        W36540   3.198   9.627   5.757 -0.0156  0.0708  0.1907
19694W        W36541   9.229  18.324  14.240  0.0727  0.0050  0.3127
19695W        W36542  11.792   7.317  15.165 -0.0811  0.3480 -0.0831
19696W        W36543   7.061  17.761  15.526  0.0822 -0.1418 -0.1852
19697W        W36544   3.056  17.045  12.770 -0.1590  0.0394  0.1350
19698W        W36545   1.512  11.481   5.287 -0.0048  0.3111  0.0475
19699W        W36546   5.321  10.863   5.888 -0.0322  0.2493  0.0540
19700W        W36547   6.785   4.177   1.604 -0.1568 -0.1953 -0.0349
19701W        W36548   9.160   7.486   3.577  0.1258 -0.2036  0.0674
19702W        W36549   8.881   9.389   3.952  0.2997  0.0546 -0.3057
19703W        W36550  15.024   9.200  12.496 -0.0957 -0.3159 -0.0758
19704W        W36551   8.497   8.598   4.469 -0.1232  0.0865 -0.0687
19705W        W36552   6.374   4.782   2.578  0.0651 -0.1576  0.0198
19706W        W36553  15.101   6.693  15.877  0.1103 -0.0562  0.0592
19707W        W36554   6.406  18.228  16.091 -0.1976 -0.0545 -0.1866
19708W        W36555   8.263  13.939  11.848  0.2634 -0.4351  0.0977
19709W        W36556   9.769  17.003  13.277 -0.0605 -0.2453  0.2159
19710W        W36557   3.632  15.246   4.763  0.0389  0.2132  0.0691
19711W        W36558   2.883   4.093  14.903 -0.0871  0.0080  0.1308
19712W        W36559   4.994  10.088  15.913  0.1970 -0.0736  0.1534
19713W        W36560  13.999   7.420   5.651 -0.0810 -0.0766  0.2906
19714W        W36561   6.882   9.436  13.994  0.1933  0.1427 -0.1417
19715W        W36562   0.864  15.605   0.165 -0.1734 -0.0697 -0.0303
19716W        W36563   2.504   2.339  14.598  0.1533  0.2582 -0.0698
19717W        W36564   7.449  17.603  13.270 -0.0952  0.0976 -0.2499
19718W        W36565   8.889   4.207  16.010 -0.1542  0.2743  0.0614
19719W        W36566  16.118  13.055  15.290 -0.1537 -0.1072 -0.0515
19720W        W36567   0.862   9.561  11.666 -0.1199  0.0269  0.0477
19721W        W36568  16.578  10.936  15.335 -0.2014 -0.1242  0.1228
19722W        W36569   7.950   0.994   3.135  0.0765  0.1717  0.0137
19723W        W36570   6.300   5.122   0.273  0.0761 -0.0341 -0.0267
19724W        W36571   9.515   9.760  14.041 -0.1752 -0.1451  0.0407
19725W        W36572   9.890   0.377   3.817 -0.2512 -0.2167  0.2852
19726W        W36573   8.679   7.167   3.215 -0.1708  0.1967  0.0696
19727W        W36574  15.316  12.821  13.317  0.2859  0.0102 -0.1032
19728W        W36575  11.366  15.255   5.719  0.1270  0.0461  0.0818
19729W        W36576   3.935   3.431   5.100 -0.2740 -0.0868 -0.2678
19730W        W36577  17.982   7.584   0.147 -0.4038 -0.0090 -0.2389
19731W        W36578  14.948   7.597  16.142 -0.1029  0.1775 -0.0940
19732W        W36579  17.059   2.902  14.516  0.1090 -0.1823  0.1244
19733W        W36580  14.909   2.143  15.097 -0.1765  0.1112 -0.0867
19734W        W36581  13.942  11.282   5.107 -0.1793  0.0556  0.1582
19735W        W36582  15.201   8.956  11.972  0.4578  0.3963  0.1758
19736W        W36583   4.258   4.262   0.556 -0.5299  0.1494  0.1309
19737W        W36584  12.672   7.998  12.012 -0.1696  0.2483 -0.0712
19738W        W36585   6.312   3.461   5.295  0.1138 -0.1661  0.1921
19739W        W36586   4.746  13.308   5.395  0.1443 -0.1845  0.2844
19740W        W36587  17.552  10.819   3.723  0.0256  0.0297  0.1655
19741W        W36588  17.440   6.767  12.044  0.1081 -0.0319 -0.1102
19742W        W36589   4.721  15.406   2.803 -0.2232 -0.0581 -0.2322
19743W        W36590  13.866   3.542  10.022 -0.1221  0.1384 -0.2338
19744W        W36591   9.101  11.306   2.094  0.3695 -0.1984 -0.0975
19745W        W36592  13.041   2.736  12.698 -0.1571 -0.0161 -0.3471
19746W        W36593   7.972   1.969   1.413  0.0872  0.3064  0.0086
19747W        W36594  11.960  12.147   5.348 -0.0558 -0.1465 -0.4117
19748W        W36595   5.166   6.029  12.055  0.3545  0.1400  0.2116
19749W        W36596  11.204   8.561  14.445  0.1688 -0.0180 -0.1043
19750W        W36597   8.059  18.018   5.175  0.2855  0.3835  0.1810
19751W        W36598   8.118  10.086   1.602 -0.2166  0.0546  0.1937
19752W        W36599   0.629  13.285   2.682  0.1770  0.0443  0.0278
19753W        W36600   2.384   7.053   3.804  0.2787  0.1125  0.3003
19754W        W36601  15.010   3.446   2.792  0.0870  0.1379 -0.0106
19755W        W36602   6.859  13.955  13.113  0.2032  0.1641 -0.0857
19756W        W36603  15.244   8.208  13.136  0.1027 -0.0340 -0.1163
19757W        W36604   4.422   4.083  14.189 -0.1493 -0.1777  0.1614
19758W        W36605  17.123  13.305   6.027 -0.1508  0.0035 -0.1010
19759W        W36606   6.948  15.993   1.336 -0.0655 -0.0228 -0.1309
19760W        W36607   6.341  10.873  14.882  0.0895 -0.1865 -0.0654
19761W        W36608   7.786   0.712  13.421  0.1438  0.1235  0.0835
19762W        W36609   3.701   3.251   4.170 -0.0858 -0.1392 -0.0013
19763W        W36610   3.676  11.807   4.272  0.0709  0.0659 -0.0463
19764W        W36611   6.897  16.167   6.175 -0.0364  0.2330 -0.1722
19765W        W36612   9.132  16.413   2.501 -0.0783  0.1376  0.3233
19766W        W36613   7.367   3.413   2.452 -0.2128  0.1654 -0.0614
19767W        W36614  10.989  16.029  14.614 -0.1580  0.0085  0.0875
19768W        W36615   6.783   5.503   2.623  0.1162 -0.0336 -0.1180
19769W        W36616   1.547   5.237  15.516  0.1098  0.1207  0.0936
19770W        W36617  13.386   2.991  11.821 -0.2383 -0.1079 -0.1764
19771W        W36618   1.922   0.020   2.352  0.2568 -0.0023 -0.2421
19772W        W36619  16.062  14.811  13.003  0.2044  0.0706  0.0269
19773W        W36620   9.560   3.652   4.339  0.0158  0.3624 -0.0404
19774W        W36621   9.989   5.200   4.109  0.0054 -0.0648  0.0020
19775W        W36622   8.287   0.011  15.171 -0.0061 -0.0486 -0.0460
19776W        W36623  13.887  16.259   2.802 -0.1069  0.0647  0.0572
19777W        W36624  10.577   3.804   1.569 -0.2005  0.2480 -0.1319
19778W        W36625  14.043  10.494  14.713  0.1817 -0.1803  0.2543
19779W        W36626   1.708   2.446   1.023 -0.0840  0.2876 -0.0106
19780W        W36627   3.716  14.209  15.462 -0.4642 -0.1760 -0.1237
19781W        W36628   9.537   7.527  11.380 -0.0151  0.2972 -0.4162
19782W        W36629  15.720   3.865   1.596  0.0511  0.0763 -0.0287
19783W        W36630  11.214   1.898   2.225 -0.1869  0.0885  0.1426
19784W        W36631   4.413   5.440   5.166  0.1336 -0.2429 -0.2633
19785W        W36632   5.359   9.624   5.284 -0.3436 -0.2779 -0.0198
19786W        W36633  17.648   7.609   1.163 -0.3600  0.0954  0.1063
19787W        W36634  10.651  14.097  15.453 -0.0642 -0.3430  0.2860
19788W        W36635  16.857   6.430   1.714  0.0391  0.0606 -0.1111
19789W        W36636  17.839  10.480   4.643 -0.1389 -0.1383 -0.2953
19790W        W36637   8.695   3.161  15.981 -0.3020  0.0059 -0.0975
19791W        W36638   8.801   5.599   5.156 -0.0583 -0.1345  0.2544
19792W        W36639   7.735   2.302  15.359  0.0653  0.0463  0.0859
19793W        W36640  14.688   5.350  13.380  0.0029 -0.0497 -0.2624
19794W        W36641   4.216  11.916   2.127 -0.2224  0.1434 -0.2459
19795W        W36642   6.032  12.472  11.763 -0.0034 -0.1732  0.1088
19796W        W36643   5.742  13.513   0.768  0.1858 -0.4244 -0.0102
19797W        W36644  14.467   1.098  12.333 -0.0835 -0.0788  0.1584
19798W        W36645   6.556  17.128  14.152  0.0659 -0.1073 -0.1708
19799W        W36646  17.959   9.057   4.823  0.0756 -0.0439  0.1027
19800W        W36647  13.527   3.762  15.136  0.1185  0.1425  0.0989
19801W        W36648  13.567   1.108  15.185  0.1379  0.3022  0.0926
19802W        W36649  17.629   0.182   1.421  0.0151 -0.1344 -0.0027
19803W        W36650   1.734   8.150  15.555  0.1631  0.0054  0.0300
19804W        W36651  12.382   2.855  13.192  0.4926 -0.1389  0.1107
19805W        W36652   4.412   2.193  13.959 -0.1478 -0.1369  0.0246
19806W        W36653   9.781   1.437  11.319  0.1601 -0.1385 -0.0002
19807W        W36654   1.628  13.819   0.811 -0.1105 -0.0486 -0.5346
19808W        W36655  17.421  12.977   4.315  0.1731  0.2070 -0.0160
19809W        W36656  17.366  17.533  12.624  0.0520  0.0804  0.1581
19810W        W36657  15.694  16.580   5.678  0.0981  0.0931 -0.0493
19811W        W36658   6.730   3.186   0.557  0.0122 -0.0518 -0.2431
19812W        W36659  15.119   1.839  13.704 -0.2077 -0.0540 -0.1981
19813W        W36660  16.087   2.475   4.114  0.0232  0.0747 -0.0702
19814W        W36661   6.543  10.398   0.109  0.2269  0.1439  0.0043
19815W        W36662   8.406  14.827  11.752  0.2718  0.1901  0.1618
19816W        W36663   1.047   0.718   1.879 -0.3193  0.1310 -0.1145
19817W        W36664   6.294  17.060   1.327  0.0340  0.3114 -0.3630
19818W        W36665   8.418  11.185   2.698 -0.0120 -0.2231  0.2188
19819W        W36666   7.311  10.146  14.609  0.3545  0.0533 -0.1063
19820W        W36667   3.314   1.742   2.413 -0.0217  0.3080 -0.0328
19821W        W36668   2.404  16.229   5.180 -0.2506 -0.0058  0.0493
19822W        W36669  17.432   5.720   1.966 -0.1561 -0.0631  0.0351
19823W        W36670   9.812   1.815  13.148 -0.4663 -0.0282  0.0694
19824W        W36671  14.550   1.892  15.845  0.0406  0.1194  0.0074
19825W        W36672   6.016  10.279   2.556 -0.0775 -0.0822 -0.0051
19826W        W36673   1.614  11.628   1.193 -0.1063  0.0220 -0.2585
19827W        W36674  16.743  11.447  13.260  0.1882 -0.0140  0.0064
19828W        W36675  16.718   3.192  14.078 -0.3612 -0.0142  0.1256
19829W        W36676   7.825  14.095   1.899 -0.0730 -0.2823 -0.1741
19830W        W36677   8.141   6.526  15.251  0.2244  0.2151 -0.1771
19831W        W36678   9.697   4.897  13.320  0.1859  0.0576  0.0809
19832W        W36679   5.316  16.734   5.142 -0.0909 -0.0649 -0.1278
19833W        W36680   5.558  18.248   0.141  0.2702 -0.3246 -0.0795
19834W        W36681   2.422   1.324   0.588  0.3207  0.1461 -0.0950
19835W        W36682  13.011   0.817  11.473  0.0250  0.1267  0.1842
19836W        W36683  12.043  16.816  12.568 -0.1043  0.0162  0.0484
19837W        W36684   2.777   5.459   1.181  0.0413  0.3312  0.0702
19838W        W36685   3.523  15.336  15.705  0.2999  0.1878  0.1651
19839W        W36686  15.567   5.458  14.763 -0.1220  0.1054  0.0455
19840W        W36687  14.876   0.059   0.450  0.0802 -0.2255  0.1478
19841W        W36688  11.658  17.730  14.190  0.0362  0.0620 -0.0105
19842W        W36689  15.503   8.725  15.031 -0.1695  0.3934  0.3031
19843W        W36690   7.937   6.865  15.981 -0.3473 -0.0482  0.0088
19844W        W36691  10.047   1.666  13.911  0.1405 -0.0171  0.0777
19845W        W36692  11.425  15.900  13.213  0.0420 -0.0008  0.0856
19846W        W36693   3.549   9.990   3.756 -0.0667 -0.1208 -0.1446
19847W        W36694   3.895   9.906   4.290  0.3595  0.0585  0.0470
19848W        W36695   6.634   1.437  13.249 -0.0298  0.2366 -0.1231
19849W        W36696  11.449  17.151  16.020 -0.2996 -0.0838  0.3418
19850W        W36697   9.666  14.895  13.705 -0.0486  0.1911  0.0535
19851W        W36698  16.014  18.079   3.737 -0.0308  0.2273  0.0442
19852W        W36699   0.222  14.176   1.588  0.0748  0.1794  0.0917
19853W        W36700  14.221   9.685   4.948 -0.0746  0.2671 -0.3082
19854W        W36701   3.049  14.361  14.302 -0.2010  0.0642 -0.2105
19855W        W36702  16.276   8.465   2.639 -0.1911  0.0209  0.0554
19856W        W36703   1.135   2.477   0.534 -0.3068 -0.1210  0.2040
19857W        W36704  16.762   0.036   1.038  0.0967  0.0721 -0.5177
19858W        W36705  14.393  11.113  12.709 -0.1393  0.1731 -0.2142
19859W        W36706  15.004   2.665  11.287  0.4632 -0.1123 -0.0824
19860W        W36707   7.033  14.312   5.044  0.3290 -0.0654 -0.0867
19861W        W36708  11.192   4.660   3.808 -0.4139 -0.1273  0.0749
19862W        W36709   3.578  17.153   0.117 -0.1380  0.1052  0.2936
19863W        W36710  10.198   6.142   4.796 -0.0341  0.1187  0.1109
19864W        W36711  17.344  15.872  12.534 -0.0386  0.0462 -0.0197
19865W        W36712   2.305  16.683  11.358  0.0047 -0.0547 -0.1870
19866W        W36713   1.292  12.936   1.064  0.1736  0.0560 -0.2138
19867W        W36714   7.141  16.842   1.901  0.1506 -0.0708  0.1383
19868W        W36715   0.020  13.710   6.148  0.0034  0.1105  0.0036
19869W        W36716   2.768  14.892  15.590 -0.1908 -0.3292  0.4612
19870W        W36717   9.987   1.898  11.193  0.2017 -0.0155  0.0121
19871W        W36718  10.180  12.480  15.045  0.2448 -0.1713  0.2988
19872W        W36719  18.292   5.600  16.045  0.2197  0.0783 -0.2139
19873W        W36720  16.781  18.244   0.039  0.0050 -0.3986  0.0176
19874W        W36721  18.213   0.693   0.788 -0.2132  0.0764  0.0338
19875W        W36722   5.218   3.877  11.544 -0.1619  0.0418 -0.0277
19876W        W36723  10.614  13.613  13.497 -0.0408 -0.0416  0.2549
19877W        W36724   0.667   7.535  13.679  0.0084 -0.0304  0.2200
19878W        W36725  12.278   0.571   0.175  0.0685  0.2008 -0.2561
19879W        W36726  13.770  14.536  14.001 -0.2295 -0.0551  0.3649
19880W        W36727  11.317  11.791   0.266  0.1497 -0.1443  0.4510
19881W        W36728  17.932   2.603  12.258  0.2052  0.0991 -0.0519
19882W        W36729  10.699   2.858   5.239  0.2702 -0.1749 -0.1153
19883W        W36730   8.161  13.407   2.621  0.3636 -0.0550  0.3439
19884W        W36731   6.928   4.726   0.812  0.0257 -0.0726 -0.0572
19885W        W36732  14.671  16.387  13.789 -0.1646  0.0376 -0.0417
19886W        W36733  10.952   1.593   1.888 -0.0590  0.0004 -0.1899
19887W        W36734   5.526  14.085  10.822  0.1505  0.0454 -0.2402
19888W        W36735   8.930  16.069   0.640  0.2030  0.1336  0.2456
19889W        W36736   2.014   5.012   4.612 -0.1566 -0.5348  0.1005
19890W        W36737   8.375  11.769  15.117  0.2590  0.2073  0.1954
19891W        W36738  13.601   6.330   1.508 -0.2268  0.1544  0.3146
19892W        W36739   5.000  17.325   3.982  0.0204  0.2495  0.2588
19893W        W36740  10.962   7.237   0.953 -0.0800 -0.3061 -0.3965
19894W        W36741  11.753   8.375   4.196  0.2139 -0.0911 -0.1318
19895W        W36742  13.921   8.687   0.815 -0.1674 -0.1694  0.1706
19896W        W36743   6.962   2.561   3.479 -0.1894  0.1018  0.1997
19897W        W36744  15.815   9.277   0.851 -0.0517 -0.2114 -0.0890
19898W        W36745  13.630   3.776   0.373  0.2004  0.2188 -0.0411
19899W        W36746  18.331  13.766   0.458  0.1031 -0.1638  0.1579
19900W        W36747   5.059  13.555   4.170  0.1662 -0.5410 -0.1087
19901W        W36748  14.004   9.188   2.567 -0.1411 -0.0653  0.0490
19902W        W36749   3.186  14.769  15.189  0.0206 -0.1556  0.0802
19903W        W36750  13.203   6.352  10.073 -0.2459 -0.0695  0.1214
19904W        W36751  17.445  13.327   1.349 -0.0825  0.2176  0.2358
19905W        W36752   7.527  11.214  12.324 -0.1973 -0.2220  0.0382
19906W        W36753  13.520  11.172   3.671  0.1138 -0.1991 -0.1406
19907W        W36754   5.969   5.649   5.035  0.1231  0.2958  0.3077
19908W        W36755  12.549   4.910  12.782 -0.0746  0.2835  0.1355
19909W        W36756  12.032   4.923   4.162  0.0632 -0.2044  0.0005
19910W        W36757  15.119   8.313  13.853  0.0294 -0.0216 -0.1446
19911W        W36758   4.737   7.489   4.150  0.0567 -0.0822  0.1706
19912W        W36759  15.920  13.932   4.105 -0.2521  0.0152  0.0882
19913W        W36760   7.406  15.685  14.385  0.0891  0.0222  0.0782
19914W        W36761  16.274   5.452   4.627 -0.2243  0.1008  0.0656
19915W        W36762  17.855   3.202   4.004  0.0764 -0.2686 -0.0020
19916W        W36763   9.393   9.671   1.381  0.1415  0.1228 -0.0667
19917W        W36764   3.579  12.837   1.544 -0.0166  0.0409 -0.1050
19918W        W36765  14.956   1.157   2.254  0.1847  0.2305 -0.0690
19919W        W36766   7.851   9.359  14.290  0.2037  0.4286 -0.0353
19920W        W36767  16.303  14.549   3.534 -0.0119  0.0680 -0.0866
19921W        W36768  12.764   1.528   1.884 -0.0331  0.1376 -0.0340
19922W        W36769  16.779   6.349  13.577  0.0059  0.0078  0.0441
19923W        W36770   8.455   6.202  14.355 -0.1422  0.0015 -0.2997
19924W        W36771   2.709  16.377  13.463  0.2882  0.1054 -0.0446
19925W        W36772   6.534   1.382   1.946  0.0783  0.2067  0.0887
19926W        W36773   7.840   9.785   1.991 -0.0273  0.2948 -0.0834
19927W        W36774   1.113  13.186   2.677  0.0214  0.0321  0.1081
19928W        W36775  10.626   0.428   0.092 -0.0817 -0.1540 -0.2403
19929W        W36776   8.192   1.858   3.009 -0.2288  0.0634  0.1097
19930W        W36777   9.467   6.435  11.483  0.2460  0.1302 -0.1731
19931W        W36778  14.594   2.250   2.838  0.0362 -0.0076 -0.3486
19932W        W36779   0.086   6.942  15.901 -0.1193 -0.0022 -0.0812
19933W        W36780  10.464  17.393   4.671  0.0824 -0.0651  0.0502
19934W        W36781   5.824  11.690  14.047 -0.1634  0.3432  0.2022
19935W        W36782  17.504  13.856   1.469 -0.0938  0.1192  0.1941
19936W        W36783   8.305  17.542  13.965 -0.0248 -0.0982 -0.0764
19937W        W36784  16.261   1.775  11.334  0.0948 -0.0647  0.2478
19938W        W36785   1.309   2.466  13.214  0.1075  0.2559 -0.3475
19939W        W36786  16.849  10.267  11.671  0.1897 -0.3995 -0.3727
19940W        W36787   2.890   0.747   0.128  0.3062  0.1625 -0.1353
19941W        W36788   6.379   4.504  15.752  0.4459  0.0512 -0.1844
19942W        W36789  12.159   5.587  10.296  0.1618 -0.0328  0.0649
19943W        W36790   7.439  18.091  14.210 -0.1074  0.1216 -0.1605
19944W        W36791  14.669   3.041   1.624  0.2380 -0.1969 -0.0982
19945W        W36792   3.140   9.269  12.251 -0.0818  0.1160  0.2792
19946W        W36793   0.758  15.341   1.347 -0.0560 -0.1571  0.1012
19947W        W36794   6.234   9.693  12.744  0.0098 -0.0574  0.0438
19948W        W36795   9.207   0.871  15.984  0.2174 -0.0787 -0.1694
19949W        W36796   4.003  13.806  14.580  0.1088 -0.2750 -0.2686
19950W        W36797  16.997  10.576   4.818 -0.0346 -0.2003 -0.1349
19951W        W36798   6.416   2.571   0.999  0.2129 -0.0575 -0.1213
19952W        W36799  11.912   1.560   0.218 -0.2309 -0.1834  0.1522
19953W        W36800  13.338  16.124   0.537  0.0452  0.0934 -0.0297
19954W        W36801   2.333  14.715   2.399  0.3060  0.4232 -0.0482
19955W        W36802  16.261  14.701   1.045  0.1496  0.2264 -0.0121
19956W        W36803  15.488  17.758  15.003  0.2556  0.0425 -0.0896
19957W        W36804  10.207  10.579   0.279 -0.2400 -0.0680 -0.2681
19958W        W36805   9.791  13.263  14.560 -0.0471 -0.0142 -0.2078
19959W        W36806   0.722   5.309  13.732 -0.2123  0.3753  0.0142
19960W        W36807  10.242  15.322   3.190 -0.2692 -0.0459 -0.0082
19961W        W36808   3.763   7.129   3.634  0.2468  0.0061 -0.0633
19962W        W36809  16.654   4.658   1.675  0.1281  0.2587 -0.2543
19963W        W36810  16.261   1.922   2.335 -0.2668 -0.2026 -0.1267
19964W        W36811   2.417  14.914  13.842 -0.0103 -0.0434 -0.2771
19965W        W36812   3.445   7.154  13.093  0.0642 -0.4148  0.2899
19966W        W36813  15.931   5.218  15.098  0.1421  0.0222  0.3809
19967W        W36814  13.582   8.699  12.251 -0.0280 -0.4670 -0.1075
19968W        W36815  10.703  17.412   0.549  0.1379 -0.4158  0.2654
19969W        W36816  11.331  14.333  13.686  0.2384 -0.1579  0.4253
19970W        W36817  11.818  11.799   0.095 -0.0008 -0.1187  0.5035
19971W        W36818   0.087  11.945  15.305  0.0013 -0.0119 -0.1508
19972W        W36819   0.375   0.625   4.045  0.1118 -0.0828  0.1032
19973W        W36820  15.482   9.939  13.760 -0.0032 -0.0445 -0.0485
19974W        W36821   6.561   3.447   3.502  0.0843 -0.3389  0.2832
19975W        W36822  17.902   1.656   1.629 -0.1096  0.2134 -0.3073
19976W        W36823  11.986  14.234   0.812  0.1560 -0.0150 -0.1892
19977W        W36824  14.059  18.080   1.170 -0.2684  0.0263  0.1844
19978W        W36825   8.553   7.082  11.364  0.0018 -0.1704  0.0045
19979W        W36826   4.737  16.826  11.670 -0.1518 -0.3044  0.2396
19980W        W36827   2.984   4.193   4.981 -0.2080  0.3453 -0.0276
19981W        W36828  10.982  11.238  11.831  0.0397  0.3499 -0.1467
19982W        W36829  10.531  10.875   1.158 -0.1595 -0.0043  0.2010
19983W        W36830  13.062  18.123  11.565  0.2521 -0.2603 -0.0510
19984W        W36831  17.998   3.716  15.456 -0.0775 -0.0432  0.3142
19985W        W36832   3.300   8.712   3.944  0.0622 -0.0713  0.0771
19986W        W36833  12.692  13.598   0.942 -0.3552  0.0210  0.0716
19987W        W36834  10.017   0.326  12.175 -0.1244 -0.1134 -0.5258
19988W        W36835  12.608   5.855   1.537  0.0254 -0.0173 -0.1112
19989W        W36836  10.089   6.676  15.212  0.1874  0.1322 -0.2883
19990W        W36837   4.181  10.744   1.604 -0.0663 -0.0794  0.2118
19991W        W36838   2.516  10.505   3.810 -0.2977 -0.1220  0.0884
19992W        W36839  15.736   0.743  14.341 -0.1497  0.2261 -0.1407
19993W        W36840  16.833   9.268   3.034 -0.0065 -0.1425  0.0176
19994W        W36841  17.078   1.258  13.355  0.1637  0.0330  0.0989
19995W        W36842  11.985  13.703  14.534  0.0028  0.0554 -0.0091
19996W        W36843  11.479  13.948  11.896 -0.2997  0.1478  0.1333
19997W        W36844  14.159   2.584  14.085  0.0517 -0.0773  0.2718
19998W        W36845  13.876  13.753   2.629 -0.0276  0.1240 -0.0240
19999W        W36846   0.791   9.288   0.343  0.1679 -0.0768 -0.2474
20000W        W36847  12.829  14.047  11.380  0.3034 -0.0649 -0.0842
20001W        W36848   5.678  12.738  13.692  0.0628 -0.3985 -0.1507
20002W        W36849   8.686   1.004  13.337  0.3495 -0.3378  0.0305
20003W        W36850  12.920  14.465  13.761  0.0905  0.2588  0.3026
20004W        W36851  13.369   7.256   0.540 -0.0475 -0.1665 -0.1122
20005W        W36852  10.084  13.028   5.633  0.1818  0.0205  0.3165
20006W        W36853  11.882   8.790  10.903  0.3536  0.3525  0.3305
20007W        W36854  14.547  12.316   1.193  0.0165 -0.0942 -0.1807
20008W        W36855  10.400   1.216  13.695  0.0909  0.0586  0.0615
20009W        W36856   0.232  15.751  14.979  0.0562  0.0311 -0.0756
20010W        W36857  11.327   7.184   2.413  0.0566  0.0647  0.1457
20011W        W36858   4.492  13.231  13.306  0.0579  0.2009  0.0121
20012W        W36859   8.995   3.022   1.968  0.2557  0.1166  0.2275
20013W        W36860   2.777  16.595  11.398 -0.0417 -0.1355  0.0260
20014W        W36861   2.036  15.623  15.362 -0.3199 -0.0799  0.0025
20015W        W36862  13.515  17.974   5.340 -0.2976 -0.1414 -0.0771
20016W        W36863  14.430   2.453   0.047 -0.1067  0.1787  0.0713
20017W        W36864   4.340   7.915   0.562 -0.0865 -0.0903  0.1146
20018W        W36865   4.330   0.500   3.260 -0.1743  0.1105  0.0698
20019W        W36866  17.650  17.637  14.832  0.0117  0.0156 -0.2724
20020W        W36867   9.008  11.014   0.850 -0.2620  0.1588 -0.0382
20021W        W36868   4.551   4.388  13.799  0.0655  0.1310  0.0832
20022W        W36869  17.437  10.779  14.214  0.0773  0.0819  0.0468
20023W        W36870  12.224   3.153   0.398 -0.2846 -0.0509  0.1216
20024W        W36871  15.371   8.548   1.749  0.1376 -0.4120  0.1650
20025W        W36872   7.825  14.213  12.727  0.2045 -0.0110  0.1393
20026W        W36873   3.064   3.565  13.888  0.1897 -0.0262  0.2208
20027W        W36874  13.443   2.521  13.875 -0.1142  0.0701 -0.3498
20028W        W36875   9.617   4.141   0.234 -0.1289 -0.3775 -0.1158
20029W        W36876  12.894   2.451   0.138 -0.1489 -0.3398 -0.0707
20030W        W36877  11.335  13.172   3.052 -0.0911  0.4010 -0.0976
20031W        W36878   3.184  16.195   2.895  0.0637 -0.1714  0.2719
20032W        W36879  16.480  12.836   4.657  0.4637  0.1393 -0.0141
20033W        W36880   9.180   8.704   0.969  0.3617  0.0368 -0.1146
20034W        W36881  11.536   9.391   2.278 -0.2883  0.1412  0.0991
20035W        W36882  14.818  11.173   1.995 -0.0217 -0.0290 -0.1393
20036W        W36883   5.851   2.405  11.691 -0.0009 -0.0967  0.0807
20037W        W36884  16.106  16.810   1.061  0.0389 -0.1760 -0.0181
20038W        W36885  11.773   6.847   1.515  0.3744  0.2817  0.1389
20039W        W36886  11.655   7.942  14.879  0.1471 -0.1233  0.0656
20040W        W36887  17.611   8.787  15.525 -0.0689  0.0609  0.0445
20041W        W36888  17.465  12.795   3.406 -0.3105  0.0305  0.0216
20042W        W36889   7.542   0.940   2.350 -0.1639  0.0577  0.2352
20043W        W36890   6.285  14.355   3.986 -0.0213 -0.0578  0.4375
20044W        W36891   9.584  12.783   4.218  0.0014 -0.1639 -0.3807
20045W        W36892  15.578  10.190  12.451 -0.1189  0.1335  0.0257
20046W        W36893   3.573   2.717   0.321  0.2579  0.2035  0.0309
20047W        W36894   2.932   6.964   2.174  0.0012 -0.1684 -0.0683
20048W        W36895   0.106   2.567   0.750 -0.0994  0.0771 -0.0344
20049W        W36896   8.751  10.352  14.167  0.0136  0.1533  0.0209
20050W        W36897  13.582   2.562   0.336 -0.1881 -0.3269 -0.0414
20051W        W36898  10.076  17.344   2.865 -0.0221  0.0189  0.2479
20052W        W36899  15.583   6.370  10.791  0.0166  0.2125 -0.0488
20053W        W36900   2.248  12.820   4.894 -0.4748  0.4660  0.1992
20054W        W36901  11.007   1.221  16.184 -0.1841  0.1406  0.0750
20055W        W36902   3.148   6.457  12.015 -0.0673 -0.1472 -0.1165
20056W        W36903   2.870   9.324  12.959  0.0315 -0.2311 -0.3255
20057W        W36904   6.338  17.744   5.609  0.0284 -0.1036 -0.0945
20058W        W36905   0.489  10.107  16.181  0.0165  0.1752  0.0685
20059W        W36906   9.247   3.364  15.985  0.0865 -0.0213 -0.1245
20060W        W36907  16.012  11.701   0.237 -0.1676  0.0215  0.1404
20061W        W36908   5.457  18.312  11.067 -0.2569 -0.1861 -0.1166
20062W        W36909  11.401   1.427  13.066  0.0697 -0.1619  0.3450
20063W        W36910  12.297  16.203  13.152  0.0888 -0.0269 -0.0328
20064W        W36911   8.944   3.012   0.978  0.1407 -0.0966  0.1693
20065W        W36912   9.472   9.595   1.875 -0.3961  0.1563 -0.2536
20066W        W36913   8.796  13.893  11.866 -0.0100  0.2768  0.1739
20067W        W36914  12.533   0.633  14.617  0.0982  0.2314  0.1995
20068W        W36915   2.255  13.062  13.862 -0.1152  0.0333 -0.0987
20069W        W36916  18.025   3.044  12.504 -0.0165 -0.2019  0.2655
20070W        W36917   7.023   6.601   4.052  0.1657  0.0818  0.0068
20071W        W36918   1.229   4.141   1.519  0.0182  0.1902  0.1445
20072W        W36919   8.020  12.585  15.383 -0.2899  0.1148 -0.0778
20073W        W36920  10.886  13.373  14.518  0.1883  0.1262 -0.2353
20074W        W36921   1.283   4.140  15.991 -0.0159  0.0742  0.1981
20075W        W36922   3.655   5.300   2.572  0.3027  0.0975 -0.1712
20076W        W36923  10.740  13.610  12.397 -0.1788  0.0761 -0.0739
20077W        W36924   9.156  13.122   3.457  0.2621 -0.1030 -0.1728
20078W        W36925   6.731   9.672   0.590 -0.0564 -0.4261 -0.1655
20079W        W36926   1.465   5.057   4.563 -0.1615  0.3608 -0.1373
20080W        W36927  14.215  13.360  12.993 -0.2381  0.4311 -0.0043
20081W        W36928   9.490  18.276  16.092  0.3854 -0.2965  0.3827
20082W        W36929   1.716  12.807  14.088  0.2260  0.0113 -0.3655
20083W        W36930   3.098  13.104   1.657  0.0409 -0.1122 -0.1606
20084W        W36931  10.755   4.394  11.726 -0.1177 -0.2624  0.2344
20085W        W36932  12.051   9.635  12.002  0.3227  0.3368  0.1698
20086W        W36933   1.919   9.336   2.222  0.3441 -0.1105  0.3599
20087W        W36934  11.367  10.524  14.950 -0.0226  0.0179  0.2657
20088W        W36935   5.214  12.791   3.179  0.1485 -0.0912 -0.2357
20089W        W36936   5.633   2.192   0.819 -0.3700  0.1873  0.0746
20090W        W36937  16.264   1.241  13.826  0.1913  0.0139  0.1615
20091W        W36938   7.579   8.141  15.135 -0.0910  0.2027  0.0612
20092W        W36939  15.024   7.970   0.310 -0.0828  0.1229 -0.0779
20093W        W36940   3.865   6.621   6.149  0.1742 -0.0733  0.1064
20094W        W36941   0.058  18.219  15.776  0.1182 -0.2678 -0.0854
20095W        W36942   9.140   2.002   4.887  0.2075  0.2057  0.0525
20096W        W36943   0.143  16.182  11.770 -0.0801  0.0723 -0.0312
20097W        W36944   9.208  17.159   2.707 -0.3794  0.2075  0.0812
20098W        W36945  15.115   4.080   3.363  0.2567  0.0980  0.2572
20099W        W36946  17.907  16.773  15.412 -0.0122  0.0012 -0.0591
20100W        W36947  14.243   9.393   0.486  0.2013 -0.1768  0.3998
20101W        W36948   1.561  10.840   3.170 -0.1074  0.2033 -0.0866
20102W        W36949   8.487   4.474  11.027 -0.2123  0.1408 -0.1214
20103W        W36950  14.226   4.101  10.952  0.1485  0.1394  0.1124
20104W        W36951  10.887   3.938  11.537 -0.0065 -0.0091  0.0890
20105W        W36952   2.380  10.502   4.722  0.1717  0.1308  0.1127
20106W        W36953  16.442   8.482  14.475 -0.0788 -0.0146  0.0951
20107W        W36954   3.849  14.565  11.306 -0.0954  0.0395 -0.2397
20108W        W36955   6.463  12.582   4.448 -0.2233  0.1541 -0.2812
20109W        W36956   2.663   5.151   4.785 -0.2030 -0.2877 -0.1381
20110W        W36957  10.355  16.103   4.993 -0.2036  0.0537 -0.2560
20111W        W36958   0.919   3.956   0.112 -0.0941 -0.0551  0.1031
20112W        W36959   6.906   4.921  14.138 -0.0555  0.2209 -0.0126
20113W        W36960   9.261   3.937   1.729 -0.0199 -0.1369  0.2348
20114W        W36961   9.415   3.350   0.767 -0.0183 -0.0824  0.3052
20115W        W36962  12.460  14.691   2.497 -0.3142 -0.2921 -0.0414
20116W        W36963   2.331  15.164  14.286  0.0767 -0.2215  0.0711
20117W        W36964  17.296   5.744  14.727 -0.3758 -0.0850 -0.2549
20118W        W36965  14.898   1.068   3.693  0.1372  0.4225 -0.1638
20119W        W36966  13.410   9.452  13.040 -0.0651 -0.1269  0.1646
20120W        W36967  13.727  15.321  14.633 -0.1770  0.0714 -0.1380
20121W        W36968   1.220  10.128  15.444 -0.1187 -0.2374 -0.1708
20122W        W36969   7.617   1.511   0.054  0.0959 -0.2730 -0.0717
20123W        W36970  16.824  11.670  11.398 -0.0791  0.0531  0.3416
20124W        W36971  15.770   9.607  14.032 -0.1925 -0.2195 -0.0112
20125W        W36972  15.120  18.084   3.899 -0.1147 -0.0053 -0.0731
20126W        W36973   8.976   6.745  15.744 -0.3745 -0.0455  0.1133
20127W        W36974   2.636  14.530  14.123  0.1761  0.1175 -0.0522
20128W        W36975  15.054  16.852  11.727  0.1024 -0.0432  0.0549
20129W        W36976   3.087   1.691   1.247  0.5047 -0.1871 -0.1942
20130W        W36977  11.568  10.638  12.823 -0.1986  0.1049  0.1631
20131W        W36978   2.221  10.353  15.393 -0.1427 -0.0656 -0.4281
20132W        W36979   5.868   4.331   3.309  0.0238  0.0909  0.4101
20133W        W36980  15.848   8.846  14.025 -0.0543  0.1004 -0.2324
20134W        W36981   4.322  13.480   0.268  0.3500  0.0239 -0.2370
20135W        W36982  12.366   5.512  10.733 -0.0125 -0.1627 -0.1158
20136W        W36983  14.548  16.493  16.119 -0.2306  0.0198  0.1271
20137W        W36984   7.684   4.493   4.332  0.0721  0.2394 -0.2698
20138W        W36985  15.415   1.825  12.306  0.0871 -0.0953  0.0108
20139W        W36986   1.276  14.179   5.326  0.0060  0.0795 -0.1471
20140W        W36987   9.026   0.304  16.036  0.2032 -0.0437 -0.0918
20141W        W36988   1.047   9.011   2.962  0.2380  0.0800 -0.0034
20142W        W36989   3.964   9.007  13.386 -0.3002 -0.1195  0.0650
20143W        W36990  13.766  14.655   0.246  0.4019 -0.0357  0.2201
20144W        W36991  12.976   2.116   4.222 -0.0104  0.0892  0.0952
20145W        W36992   9.074   0.381   3.455 -0.0275 -0.2497 -0.0406
20146W        W36993   0.486  13.897   3.621  0.1245  0.1030 -0.1889
20147W        W36994   0.415  14.475   4.456 -0.2576  0.3508 -0.1054
20148W        W36995   4.504  16.903   0.544  0.2817  0.4083  0.0776
20149W        W36996   6.682  13.401   2.832  0.1612  0.0329  0.0535
20150W        W36997  16.572   5.498  13.129 -0.0886  0.0903 -0.1139
20151W        W36998   6.539   2.907   6.227 -0.2328 -0.1636 -0.2626
20152W        W36999   0.572   3.812   1.740 -0.3733 -0.0298 -0.0538
20153W        W37000   4.643   9.411  15.224 -0.0448 -0.1334  0.0395
20154W        W37001  14.711   7.040   0.850 -0.1368  0.2051  0.0085
20155W        W37002  12.906   0.842   3.442 -0.0707 -0.1983  0.1758
20156W        W37003   4.896  12.028  12.966 -0.2194  0.2190 -0.1161
20157W        W37004  12.906   3.333   4.179  0.0982 -0.0001 -0.1518
20158W        W37005  10.155   6.867   3.766  0.1252 -0.2319  0.0886
20159W        W37006  14.797   7.423  14.101  0.1701  0.1508  0.0316
20160W        W37007   8.582  16.116   0.194 -0.0842  0.1790 -0.1060
20161W        W37008  10.413   0.811  15.953  0.0341 -0.0648  0.0500
20162W        W37009   9.625   5.592  14.597 -0.1155 -0.2490  0.1781
20163W        W37010  10.838   1.433   3.627 -0.3462  0.0814  0.1037
20164W        W37011   7.443   0.416   5.135 -0.0543  0.1574  0.0758
20165W        W37012   0.450   9.503  14.322  0.2983 -0.0083  0.0959
20166W        W37013   5.840   1.949  15.706  0.4158 -0.1327  0.0624
20167W        W37014  11.847   4.340   4.433  0.1671  0.0911 -0.0881
20168W        W37015   5.968   3.904  12.401  0.1865 -0.1621 -0.3577
20169W        W37016   2.479  17.240   5.213  0.0004 -0.1380 -0.2747
20170W        W37017  11.582  15.090  12.629 -0.0186 -0.1085 -0.2424
20171W        W37018  15.881   8.265   0.080  0.2681  0.0124 -0.0852
20172W        W37019   1.399  11.722  11.701 -0.0129 -0.2073 -0.0313
20173W        W37020  12.771  14.272   5.087  0.0973 -0.0250 -0.0224
20174W        W37021   6.105  16.796  14.463  0.2702  0.1066  0.1470
20175W        W37022  18.034  14.703   5.131 -0.2837 -0.0637 -0.2109
20176W        W37023   3.136   1.054   3.316 -0.1769  0.3215  0.0785
20177W        W37024   5.645  14.045  15.579  0.2899  0.1244 -0.0299
20178W        W37025  10.948   6.124   4.510 -0.0526  0.0222 -0.0572
20179W        W37026   9.899   9.450   0.743  0.1131 -0.0328  0.2908
20180W        W37027  14.453   4.587  15.297 -0.3361  0.2500 -0.2932
20181W        W37028  15.082  16.502  13.514 -0.1309  0.0749 -0.0209
20182W        W37029   3.377  13.062  15.784  0.3206  0.0415 -0.0073
20183W        W37030  16.550  10.016   3.797 -0.0055  0.1432 -0.3737
20184W        W37031   6.740  13.080   4.582 -0.0593 -0.1431  0.3245
20185W        W37032  15.874   3.618   0.357 -0.1322 -0.1805 -0.1119
20186W        W37033  15.946  14.216   3.668 -0.2106 -0.0587 -0.4678
20187W        W37034  13.568  11.981   0.890  0.1562  0.0550 -0.0032
20188W        W37035   9.594   5.646   0.045 -0.0588 -0.0115 -0.0145
20189W        W37036  12.569   2.004   3.809 -0.0321 -0.1227  0.2527
20190W        W37037   4.021   4.304   1.396 -0.3291 -0.1283 -0.0772
20191W        W37038  17.730   7.867   4.722  0.0513  0.1944 -0.0604
20192W        W37039   3.815  15.824   1.129 -0.1608  0.1491 -0.0223
20193W        W37040   6.423   9.703   4.550 -0.1993 -0.4116 -0.1882
20194W        W37041  10.052   7.520   2.009  0.1089  0.0618  0.0634
20195W        W37042   9.009  13.830  15.565  0.0552  0.1551  0.1132
20196W        W37043   9.822   8.322  16.033 -0.5275  0.1008 -0.2083
20197W        W37044   2.675  15.296   1.528 -0.3831 -0.2384 -0.1936
20198W        W37045   3.969  16.248  15.303 -0.3815  0.0191  0.1369
20199W        W37046  17.625  11.229  13.986 -0.1497 -0.1181 -0.4666
20200W        W37047  11.968   8.786  13.269  0.0806  0.0959 -0.3988
20201W        W37048  12.377  14.898  12.482 -0.2106 -0.0217  0.1388
20202W        W37049   7.576   7.192  14.762 -0.1459  0.0577 -0.2851
20203W        W37050   3.882  11.262  11.817  0.0283 -0.1396 -0.1328
20204W        W37051   6.749   0.973   3.349 -0.1578  0.0559 -0.1390
20205W        W37052  10.288   3.566  13.328  0.0998  0.0755 -0.2040
20206W        W37053   2.634  11.089  12.961 -0.2652  0.1224 -0.1997
20207W        W37054  10.099   8.170  13.293  0.2308 -0.0446 -0.0708
20208W        W37055   7.929   7.521  12.838 -0.1949 -0.0918 -0.2944
20209W        W37056  15.071  15.241  13.992  0.0513  0.1114 -0.2067
20210W        W37057   6.361   1.479   5.345 -0.0373  0.2900 -0.0964
20211W        W37058  10.803   4.401  11.176  0.1703  0.0379 -0.0828
20212W        W37059  11.588   7.367   4.663 -0.1777 -0.0117 -0.3475
20213W        W37060   2.634  12.968  12.165 -0.2987  0.0179  0.0786
20214W        W37061  15.121  14.032  15.804 -0.0981  0.1355  0.0245
20215W        W37062   7.494  17.094   1.190 -0.2511 -0.2544 -0.0856
20216W        W37063  12.562   2.817   0.470  0.0981  0.2334 -0.1930
20217W        W37064   9.716  18.321   4.128 -0.0633 -0.2591  0.1219
20218W        W37065   5.418   7.186   4.542  0.0733  0.0744  0.3047
20219W        W37066   2.157  13.752   4.451 -0.0210 -0.0677 -0.2758
20220W        W37067  12.677  16.693  12.067  0.0633  0.2933  0.3372
20221W        W37068  12.170   7.648   0.444 -0.1529 -0.0642  0.1997
20222W        W37069   8.421   2.776  14.169 -0.1763  0.0533  0.2761
20223W        W37070   1.940   4.247   1.727  0.2292  0.1223  0.1786
20224W        W37071   4.566  12.553  12.173  0.1038  0.0865 -0.3076
20225W        W37072   7.168   5.155   0.772 -0.1745  0.1767  0.0906
20226W        W37073  17.898   3.469  11.227  0.1931 -0.0264 -0.0550
20227W        W37074   1.347  14.106   1.747 -0.0718  0.1610  0.2965
20228W        W37075   5.945   5.773   4.031 -0.0798  0.0460 -0.1032
20229W        W37076  18.280   4.899  11.691 -0.1576 -0.0926  0.2772
20230W        W37077   1.560   0.881   1.989 -0.0222 -0.0406 -0.2259
20231W        W37078   0.676   7.485   2.074  0.2665 -0.0704 -0.3806
20232W        W37079   2.235   2.621   3.720 -0.2041 -0.1066  0.1874
20233W        W37080  11.966   8.769   5.623 -0.0417  0.1371 -0.1961
20234W        W37081   5.207  14.769   3.845 -0.4972 -0.2084 -0.2496
20235W        W37082  15.333   4.774  10.754  0.2557 -0.1664 -0.0078
20236W        W37083   7.022   0.238   4.986  0.1247 -0.0979 -0.0278
20237W        W37084  14.273  18.160   0.688 -0.2840 -0.2057  0.1120
20238W        W37085  10.619   2.414  12.534 -0.0869 -0.0825  0.0958
20239W        W37086  13.852   0.813   2.630 -0.1906  0.0705  0.3190
20240W        W37087  11.415  11.031  13.141 -0.0113 -0.0532  0.2158
20241W        W37088   0.748   0.512   0.500 -0.0563 -0.0069 -0.0682
20242W        W37089   3.730  18.142  13.231 -0.2157  0.1260 -0.0901
20243W        W37090  10.513   9.050   3.412  0.0876 -0.0810  0.1598
20244W        W37091   7.210   9.338  15.042  0.1367  0.1876 -0.0549
20245W        W37092   4.897   3.340   3.838 -0.3259  0.0707  0.0526
20246W        W37093  12.574  15.452   1.970 -0.0913  0.0156  0.0259
20247W        W37094   3.090  17.972  15.210  0.0087  0.2096  0.0065
20248W        W37095  18.286   9.200  15.808 -0.1592  0.1590  0.0163
20249W        W37096   5.401  15.591  14.184  0.0634  0.2174  0.1685
20250W        W37097   4.405  10.795   2.502 -0.1310 -0.0089 -0.1191
20251W        W37098   7.246   4.988  13.292  0.1396 -0.1998 -0.1810
20252W        W37099  14.322  16.670  11.254  0.0157  0.0592 -0.1078
20253W        W37100   7.313  11.631   0.046 -0.0271 -0.0000  0.1812
20254W        W37101   6.029  10.155   0.662 -0.1161  0.1613 -0.0892
20255W        W37102  11.571   6.253  14.352  0.0396 -0.1948  0.0174
20256W        W37103  17.938  13.369   6.339  0.0078  0.1763  0.1639
20257W        W37104  15.170   4.560  11.184 -0.1053 -0.4280  0.0496
20258W        W37105  15.191  10.264   0.345 -0.0854  0.2320 -0.2933
20259W        W37106   2.342   9.412  12.936 -0.0283  0.1027  0.0154
20260W        W37107   4.920   9.757  15.391  0.1929 -0.2852  0.0142
20261W        W37108  14.527   4.389  13.123 -0.1739  0.1055  0.0148
20262W        W37109  14.917  14.296   2.713 -0.0056 -0.2619 -0.0507
20263W        W37110  15.697   0.771   0.407  0.0843 -0.0838 -0.0257
20264W        W37111  14.244  17.450  14.333  0.0832 -0.1171  0.0756
20265W        W37112   2.654  13.999   0.762  0.1334  0.0317  0.2822
20266W        W37113   7.421   3.972   5.068  0.1277  0.3100  0.0917
20267W        W37114  15.989   9.748   5.060 -0.0394  0.0991 -0.0994
20268W        W37115  15.544   1.272   0.342  0.0414  0.2256 -0.1966
20269W        W37116   4.795   7.348  13.045  0.0156 -0.1066  0.2600
20270W        W37117   4.265  11.460  14.374  0.1669 -0.1507  0.2413
20271W        W37118  15.146   3.906  15.173 -0.0088  0.2331 -0.0739
20272W        W37119   1.318   7.879  14.861 -0.1886 -0.0309  0.0167
20273W        W37120   7.069  17.364   1.147 -0.0006  0.0238  0.2181
20274W        W37121  12.454  15.952  16.162 -0.0261 -0.0440  0.0471
20275W        W37122  12.698  10.476  13.086  0.0676 -0.1028  0.3706
20276W        W37123  14.702   1.757  13.455  0.1572  0.0796  0.0621
20277W        W37124   3.076   9.857   0.304 -0.1491  0.0495  0.3940
20278W        W37125   4.419   8.253   5.853  0.1319  0.3083 -0.0614
20279W        W37126  12.880   7.701   2.423  0.0953 -0.2395 -0.1568
20280W        W37127  12.431   3.264   4.208  0.0763  0.1130  0.1922
20281W        W37128   5.840   9.815  10.747 -0.1528 -0.0561  0.3005
20282W        W37129   9.069   0.985   4.914  0.0330  0.1506  0.0399
20283W        W37130  12.842  13.210  11.800  0.1259  0.2853  0.0821
20284W        W37131  11.581   5.509   2.384  0.0535  0.0888  0.4348
20285W        W37132  17.714  13.737  15.842  0.0436 -0.0295  0.1064
20286W        W37133   9.400  12.620  12.439  0.4688  0.1919 -0.1512
20287W        W37134  16.971  11.297   1.107 -0.0144 -0.2075  0.0282
20288W        W37135  13.501   5.835   3.774  0.0529 -0.0118 -0.1509
20289W        W37136   1.157  16.442   5.207 -0.2546 -0.2212 -0.0138
20290W        W37137   9.351  17.265   4.334  0.1219  0.0431 -0.2004
20291W        W37138  14.982   3.836  15.705 -0.0515 -0.1334 -0.2470
20292W        W37139  10.151  17.670  12.922 -0.0174  0.0506  0.3256
20293W        W37140   2.929  14.217   3.843  0.1733 -0.2568  0.0002
20294W        W37141  17.780   2.342   5.484 -0.0700 -0.0497  0.0792
20295W        W37142  11.448   6.573  12.517  0.3644  0.1008  0.1479
20296W        W37143  17.275  11.045  14.646  0.1645 -0.0268  0.0216
20297W        W37144  16.371  13.547  11.977 -0.0528 -0.0167 -0.2161
20298W        W37145   5.979  16.017  12.391 -0.2605  0.3163 -0.2411
20299W        W37146   2.756   6.799   3.625 -0.1454 -0.0695  0.0393
20300W        W37147   6.766  17.310  11.508  0.3187  0.2367  0.1669
20301W        W37148   8.941   7.607   5.053  0.1421  0.4126 -0.1810
20302W        W37149  12.807   8.520   2.131  0.0853 -0.3302  0.1221
20303W        W37150  11.898   1.621  11.854 -0.0346 -0.2549 -0.2413
20304W        W37151  18.084  18.024   2.757 -0.0511  0.0260 -0.0912
20305W        W37152  10.270   4.660   1.846 -0.2065 -0.0675  0.0376
20306W        W37153   3.246   6.251   0.665 -0.0219 -0.2236 -0.3189
20307W        W37154  15.575  15.928   3.947  0.3051  0.3221 -0.1730
20308W        W37155  12.623  13.800  15.893 -0.2661  0.2818 -0.1450
20309W        W37156  13.927   4.041  14.951 -0.1361 -0.1182 -0.1082
20310W        W37157  17.779   2.004   2.408 -0.1227 -0.1065  0.1995
20311W        W37158   4.100   9.798   4.744  0.2167 -0.1342 -0.1758
20312W        W37159   0.527   8.796   3.198 -0.0709 -0.2942  0.2127
20313W        W37160   5.575   0.006  12.558 -0.0918 -0.0243 -0.2012
20314W        W37161  18.121   9.093  13.477  0.1316  0.4469  0.1935
20315W        W37162  15.879  17.551  15.305  0.0342  0.0471  0.2295
20316W        W37163  14.921  12.994  13.591 -0.1877  0.1175  0.2962
20317W        W37164   8.690  12.106  12.862  0.0705 -0.1666 -0.0142
20318W        W37165   6.655   5.134   9.996 -0.0137  0.2736  0.1491
20319W        W37166   9.744   2.560  11.988  0.1110  0.0727 -0.1328
20320W        W37167  11.647  14.559  12.035 -0.4021 -0.0695  0.1429
20321W        W37168   1.388   3.114   4.571  0.0093 -0.2429 -0.0013
20322W        W37169  11.464  10.157  12.583  0.0007  0.1002 -0.0756
20323W        W37170   7.301   4.636  14.023  0.3256  0.0129  0.0680
20324W        W37171   2.019   1.621   1.762  0.1086 -0.0442  0.2444
20325W        W37172   7.448  17.643  10.936 -0.2654 -0.2141  0.1402
20326W        W37173  16.139   0.093  12.172  0.3063 -0.6709  0.0951
20327W        W37174  11.886   4.177  12.857  0.2279 -0.1538 -0.0866
20328W        W37175   1.730  17.723   1.682 -0.0639  0.1683 -0.1026
20329W        W37176   3.678  17.971   0.272  0.0228  0.1431 -0.4952
20330W        W37177  14.429   4.356   1.670 -0.2288  0.1293 -0.1689
20331W        W37178  14.283   3.524   1.002 -0.0054 -0.5233  0.1226
20332W        W37179   8.989   4.868  15.681  0.0983  0.2853  0.2041
20333W        W37180  18.236   9.310   3.527 -0.0438  0.0155  0.0682
20334W        W37181   5.841  17.249  13.396 -0.3394 -0.0059  0.0430
20335W        W37182   0.600   2.789  14.090  0.3341  0.0731  0.0205
20336W        W37183  17.032   3.190  15.556  0.1576 -0.2143  0.2201
20337W        W37184  14.033   5.966   2.455 -0.0479  0.2966 -0.0114
20338W        W37185   4.932  15.404  15.304 -0.2071 -0.2988  0.0276
20339W        W37186  16.629   5.744  15.387  0.2006  0.1246  0.0667
20340W        W37187  11.494  13.404  12.648 -0.2480 -0.1447 -0.0134
20341W        W37188   6.087  10.087   5.681  0.0637  0.1005  0.0996
20342W        W37189  17.239   6.369  12.200  0.0292 -0.0485 -0.1127
20343W        W37190  13.419  16.490  12.391  0.5234 -0.2566 -0.1043
20344W        W37191   6.242  11.160   4.774  0.2741 -0.0614  0.1371
20345W        W37192   8.708  17.381  15.858  0.3177  0.0892  0.0801
20346W        W37193  16.233   4.119   3.139 -0.0909  0.0069  0.3528
20347W        W37194  13.904   6.508  16.043  0.0772 -0.2498 -0.0890
20348W        W37195  14.212  11.722  15.014 -0.2535  0.0772  0.1421
20349W        W37196   6.521  14.514   3.047 -0.0022  0.1918 -0.1154
20350W        W37197  10.289   5.298   3.647  0.0858  0.1157 -0.0579
20351W        W37198   1.826   3.142  15.248  0.0252  0.0053  0.0947
20352W        W37199   4.061  15.112   4.523  0.3234  0.0404  0.3287
20353W        W37200   3.387   3.803  13.612  0.1213  0.0496 -0.2058
20354W        W37201  16.623  18.071   4.044  0.1334 -0.0757 -0.0335
20355W        W37202  13.801   1.542  15.241  0.1652  0.0015  0.2006
20356W        W37203   2.994  12.842  13.350 -0.2308  0.0481 -0.0108
20357W        W37204   3.292   1.117  11.900  0.0386  0.1100 -0.2102
20358W        W37205  15.301   1.177   4.010  0.0721 -0.1984  0.1315
20359W        W37206   1.686   0.928   4.613  0.2131 -0.1596  0.0868
20360W        W37207   0.339   1.369   0.219 -0.2155  0.2332  0.2555
20361W        W37208  16.711   4.637  12.127  0.0614  0.2208  0.1489
20362W        W37209   7.263  10.120  15.998 -0.1514  0.0598 -0.0640
20363W        W37210   7.508   9.934  14.208  0.1804  0.2763 -0.1121
20364W        W37211   5.728   1.296   4.077  0.1856  0.0113 -0.1056
20365W        W37212   0.741   1.238  12.563  0.1352  0.1188 -0.0679
20366W        W37213   8.128   5.497   5.059  0.2175 -0.2344  0.1927
20367W        W37214   0.311   9.572  15.736 -0.1323  0.4265 -0.2123
20368W        W37215  16.793  12.774  11.901  0.1432  0.3401 -0.5536
20369W        W37216  14.865   6.399  11.502 -0.1714  0.2680 -0.4495
20370W        W37217  15.048   8.358   5.410 -0.0747  0.0226 -0.1505
20371W        W37218   2.472  15.019   5.281  0.1286  0.1621  0.0302
20372W        W37219   3.077   3.825  15.295 -0.5055  0.2031  0.0126
20373W        W37220   3.148  16.226  11.668  0.2663 -0.2644  0.1050
20374W        W37221  12.722  14.260  13.173 -0.2090  0.0399 -0.0047
20375W        W37222  16.312  12.161  13.046  0.3252 -0.0001  0.0109
20376W        W37223   8.483  17.122  13.120  0.3658  0.0198 -0.0375
20377W        W37224   2.073  13.693   3.912 -0.1756 -0.0447  0.1319
20378W        W37225   2.637   4.072   0.920 -0.2558 -0.1269 -0.2441
20379W        W37226   5.356  17.083   3.250  0.1740  0.1316  0.1013
20380W        W37227   2.383   4.878  14.933  0.0334 -0.0622  0.1008
20381W        W37228  13.144  11.748   3.544 -0.1287 -0.2078 -0.2930
20382W        W37229  12.141   7.803  14.433 -0.0746 -0.0020  0.1371
20383W        W37230  12.023   4.672   2.769 -0.2080  0.1897 -0.0593
20384W        W37231  17.984   4.883  15.556  0.2966 -0.3538  0.0067
20385W        W37232  17.931  13.931   1.784 -0.0236 -0.0808 -0.1018
20386W        W37233  14.752   2.621   4.942  0.0024  0.0865  0.1156
20387W        W37234   1.902   5.696   0.308  0.0973  0.0685  0.0496
20388W        W37235  14.955  13.862  14.912  0.5634 -0.0451 -0.1197
20389W        W37236   8.665  11.093   4.951 -0.2008 -0.1559  0.0599
20390W        W37237   6.818  11.469   3.959  0.2627  0.0047 -0.2971
20391W        W37238  11.437   8.763   2.933 -0.0692  0.0814 -0.2637
20392W        W37239  13.705   3.697   4.847 -0.0695  0.0446 -0.1116
20393W        W37240   0.384  10.434   0.969 -0.0286  0.0148  0.3789
20394W        W37241  14.977  10.114   2.642  0.2527 -0.1758  0.1526
20395W        W37242  10.711  11.615   2.582 -0.4733  0.1242 -0.4077
20396W        W37243   8.018   6.905   0.728  0.1554  0.0672  0.2656
20397W        W37244  12.612  18.050   5.373  0.1752  0.0904  0.0281
20398W        W37245   9.043   4.973   1.693 -0.2698  0.0923 -0.1908
20399W        W37246  17.651  14.102  16.181  0.2496  0.2177 -0.0584
20400W        W37247   7.201   9.539   1.543 -0.1270 -0.0368  0.0229
20401W        W37248  10.308   6.316   1.940 -0.1082  0.0747 -0.1161
20402W        W37249  11.404  10.663   3.959 -0.1020 -0.2849 -0.1571
20403W        W37250  14.638   4.137   0.393  0.1748  0.1121 -0.1956
20404W        W37251   0.739   3.484  12.655  0.1519  0.0101 -0.0293
20405W        W37252   1.594   3.256   1.402 -0.2451  0.2989  0.1680
20406W        W37253  12.301  14.921   1.355  0.1761 -0.2512  0.2742
20407W        W37254  10.750  12.174   0.269 -0.2222 -0.1047 -0.1299
20408W        W37255   9.509   0.892  11.252  0.2003 -0.0399 -0.0693
20409W        W37256   3.853   4.916   0.731 -0.0643 -0.1183  0.0557
20410W        W37257  16.324  13.039  11.171  0.4085 -0.2351 -0.0925
20411W        W37258   2.814   7.080   0.330 -0.0116 -0.1576 -0.0820
20412W        W37259   2.901   0.065  12.553  0.0232  0.0444  0.0394
20413W        W37260   7.778   5.194  13.070 -0.2476  0.0789  0.0385
20414W        W37261  13.055  17.148   1.962 -0.1613  0.2785 -0.1435
20415W        W37262  11.721   0.899   1.418  0.0079 -0.3123 -0.1520
20416W        W37263  15.863  10.387  14.707 -0.2283 -0.0893  0.0933
20417W        W37264   8.504   1.012  14.896  0.0567  0.0853 -0.0650
20418W        W37265  16.902   9.665  13.106 -0.3222  0.0300 -0.0364
20419W        W37266   8.742   0.329  11.381 -0.2917 -0.0905  0.2093
20420W        W37267  10.162   9.195   3.717 -0.0143  0.0465 -0.2285
20421W        W37268   3.904  10.795   0.368 -0.0756 -0.4026 -0.1610
20422W        W37269  10.022   4.498   1.418 -0.1683  0.1863 -0.0439
20423W        W37270   1.222   2.148   3.435 -0.2158 -0.1290 -0.0285
20424W        W37271  11.684  10.867   3.483 -0.1628  0.0196  0.2358
20425W        W37272   7.934  10.902   0.186 -0.1125  0.0255  0.1713
20426W        W37273   1.062   3.256   2.699 -0.3260  0.1424  0.3379
20427W        W37274  14.973  10.269   1.976 -0.3815 -0.2048  0.4606
20428W        W37275  14.532  16.389   3.640 -0.0608 -0.1258 -0.3459
20429W        W37276   4.559  17.362  14.132 -0.0603  0.0025 -0.1377
20430W        W37277   5.883   7.995  11.163 -0.0102  0.1693 -0.0184
20431W        W37278  10.488  15.195   4.283 -0.0822 -0.3808 -0.0558
20432W        W37279  15.447  16.909   0.171 -0.1319 -0.3987 -0.2208
20433W        W37280   3.662  16.823   0.467 -0.0996  0.4334  0.0108
20434W        W37281  13.663  15.587   5.389 -0.0820 -0.1879 -0.0372
20435W        W37282   2.813  11.953  16.124 -0.0251 -0.0187 -0.1295
20436W        W37283   7.579   8.081   0.900 -0.1915 -0.3426  0.1763
20437W        W37284   6.917   9.551  12.040 -0.2239 -0.1895 -0.1749
20438W        W37285   2.176   1.633  11.493 -0.0256  0.0769 -0.0890
20439W        W37286   5.128   7.299  11.572 -0.3697 -0.2138  0.2853
20440W        W37287  14.681   6.288  14.203 -0.1093  0.3622 -0.0555
20441W        W37288   0.387   8.330  12.029 -0.1770 -0.1169  0.0039
20442W        W37289   4.811   8.219   4.636 -0.1505 -0.4215 -0.1514
20443W        W37290   7.688   6.078  11.978  0.3114  0.1028 -0.0312
20444W        W37291   3.833   2.762  15.088  0.0486 -0.0956 -0.0376
20445W        W37292   7.864  15.398  12.409 -0.1117  0.2173  0.0783
20446W        W37293  15.348   8.681   4.915  0.0157 -0.0713 -0.0627
20447W        W37294   7.273   7.932   0.040 -0.0802 -0.1599  0.1555
20448W        W37295  15.824   4.154  15.832 -0.1049 -0.2044  0.0596
20449W        W37296   9.316   2.361  12.446 -0.0883 -0.2121  0.0060
20450W        W37297   5.232   0.517   2.801  0.0010 -0.0258  0.0372
20451W        W37298   1.160   9.211   0.760 -0.2928 -0.0046  0.1797
20452W        W37299   6.964   1.120   3.815 -0.0218  0.1168  0.2661
20453W        W37300  14.352   3.975  11.398  0.1725  0.1276 -0.0467
20454W        W37301  13.103  13.096  13.638  0.0556  0.1647 -0.1421
20455W        W37302  11.704   0.809  10.573 -0.1056  0.3617 -0.1766
20456W        W37303  11.513   6.365   0.501 -0.3738 -0.1032  0.0145
20457W        W37304  14.939  16.074  15.319  0.0376 -0.1932 -0.2934
20458W        W37305   0.017   3.576   9.777  0.2401  0.2918 -0.1908
20459W        W37306   5.661   8.903   6.503 -0.1439 -0.0784 -0.1611
20460W        W37307   0.217   2.056   0.902 -0.1471 -0.3368  0.0132
20461W        W37308   8.606   4.148   2.797 -0.1411 -0.0486 -0.0230
20462W        W37309  16.973  13.234   5.273 -0.0108 -0.2849  0.1708
20463W        W37310   8.260  10.915   0.551 -0.1286 -0.0120 -0.0467
20464W        W37311  16.519   9.592   2.200 -0.1038  0.1758  0.3908
20465W        W37312   6.813   0.491   6.008 -0.0336  0.2286  0.3827
20466W        W37313   7.166   7.183   2.326 -0.0073  0.0685  0.2015
20467W        W37314   8.036   0.235   3.490 -0.2680 -0.2794 -0.0156
20468W        W37315   2.037   0.908  11.373 -0.0642 -0.0221 -0.0211
20469W        W37316  15.075  16.780   0.968  0.3195  0.2138 -0.0403
20470W        W37317   4.614  12.156   2.220 -0.0478  0.1034  0.0503
20471W        W37318   8.404   9.411  12.039 -0.2198  0.2072 -0.0300
20472W        W37319  13.386  10.842  13.381  0.1281  0.1803 -0.1813
20473W        W37320  12.829   4.463   3.708 -0.0188 -0.2648 -0.1366
20474W        W37321   3.710   5.750  14.759  0.1683  0.0106 -0.1349
20475W        W37322  10.076   0.947   1.214  0.1491 -0.1058 -0.1249
20476W        W37323  12.761  12.670  14.259 -0.0498  0.1307 -0.1725
20477W        W37324   9.092   4.875   0.599  0.0390  0.3087 -0.0648
20478W        W37325  13.174  17.906   6.114 -0.0425 -0.0515  0.0857
20479W        W37326   8.428  15.876   5.166  0.1155 -0.0215  0.1005
20480W        W37327   4.350   5.522  14.754  0.0933 -0.3482  0.0485
20481W        W37328   8.710  11.179  11.635 -0.2925 -0.1158  0.1179
20482W        W37329   4.096  12.277  12.320 -0.0240 -0.1056 -0.0226
20483W        W37330   5.804  15.943  15.000 -0.2417  0.1644 -0.0750
20484W        W37331   9.806  15.814   5.285 -0.1455  0.4179 -0.1457
20485W        W37332   9.776  16.512   4.427 -0.0437 -0.0253  0.1113
20486W        W37333   3.957   6.179   0.406  0.0339  0.2206  0.0437
20487W        W37334   5.528  14.543  14.271 -0.1026  0.1000 -0.0316
20488W        W37335  12.311  14.949  14.928  0.0440  0.0227  0.0700
20489W        W37336  17.055  12.554  13.197 -0.0563 -0.1047  0.4237
20490W        W37337   6.938  15.347  12.510  0.0906 -0.0553  0.2386
20491W        W37338  11.574   3.298  13.708 -0.2835 -0.0138  0.4741
20492W        W37339   7.647   0.588  15.541  0.0876  0.0484  0.1113
20493W        W37340   3.527   1.453  13.747  0.1398 -0.1135  0.1836
20494W        W37341   3.410  11.074   0.944  0.1753  0.3139  0.0036
20495W        W37342  13.978  13.361  11.047  0.1654 -0.0615  0.0565
20496W        W37343   2.235   1.075   2.576 -0.1355  0.2232 -0.0566
20497W        W37344   5.321  16.720   1.990 -0.2725 -0.0579  0.0403
20498W        W37345  18.273   0.377   5.600  0.3657 -0.1899 -0.1237
20499W        W37346   8.799   5.880  13.274 -0.0778 -0.0981  0.1360
20500W        W37347   9.608   6.692  15.334  0.1953  0.0518 -0.2862
20501W        W37348  11.668   3.863  15.960  0.0466  0.2581  0.1287
20502W        W37349   5.795  13.469   0.051 -0.0822 -0.3287  0.1407
20503W        W37350  11.784  14.532   3.687 -0.2401 -0.3766  0.0880
20504W        W37351   1.611  16.304   2.031  0.1215 -0.4713  0.0380
20505W        W37352  12.395  13.988  14.427  0.0973  0.4096  0.0880
20506W        W37353   3.625   0.753  12.711 -0.0207 -0.1474  0.1013
20507W        W37354  17.309   9.808  13.435  0.0473  0.1408  0.0256
20508W        W37355  15.983   2.491  13.603  0.1199  0.1122  0.0434
20509W        W37356  11.315   2.414  13.652  0.1835 -0.1279 -0.0337
20510W        W37357   0.277   7.842   4.902  0.0681 -0.2436 -0.1865
20511W        W37358  14.873   6.237   0.475 -0.0953  0.0241 -0.2807
20512W        W37359   1.149   9.632   0.240 -0.2471  0.2613  0.3166
20513W        W37360   2.637   8.630   1.381 -0.0934 -0.0332 -0.1421
20514W        W37361   7.087   2.077   1.373 -0.1908  0.1255  0.0248
20515W        W37362  16.730  14.368  15.163  0.1225 -0.2152 -0.0280
20516W        W37363  16.860  17.398   3.915 -0.0172 -0.0016  0.0160
20517W        W37364   9.633  15.838   2.085 -0.0646  0.0276  0.2304
20518W        W37365   7.012  14.064   0.648 -0.1968  0.3222  0.1353
20519W        W37366  11.320   7.824  12.860 -0.0030  0.0385  0.0794
20520W        W37367   7.419  17.143  13.089  0.0225 -0.0959 -0.1913
20521W        W37368   8.768  15.030  14.232 -0.0904  0.1766 -0.1826
20522W        W37369   7.119  12.490  12.445 -0.1816 -0.1111  0.0353
20523W        W37370   4.111   1.316   2.264 -0.2684 -0.0838  0.0186
20524W        W37371   9.860   9.302   2.032  0.1758 -0.0315 -0.0112
20525W        W37372   7.673  13.887  15.861 -0.0484 -0.3271 -0.0406
20526W        W37373   0.546  14.354   1.954  0.1373 -0.0190  0.0844
20527W        W37374   0.159   0.612   1.738 -0.0132  0.3335  0.0081
20528W        W37375   3.014  15.824  15.947  0.0655  0.0759  0.2477
20529W        W37376  10.210  13.536   2.523 -0.0646  0.2016 -0.1725
20530W        W37377   9.069   7.427   3.051  0.3267  0.3524 -0.2833
20531W        W37378   9.976   4.385   3.638 -0.2001 -0.3382  0.1930
20532W        W37379   0.208   0.998  16.077 -0.0255  0.1725  0.3563
20533W        W37380   4.378   5.293   1.594 -0.3236  0.1402  0.1608
20534W        W37381  10.597   9.685   2.087  0.1730  0.1399  0.2023
20535W        W37382  16.649   4.174   1.792 -0.2593 -0.0915 -0.2355
20536W        W37383  11.853   9.737   2.011 -0.2023  0.0035 -0.3418
20537W        W37384  13.934   6.339   4.468 -0.0066 -0.0083  0.2054
20538W        W37385  16.901  17.540   4.356  0.1217  0.0261 -0.0582
20539W        W37386   1.570   7.026  12.020 -0.3852 -0.1526  0.0402
20540W        W37387  12.189  16.636   1.272 -0.2265 -0.0720  0.0399
20541W        W37388   3.203  15.056   3.150  0.2174  0.1277  0.1325
20542W        W37389  15.227  17.673   4.188  0.0469 -0.0191 -0.2288
20543W        W37390  16.335  15.777   2.190  0.2294  0.0616 -0.0960
20544W        W37391   1.601   7.421  12.968  0.3780  0.0613  0.2098
20545W        W37392  13.617   9.706   4.438  0.0965 -0.2881  0.0604
20546W        W37393  12.314   1.447   1.041  0.2953 -0.0149  0.2780
20547W        W37394  13.415  12.038   2.260  0.0139  0.0393 -0.1576
20548W        W37395   9.159   2.735  12.112 -0.0367 -0.2601  0.1238
20549W        W37396   6.584   0.107   0.604  0.0315  0.1555 -0.3490
20550W        W37397   8.369   5.624  13.559  0.2568 -0.0751 -0.3361
20551W        W37398   7.383   7.589   4.709  0.1426  0.0003  0.2252
20552W        W37399   3.148  10.800  12.319  0.0029 -0.0009 -0.0672
20553W        W37400   5.228  16.941  12.607 -0.0142  0.0172 -0.2429
20554W        W37401  10.450  16.572  14.392 -0.0693  0.0129  0.1200
20555W        W37402  16.540  17.118   1.847 -0.1829 -0.2354  0.1066
20556W        W37403  14.926   9.028  13.030 -0.2761  0.0579 -0.1068
20557W        W37404  13.921   0.602   1.347  0.1176  0.0708  0.0076
20558W        W37405   2.589   6.767   4.116 -0.1252  0.0338  0.0125
20559W        W37406   1.310  17.455   4.699  0.0777  0.2203 -0.0218
20560W        W37407  11.047   0.606  14.003  0.1684  0.0849  0.1981
20561W        W37408   9.282   4.773   3.365  0.0996  0.1734 -0.1382
20562W        W37409   3.505  11.540  14.791 -0.1479  0.1428 -0.2670
20563W        W37410   2.639   2.905  12.021 -0.0000 -0.2047  0.0589
20564W        W37411   8.181   8.133  14.085 -0.1248  0.0758 -0.0984
20565W        W37412   1.804   4.716  14.101 -0.0022  0.2135  0.0146
20566W        W37413  14.373   6.121   2.111 -0.1098 -0.1420  0.1736
20567W        W37414  16.425  10.076   5.713 -0.3446  0.3644  0.1223
20568W        W37415  12.979  16.397  14.346 -0.1262 -0.1071  0.2278
20569W        W37416  15.901   4.044  13.303  0.0290 -0.0261 -0.2388
20570W        W37417   1.227   1.902  11.656  0.2674  0.0877  0.1790
20571W        W37418   7.985   9.060   5.532 -0.3087 -0.0412  0.0801
20572W        W37419   1.360   3.431   2.073  0.2996 -0.2224 -0.0524
20573W        W37420   8.242   4.646   2.738  0.1245 -0.0290  0.0677
20574W        W37421  16.420  12.991   2.695 -0.1160 -0.0446  0.1215
20575W        W37422  14.511   7.366   1.475  0.1615 -0.2060 -0.1143
20576W        W37423   1.679   3.400   0.892 -0.1561  0.3008  0.1541
20577W        W37424  12.017  13.021  15.680  0.2524 -0.1404  0.4131
20578W        W37425  15.626   6.632  14.271  0.0083  0.0878  0.0617
20579W        W37426   7.178   8.680  11.995  0.2653  0.1754  0.0772
20580W        W37427  10.913  12.144   1.271  0.0400 -0.0094 -0.0829
20581W        W37428   2.678  11.408   2.881 -0.4687 -0.0655  0.1479
20582W        W37429   3.552   8.834   5.608 -0.0622  0.1464  0.1830
20583W        W37430   8.520   5.185  11.537 -0.0090  0.0860 -0.1608
20584W        W37431   6.307  17.492   4.292  0.1441 -0.1401 -0.0973
20585W        W37432   8.844  11.897  11.398  0.3554 -0.0846 -0.1537
20586W        W37433   3.886   1.649   4.739  0.3890  0.0431 -0.0643
20587W        W37434   4.987   6.217   6.221  0.0843 -0.0320 -0.0609
20588W        W37435   5.835   0.399   1.921 -0.0912 -0.1060  0.2120
20589W        W37436  11.637  13.337   1.726  0.0363  0.3753 -0.4074
20590W        W37437   0.331  16.200   1.400 -0.0029 -0.0227  0.0931
20591W        W37438  17.351   7.473  15.509 -0.0865  0.0790 -0.0709
20592W        W37439  13.346  11.270   1.885  0.1433  0.1418 -0.0343
20593W        W37440  11.814   4.771   4.786  0.0045  0.2722  0.1796
20594W        W37441   9.232   1.645   0.374 -0.0591  0.1785  0.0559
20595W        W37442  15.860  12.754  11.561 -0.0628 -0.0086  0.2339
20596W        W37443   3.072  14.666   2.215 -0.1190 -0.2191  0.1528
20597W        W37444  14.062  10.528  11.477  0.1027  0.0879 -0.1538
20598W        W37445   3.059  11.297  13.192  0.1424  0.0491 -0.3271
20599W        W37446  13.114  12.540   2.278  0.1307 -0.2140  0.0082
20600W        W37447   7.493  12.740   5.054  0.2751  0.0006 -0.0531
20601W        W37448  17.646   2.628   0.072  0.0161 -0.0246 -0.2908
20602W        W37449  18.146  10.533   1.080 -0.1446  0.1209 -0.1382
20603W        W37450   5.888  16.442  15.225  0.0654  0.1044  0.0719
20604W        W37451  14.044  13.277   5.319 -0.1054  0.2787  0.2155
20605W        W37452   4.638   0.569  15.831 -0.2303  0.0515 -0.1086
20606W        W37453  17.666  11.488   5.523  0.1834  0.2507  0.1182
20607W        W37454   7.722   6.303  13.691 -0.0444 -0.0287  0.1688
20608W        W37455   1.934   6.894  12.422  0.2174  0.0450  0.1056
20609W        W37456   7.960  14.202  15.034 -0.0169  0.0914  0.3991
20610W        W37457  17.171   5.441   2.640 -0.0459 -0.0766  0.0871
20611W        W37458  14.917   6.199   3.578  0.0774 -0.1064 -0.0007
20612W        W37459  14.369   0.195   1.370  0.1968  0.0379 -0.1380
20613W        W37460   7.416   9.022   0.888 -0.0490 -0.3319 -0.0888
20614W        W37461   6.564   1.460   4.113 -0.1561  0.1940  0.1806
20615W        W37462  13.686   9.566   3.457  0.0627  0.1396 -0.4210
20616W        W37463   6.056   0.290  11.832 -0.1277  0.3133 -0.0202
20617W        W37464  15.843  13.737   3.683 -0.2372  0.0721  0.0543
20618W        W37465  18.185   0.734  12.136  0.1696 -0.3945  0.0167
20619W        W37466  13.868  13.671  13.890  0.0215  0.0471  0.3180
20620W        W37467  13.404   0.852   0.713 -0.0161  0.0864 -0.2014
20621W        W37468  15.702  10.751   2.818 -0.1606 -0.0738 -0.2066
20622W        W37469  11.928  11.199  15.709  0.0736 -0.2610 -0.1291
20623W        W37470   1.316  14.253   0.689 -0.1675 -0.1681  0.0623
20624W        W37471   4.237   3.470   1.216  0.0577 -0.1903  0.2612
20625W        W37472   8.856  13.736  15.107  0.3693  0.2191 -0.0398
20626W        W37473   0.134  13.030   2.686 -0.1495  0.0805  0.6434
20627W        W37474  13.351   3.142  13.951  0.1661  0.0730  0.3000
20628W        W37475  16.866   0.198   4.554  0.2537 -0.2364 -0.1092
20629W        W37476   5.980  12.329   4.760 -0.1219 -0.2732 -0.0967
20630W        W37477  15.606   0.280  14.461 -0.2753 -0.1889 -0.3080
20631W        W37478   6.412   2.461  11.977 -0.3408 -0.1219 -0.0390
20632W        W37479   0.305   6.444  14.191 -0.3929 -0.1533 -0.1046
20633W        W37480   8.818  16.084  12.863  0.0563 -0.0255 -0.1419
20634W        W37481   4.149   1.797   5.571  0.3411  0.2159  0.1811
20635W        W37482   2.511  11.288   5.113  0.0949 -0.1619 -0.2398
20636W        W37483  13.365   5.978  14.651  0.0882  0.1209  0.1048
20637W        W37484   2.567   1.351   4.884  0.1224 -0.0001  0.1574
20638W        W37485  12.053   5.980   1.730 -0.1167  0.2261  0.0318
20639W        W37486  14.562   4.423  14.285 -0.0074 -0.0781 -0.0196
20640W        W37487   6.260  11.361   0.632 -0.0121  0.1262 -0.1345
20641W        W37488   4.910  13.058   6.729  0.0157 -0.1548  0.2526
20642W        W37489   9.573   7.344   3.311 -0.2702  0.1991 -0.1514
20643W        W37490   4.817   0.629   0.107 -0.0175 -0.0826 -0.2273
20644W        W37491   8.471  13.826  13.379  0.2048  0.1070 -0.0494
20645W        W37492   2.971   4.421  13.228  0.3222  0.3756  0.1214
20646W        W37493  11.967   0.468  15.587  0.1505  0.5513  0.1194
20647W        W37494   8.366  13.124   4.846  0.0196 -0.1375  0.0783
20648W        W37495   7.447   9.297   2.885 -0.0382  0.0161  0.0431
20649W        W37496  15.211  10.033  12.959 -0.0623 -0.1015 -0.1792
20650W        W37497   3.676  17.989  14.176 -0.0188  0.1067 -0.0770
20651W        W37498  11.626   2.281   3.863  0.0271 -0.1081  0.0524
20652W        W37499   5.404  13.691  15.298  0.1663 -0.0465 -0.0729
20653W        W37500  15.932   5.487   2.402  0.0483 -0.4363 -0.3976
20654W        W37501  17.598   3.972  10.914  0.0142 -0.0150  0.3175
20655W        W37502  10.283  15.446  16.139  0.1055 -0.0707 -0.1091
20656W        W37503  15.812  16.203  12.413  0.0053  0.2581  0.1328
20657W        W37504   5.520  15.688  10.668  0.0804  0.0418 -0.1195
20658W        W37505   3.972   3.664  11.008  0.1246  0.1332  0.0262
20659W        W37506   7.041  10.492   0.005  0.2378  0.3302  0.0613
20660W        W37507   1.388   0.126   4.607  0.0140 -0.2364  0.1019
20661W        W37508  17.464   7.192   0.822 -0.0651  0.0973 -0.0549
20662W        W37509  11.777   6.880   1.011 -0.1866 -0.0330 -0.1903
20663W        W37510  16.136  12.518   1.787 -0.1166 -0.2749  0.0749
20664W        W37511   7.388  14.967  11.745 -0.1391 -0.0937 -0.0014
20665W        W37512   7.050  13.516   1.779 -0.1525  0.0545 -0.2403
20666W        W37513  12.365   1.890   4.906 -0.1279  0.2179  0.0336
20667W        W37514  11.325   3.321  12.434 -0.0034 -0.0127 -0.0081
20668W        W37515   8.391   1.885  14.193  0.0297  0.2114 -0.0030
20669W        W37516  12.380   2.370   0.837  0.3004  0.2580 -0.0090
20670W        W37517  17.181   2.455  11.579 -0.0528 -0.1226 -0.0462
20671W        W37518   6.527   2.757  12.781  0.0820 -0.0782 -0.2556
20672W        W37519   1.818  13.580   2.368  0.0344 -0.1013 -0.0151
20673W        W37520   6.482  11.236  12.248  0.0655 -0.2051  0.1043
20674W        W37521  12.532   1.880   5.377  0.3048 -0.1159  0.0671
20675W        W37522  11.871   7.090   4.392 -0.0239  0.1279  0.1759
20676W        W37523  10.890  16.197   4.834 -0.1621 -0.1779  0.2635
20677W        W37524  14.538   8.638  11.060 -0.0071  0.1213 -0.0379
20678W        W37525   1.028   6.615   3.760 -0.1782 -0.0257  0.2210
20679W        W37526  14.949   2.425   0.933  0.1853  0.0299 -0.1987
20680W        W37527  12.833   3.125  11.858 -0.1868 -0.0462  0.2064
20681W        W37528  10.673   9.980   4.000  0.0273  0.0289  0.1754
20682W        W37529  15.310   3.475  15.965  0.4348 -0.0952 -0.1886
20683W        W37530  11.575   9.984   1.231  0.0526  0.1029 -0.4209
20684W        W37531   4.898  18.248   4.954  0.0800  0.1085 -0.1487
20685W        W37532   2.648  14.284  13.655  0.0017  0.2290  0.0272
20686W        W37533  13.597   1.153   5.338  0.1305  0.1874  0.2953
20687W        W37534   1.750  12.505  14.460  0.1733  0.1644  0.3069
20688W        W37535  17.209   3.033  10.596 -0.2571 -0.1306  0.2637
20689W        W37536   0.134   5.109  12.064 -0.0236  0.0632  0.3429
20690W        W37537  16.628  12.583   2.266 -0.3795 -0.0874  0.2716
20691W        W37538  12.558  12.413   3.306 -0.1058  0.1225 -0.1228
20692W        W37539   8.108   6.360  12.803 -0.0389  0.1090  0.2137
20693W        W37540   4.705   2.942  15.141  0.2049 -0.0225  0.2141
20694W        W37541  13.578   8.248  11.914 -0.1125  0.4330 -0.2774
20695W        W37542   0.833   2.949  12.781 -0.4525 -0.0578  0.0322
20696W        W37543   4.913  17.629  12.191 -0.0280 -0.0377 -0.1688
20697W        W37544   3.188   3.345   0.301  0.0205 -0.2109  0.0211
20698W        W37545  18.302   5.024  15.973 -0.2221 -0.0853 -0.0466
20699W        W37546  14.632   9.826  15.924 -0.0707  0.2399  0.0487
20700W        W37547   0.284   4.243   4.683 -0.3324  0.0973 -0.2791
20701W        W37548   2.522  13.386   4.273  0.3015 -0.0185  0.0816
20702W        W37549   8.296   8.647   5.344 -0.1410 -0.2253  0.1675
20703W        W37550   4.025  10.764  13.218 -0.0560  0.0233  0.3735
20704W        W37551  18.048   6.743   3.472  0.0831 -0.2884  0.2415
20705W        W37552   2.351   3.000   2.596 -0.1012  0.0660  0.1486
20706W        W37553  11.007  17.118   0.892  0.1362 -0.0376  0.1490
20707W        W37554  17.355  13.781   2.752 -0.0320  0.2367  0.0622
20708W        W37555  10.804  15.442  10.703 -0.1272  0.0583 -0.3984
20709W        W37556   4.191  11.447   5.919 -0.0749  0.2185  0.0419
20710W        W37557   3.940   1.427   5.197 -0.6264 -0.0468 -0.0109
20711W        W37558   5.520   7.132  12.782 -0.1787  0.4642 -0.1127
20712W        W37559   3.855  17.036   1.328 -0.5356 -0.1525 -0.0553
20713W        W37560  10.187  15.617  13.106  0.2057 -0.0510 -0.0943
20714W        W37561   1.048   1.126  15.074 -0.0485  0.3872 -0.3004
20715W        W37562   2.142   3.935  12.790 -0.0668 -0.1458 -0.1235
20716W        W37563  16.852   6.842   3.467 -0.1955  0.1409  0.2619
20717W        W37564  10.810  12.557   1.706 -0.0040 -0.2079 -0.0571
20718W        W37565   9.577  14.727  12.786  0.3490 -0.2500 -0.2064
20719W        W37566   7.582  15.532  11.905  0.1162 -0.1405 -0.1018
20720W        W37567   7.461   8.844  15.003 -0.1816 -0.2094  0.0071
20721W        W37568   0.685  15.932   2.284  0.0842 -0.1730  0.2082
20722W        W37569   2.948  12.803  15.638 -0.1789 -0.1140 -0.1081
20723W        W37570   5.554  13.605  13.384  0.0778  0.1374 -0.2338
20724W        W37571   4.823   1.735  14.359  0.0679 -0.3364 -0.0255
20725W        W37572  10.238  13.601  13.782 -0.4846  0.1491  0.0501
20726W        W37573   8.894   4.909   0.025  0.1370 -0.0776  0.0994
20727W        W37574   2.189  17.992  12.767 -0.0459  0.1428 -0.2144
20728W        W37575   8.494   5.076   2.631  0.0704 -0.2118  0.0401
20729W        W37576   4.847  14.167   2.164  0.3099 -0.0787  0.0159
20730W        W37577   6.887  15.418  15.860 -0.1066  0.0096 -0.0085
20731W        W37578   1.750  13.713  11.384 -0.1740  0.0949 -0.0679
20732W        W37579   8.459   1.776   1.108 -0.0196 -0.0078 -0.0549
20733W        W37580   2.266   2.645  12.228  0.1017  0.0816 -0.3171
20734W        W37581  10.329   9.238   0.285 -0.2688 -0.0891  0.0081
20735W        W37582   3.257  18.154   2.393 -0.1808 -0.0469  0.0791
20736W        W37583   6.684   5.161  11.252  0.1451  0.0052 -0.1458
20737W        W37584   0.854   2.455  13.566  0.2192 -0.2954 -0.0006
20738W        W37585  13.777  14.274   4.935  0.1362  0.2990  0.0965
20739W        W37586   1.795   6.235  11.688  0.1507  0.2595  0.1820
20740W        W37587   3.162   3.697  12.229 -0.0667 -0.3478 -0.0135
20741W        W37588   4.243   7.980   1.884 -0.1921  0.1636 -0.3498
20742W        W37589   7.838  13.666  12.100  0.1376 -0.0007 -0.1065
20743W        W37590   9.780   9.553   4.865  0.2365  0.0807 -0.2373
20744W        W37591  11.054   8.515   3.254 -0.0850  0.2318 -0.0345
20745W        W37592  14.686   5.804   4.527  0.0024  0.0960 -0.0121
20746W        W37593  14.650   3.017  15.607  0.1912 -0.1845  0.0169
20747W        W37594   8.896  11.855   5.809  0.0947 -0.0511 -0.2948
20748W        W37595   3.992  16.934   3.015 -0.0062 -0.1727 -0.0735
20749W        W37596  14.947  12.377  12.567  0.0981 -0.2618 -0.0574
20750W        W37597   3.005  12.230  11.100  0.2840 -0.0231 -0.0499
20751W        W37598  10.550   3.584  12.889  0.0722 -0.0223 -0.2463
20752W        W37599  16.320  11.965   0.994 -0.0669 -0.2474 -0.2022
20753W        W37600  10.420   2.294   9.898 -0.0964  0.1356 -0.0211
20754W        W37601  10.892  17.023  11.887 -0.1422 -0.0803  0.0771
20755W        W37602   2.522   5.982  15.826  0.0440 -0.1400  0.1580
20756W        W37603  17.976   2.754   1.838 -0.1065 -0.1187 -0.1070
20757W        W37604   3.404   1.052   1.889  0.1198 -0.2283 -0.1638
20758W        W37605   5.367   2.374   5.260 -0.3146  0.0217 -0.4081
20759W        W37606   5.429   6.575  12.005  0.0855 -0.0017 -0.2000
20760W        W37607   5.943  13.304  14.803  0.2286  0.0153 -0.1753
20761W        W37608   8.406   1.059  11.573  0.2414  0.2874 -0.1474
20762W        W37609   5.514  10.966   3.032 -0.1128  0.2262 -0.1279
20763W        W37610   3.850  15.074  11.281 -0.0035  0.0549  0.3288
20764W        W37611   6.651   2.813   1.382 -0.1056 -0.1742 -0.0862
20765W        W37612   6.746   9.041   4.860  0.0641 -0.1590  0.2813
20766W        W37613  12.851   2.629  15.865  0.1925 -0.3060 -0.1252
20767W        W37614  16.857   7.730   0.678 -0.0495  0.0726 -0.4682
20768W        W37615   1.550   9.827   5.015  0.0251 -0.2476 -0.0460
20769W        W37616  13.478   5.015  12.993  0.1093  0.0145  0.6776
20770W        W37617   4.525   8.105  13.479 -0.4039  0.0121  0.1699
20771W        W37618  15.862   4.894   3.114 -0.0666 -0.0220 -0.1010
20772W        W37619   0.935  16.251  11.121 -0.1717 -0.0061  0.0538
20773W        W37620   2.456   2.155  12.063 -0.2366 -0.0310 -0.1967
20774W        W37621  14.874   5.926   0.984 -0.1180 -0.2447 -0.0491
20775W        W37622   8.434  16.102  13.215  0.2186  0.0509  0.1124
20776W        W37623   2.891   7.886  14.798 -0.1407 -0.0319 -0.1980
20777W        W37624  17.622  10.349   5.080  0.0485  0.1396  0.1411
20778W        W37625   1.750   3.400  13.453 -0.2599  0.3070 -0.2728
20779W        W37626  17.330  16.183  15.756  0.0901 -0.2991  0.1145
20780W        W37627   0.623  13.850  14.894 -0.1725 -0.1220  0.3494
20781W        W37628   9.652   0.699   0.482 -0.0573 -0.1607  0.0556
20782W        W37629   3.685   7.944   5.498  0.0455  0.0066  0.1127
20783W        W37630   8.812  10.852   2.141  0.0630  0.0646 -0.1088
20784W        W37631  15.628  13.182  11.411  0.2233  0.0553  0.2174
20785W        W37632  15.143  13.300  11.496 -0.0167 -0.2093 -0.2251
20786W        W37633   8.338  17.924  10.528 -0.0150  0.0464 -0.2451
20787W        W37634  10.209  18.090  14.203 -0.0583 -0.1660 -0.1651
20788W        W37635   0.391   8.814  11.596  0.0345  0.0892  0.1476
20789W        W37636   2.640   8.626   2.924 -0.1217 -0.1483  0.0183
20790W        W37637   3.577  12.736  13.008  0.0468 -0.1851  0.1536
20791W        W37638  10.132  17.445  12.336 -0.0920  0.0690 -0.0635
20792W        W37639   5.851   3.737   5.592  0.1256  0.0091  0.0572
20793W        W37640   9.513  13.527   2.677  0.0292  0.2160  0.1793
20794W        W37641  15.149  16.391  15.611 -0.3807 -0.0677 -0.1275
20795W        W37642  12.714  12.272   2.379 -0.2721 -0.0282  0.2490
20796W        W37643   2.609   7.955  12.240  0.4668 -0.0820 -0.1545
20797W        W37644   5.849  17.963   5.412 -0.3247 -0.2763  0.3947
20798W        W37645   8.720  13.881   6.152 -0.3260  0.1436 -0.2970
20799W        W37646  10.212   4.773  11.018  0.0505 -0.3070  0.1140
20800W        W37647  17.926   2.816  14.630  0.0965 -0.1812  0.1035
20801W        W37648  11.807   7.621  13.284 -0.0421 -0.1949 -0.0771
20802W        W37649   6.403  14.722   4.428  0.1412 -0.0180 -0.1339
20803W        W37650   9.731   6.416  14.240 -0.2462  0.1655  0.0942
20804W        W37651  10.599  10.818  12.710 -0.0752 -0.2738  0.1769
20805W        W37652   3.974   2.993  12.329  0.0708  0.1566 -0.1447
20806W        W37653   4.038  14.107   0.341 -0.1874 -0.2091  0.0196
20807W        W37654  13.368  13.381   1.997  0.3669  0.2598 -0.2020
20808W        W37655  12.274   3.367  10.994  0.2360  0.2298  0.0196
20809W        W37656  17.106   9.893  14.541 -0.2347  0.1081  0.1320
20810W        W37657  16.128  10.747   0.248  0.0557  0.1703  0.2294
20811W        W37658  16.574  11.040  14.351  0.2162  0.3148 -0.2500
20812W        W37659   2.249  17.929  11.933 -0.0596 -0.2054  0.3407
20813W        W37660  16.154   5.654  14.194  0.2396  0.0448  0.1029
20814W        W37661  10.922  17.400  15.557  0.1441  0.3033 -0.1681
20815W        W37662  11.823   9.852  13.767  0.0248  0.4570 -0.5149
20816W        W37663   2.410   9.165   0.090 -0.2727  0.0152 -0.3391
20817W        W37664   0.598  13.438  10.595 -0.0004  0.0369 -0.0339
20818W        W37665   8.687  17.005  11.640  0.1890  0.0014  0.1491
20819W        W37666  12.962  13.148   2.159  0.1320  0.0484  0.1110
20820W        W37667  12.243   7.738   0.998  0.3246  0.0159 -0.1133
20821W        W37668  10.579  10.919   6.011 -0.5729 -0.3940 -0.1764
20822W        W37669   0.801   3.107  15.216 -0.1011  0.2519  0.0733
20823W        W37670  17.093  11.391   6.341 -0.0058 -0.4587 -0.0607
20824W        W37671   0.856  14.472   5.523 -0.1388 -0.0053 -0.3660
20825W        W37672   7.273   3.367   0.347  0.0398 -0.1928  0.2870
20826W        W37673   0.524   6.768   0.925  0.3199 -0.0643 -0.1048
20827W        W37674   4.238  10.352   3.170 -0.0734  0.1827 -0.0206
20828W        W37675   8.128  12.287   2.571  0.2511  0.0048  0.0184
20829W        W37676   6.628  12.484   3.115  0.0133 -0.0414 -0.0367
20830W        W37677   4.665  16.195  14.518  0.2842 -0.0417 -0.0695
20831W        W37678   0.875   2.533   3.386 -0.0908  0.0587 -0.2299
20832W        W37679   3.530   3.169  13.477  0.1082  0.2530  0.0161
20833W        W37680  14.575  17.900  14.570  0.0055 -0.1743 -0.0186
20834W        W37681   6.480  11.617  15.972  0.0260 -0.0629 -0.2206
20835W        W37682   4.851   5.015   2.441  0.2173  0.0318  0.0740
20836W        W37683  15.247  15.725   0.798 -0.4661  0.0644 -0.0124
20837W        W37684   8.387   8.992  15.838 -0.0203 -0.0549  0.0727
20838W        W37685  10.897   7.822   0.224  0.1003 -0.4174  0.0675
20839W        W37686   3.894   2.962   3.003 -0.1831 -0.3125 -0.3745
20840W        W37687   7.256   7.046   2.883  0.3780 -0.0046  0.2551
20841W        W37688   7.753  10.910   0.753  0.2544  0.1348 -0.0532
20842W        W37689   5.899  17.684   3.635 -0.1757 -0.2842 -0.0533
20843W        W37690   5.012   9.067   4.558  0.0185 -0.1926 -0.2337
20844W        W37691  10.454  12.719  11.797 -0.1487  0.0237 -0.2149
20845W        W37692  16.838  15.486  11.798  0.0712 -0.0311  0.1295
20846W        W37693   3.032   9.919  15.621  0.1171  0.2542  0.2503
20847W        W37694   0.935   5.224   1.853  0.1528  0.0684  0.4137
20848W        W37695   2.538   8.815  12.005  0.1295 -0.0825  0.1603
20849W        W37696   3.462   6.547   2.857  0.0069 -0.0732  0.0880
20850W        W37697  16.288   4.331  15.815  0.1246  0.2035 -0.2233
20851W        W37698   0.036   5.063  14.823  0.1264 -0.1027 -0.0019
20852W        W37699   9.996  15.732   4.813  0.2087 -0.0298  0.1443
20853W        W37700  14.623   5.308   4.595  0.2006 -0.2101  0.0596
20854W        W37701   4.747   5.170   4.412  0.0068 -0.1343  0.1863
20855W        W37702   1.435  15.890  13.744  0.0071  0.1000  0.1899
20856W        W37703   8.678   1.479   0.381  0.1855 -0.1421 -0.0883
20857W        W37704   9.275   6.117  12.580 -0.1360 -0.2128  0.2004
20858W        W37705  12.894  11.274  15.586 -0.3336 -0.1190  0.0715
20859W        W37706  14.877  12.126  16.091 -0.0221  0.1071  0.1682
20860W        W37707   9.867   2.908   2.955 -0.1757  0.3609  0.3242
20861W        W37708  11.872   1.893  12.381  0.0021  0.0377  0.1165
20862W        W37709   5.820  16.842   2.026 -0.1227 -0.0548 -0.0518
20863W        W37710  13.991  13.865  12.363  0.0582  0.3211 -0.0505
20864W        W37711  13.923   6.806  14.983 -0.1464 -0.1500 -0.1824
20865W        W37712  10.615  15.923  13.687 -0.1346 -0.1082 -0.1286
20866W        W37713   4.009   4.020   2.801 -0.0137 -0.2133  0.0613
20867W        W37714  10.257   6.170  14.296 -0.0763 -0.1288  0.1952
20868W        W37715  10.174   9.959   1.401  0.1725 -0.1173 -0.0393
20869W        W37716   3.558  11.652  15.934 -0.1799 -0.1765  0.1293
20870W        W37717   2.004   1.806   2.584  0.0217 -0.0236 -0.2410
20871W        W37718  17.581   5.786   2.569 -0.1113  0.2052  0.0412
20872W        W37719  16.737   1.789  15.423  0.0712  0.1163  0.1494
20873W        W37720  14.303  16.045   3.949 -0.1262  0.0507  0.1102
20874W        W37721  13.890  17.827  12.322  0.0722  0.2296  0.0300
20875W        W37722   5.469   8.645  12.472 -0.0220 -0.0018  0.3616
20876W        W37723   3.508  15.742   4.880 -0.0412  0.0473  0.1650
20877W        W37724  17.373  14.017   4.604 -0.1342  0.2446 -0.3278
20878W        W37725  10.207  17.844   5.543 -0.0646  0.1783 -0.3022
20879W        W37726  11.905  18.295  14.058  0.1175  0.0724  0.1400
20880W        W37727   6.013   0.544   1.136  0.1621  0.1427  0.0336
20881W        W37728  11.746   6.673  14.007 -0.2527 -0.0171  0.1157
20882W        W37729   2.995   2.468  14.197 -0.0585 -0.2305  0.2518
20883W        W37730   7.428  10.504   2.002  0.1247 -0.0941 -0.2613
20884W        W37731  15.461  16.402   3.949  0.1098  0.1436 -0.1574
20885W        W37732   3.472  13.337   0.729 -0.0642 -0.2818 -0.0976
20886W        W37733   5.286  16.254   4.534  0.0372  0.4069 -0.0398
20887W        W37734  12.224   9.944  14.420 -0.2385 -0.0312 -0.0272
20888W        W37735   5.335   3.978   5.572  0.0235 -0.2472  0.2674
20889W        W37736  17.755  16.899   1.141  0.1804  0.2552 -0.1081
20890W        W37737   0.366  14.274  14.098  0.0039  0.0106  0.2736
20891W        W37738   9.245   3.987  14.719  0.0598  0.1777 -0.0904
20892W        W37739  12.188  16.652  15.836 -0.0886  0.2677  0.3549
20893W        W37740  17.629  17.521  15.345 -0.0409  0.1418 -0.0739
20894W        W37741   7.833  12.900   3.789 -0.3696  0.2654  0.1587
20895W        W37742  14.359  16.124   1.410  0.0454  0.2379  0.3836
20896W        W37743   2.895  13.036  11.672  0.0694 -0.2709 -0.0000
20897W        W37744   3.563  12.168   0.838  0.1615 -0.1674 -0.2362
20898W        W37745  11.670   2.459  12.487 -0.0303 -0.5871  0.1974
20899W        W37746  18.197   2.193   4.264  0.2933 -0.0535 -0.0656
20900W        W37747  14.831   5.174   1.613 -0.1751 -0.0261  0.1000
20901W        W37748  12.890   7.863  15.888 -0.0659  0.0745 -0.1595
20902W        W37749   4.317   8.691  14.278 -0.0370  0.0103 -0.0708
20903W        W37750  10.570   8.807   0.077 -0.0202 -0.1313  0.1637
20904W        W37751   8.327  18.130   2.291 -0.0973 -0.3309 -0.0692
20905W        W37752   8.182   3.063   2.711  0.3188  0.0190  0.3059
20906W        W37753  11.218  11.230  12.358 -0.2011 -0.0607  0.0671
20907W        W37754  17.427  10.383  12.223 -0.0936  0.1458 -0.1023
20908W        W37755  11.603   0.551   2.987 -0.0071 -0.1261 -0.0811
20909W        W37756   9.798   9.046  13.668  0.0067 -0.0155 -0.1040
20910W        W37757  12.208   7.376  13.043  0.3010 -0.1191  0.0816
20911W        W37758  14.304   0.945   4.542  0.0400 -0.2790 -0.0329
20912W        W37759   7.277   3.424   1.985 -0.5349 -0.1744  0.1914
20913W        W37760   4.818  10.200  15.147  0.1122  0.0016 -0.1702
20914W        W37761  11.868  15.219   2.515  0.0116  0.1549 -0.0804
20915W        W37762   7.481  16.615  14.361  0.1717 -0.2126  0.0352
20916W        W37763   1.810  13.836  14.095 -0.1636 -0.0275 -0.0312
20917W        W37764   8.545  12.023   0.712  0.1817  0.1126 -0.0871
20918W        W37765  11.286   2.718  15.884 -0.0581  0.0472  0.0839
20919W        W37766  10.582  12.144   2.001  0.0361  0.1011 -0.2829
20920W        W37767   2.371   0.481   1.735  0.4601 -0.0500  0.0320
20921W        W37768  14.401  10.213  12.476  0.0145 -0.0410 -0.2437
20922W        W37769   9.035  10.488   2.534  0.1813  0.2143 -0.2452
20923W        W37770   7.452   2.305  11.654 -0.0243  0.1100  0.0039
20924W        W37771  15.183  14.764   2.683 -0.1693  0.2376  0.2487
20925W        W37772   5.380  11.155  10.628  0.2234  0.2298  0.0929
20926W        W37773  15.942   6.281   3.514 -0.2118  0.0323  0.1633
20927W        W37774   9.266  17.622   5.298 -0.0923 -0.1739 -0.1468
20928W        W37775  10.061  10.132  15.376 -0.1839 -0.0099 -0.2429
20929W        W37776   4.372   5.357   3.728  0.0785  0.1344  0.1863
20930W        W37777   2.968   6.710  12.572 -0.0888 -0.1341  0.0098
20931W        W37778   4.064  17.891   0.571  0.1062  0.0329 -0.3642
20932W        W37779  10.094  10.025  11.610  0.0115 -0.0942  0.3163
20933W        W37780  17.446  17.096  14.524 -0.2023  0.1510 -0.1959
20934W        W37781   4.295   0.315   4.234  0.1736  0.1640 -0.0234
20935W        W37782   8.232   9.684  16.139 -0.1226  0.0821  0.2220
20936W        W37783   9.233   1.023   1.687 -0.2532 -0.3763 -0.2917
20937W        W37784  12.503  11.107   1.271  0.2712 -0.0877 -0.1531
20938W        W37785   1.346  15.024  16.160  0.3694  0.3036 -0.0145
20939W        W37786   3.346  13.150  14.528 -0.1332  0.2630  0.1642
20940W        W37787  14.880   7.185  12.139 -0.0571 -0.0754 -0.3324
20941W        W37788   2.780   2.889   5.258 -0.1190 -0.2515 -0.0881
20942W        W37789  15.157   8.344  11.580  0.3835 -0.1896 -0.1374
20943W        W37790  15.877   1.559  13.816  0.0527 -0.0366  0.0050
20944W        W37791  13.394   0.730  11.777 -0.1874  0.0085 -0.0238
20945W        W37792   2.316  10.684  11.623  0.0397  0.3509 -0.0175
20946W        W37793  11.046  10.209   2.136  0.0508 -0.2040 -0.1032
20947W        W37794   4.528  16.903   2.994  0.1148  0.3747  0.0887
20948W        W37795   1.033  11.680  15.860  0.1017  0.1786 -0.0215
20949W        W37796   9.290  14.158   1.474 -0.0636 -0.2089  0.1146
20950W        W37797   0.469  10.102  10.933 -0.0550  0.1826 -0.2630
20951W        W37798   5.586   5.295   5.327 -0.2226 -0.1124 -0.0675
20952W        W37799   5.151  16.624   2.409 -0.0543 -0.0949 -0.2649
20953W        W37800  17.983  12.641  11.637 -0.1277  0.4041 -0.0848
20954W        W37801  18.001   5.270  14.378 -0.1135  0.0306  0.3795
20955W        W37802   3.660  10.659   1.911 -0.1108  0.0293 -0.1740
20956W        W37803   8.401  17.918   5.815 -0.2105  0.0613  0.0968
20957W        W37804  11.739   6.632  10.982 -0.0770 -0.0776  0.1452
20958W        W37805   4.746   3.065  14.509  0.2586 -0.4395  0.0377
20959W        W37806   0.442   8.165  14.952  0.1511 -0.2240 -0.0690
20960W        W37807   8.106   9.553  15.286  0.1428 -0.3104  0.1570
20961W        W37808  16.200  17.359  14.948  0.2171 -0.1656 -0.1925
20962W        W37809   9.744   9.260   5.528 -0.0598 -0.1350  0.1844
20963W        W37810   5.606  15.964  11.437 -0.1264 -0.0854  0.1870
20964W        W37811   1.460  10.877   5.102  0.0787 -0.1241 -0.0104
20965W        W37812  10.341  13.824   3.970 -0.5372  0.0673 -0.1299
20966W        W37813   4.320  17.440  15.711  0.0620 -0.1268 -0.1299
20967W        W37814   6.123   9.956   4.151 -0.3326 -0.0750  0.1099
20968W        W37815   4.328  15.822  14.735 -0.2769  0.1164  0.0838
20969W        W37816   2.541  12.897   3.996  0.0101  0.1142  0.1856
20970W        W37817  14.706  12.953  15.584 -0.0383  0.0014 -0.0375
20971W        W37818  17.480  13.670   1.963  0.0913 -0.1628  0.3547
20972W        W37819   4.438  12.643   3.433  0.0343 -0.0309  0.1801
20973W        W37820  13.535   0.559  13.014 -0.0652  0.3297  0.1401
20974W        W37821   5.105   2.965  11.731  0.2650  0.0571  0.1092
20975W        W37822  17.698   8.217  14.299 -0.2904 -0.3932 -0.3149
20976W        W37823  16.382  13.862   0.553 -0.3220  0.2213  0.0780
20977W        W37824   5.111  12.217   4.732 -0.1597  0.1056  0.0400
20978W        W37825  16.653   2.191   4.082 -0.0257 -0.0574 -0.0132
20979W        W37826   9.937   4.959   2.134 -0.1091  0.0450 -0.0869
20980W        W37827  13.582   5.418  12.474  0.1696 -0.1075 -0.0357
20981W        W37828   8.505   9.206  15.264  0.2038 -0.2174 -0.1155
20982W        W37829  12.199   8.694   0.981  0.2920 -0.0166  0.0216
20983W        W37830   2.166  13.793   0.624  0.1731 -0.5120  0.0584
20984W        W37831  16.532  12.083   3.867 -0.0151  0.1186  0.0287
20985W        W37832   5.112  17.713   0.614 -0.1447  0.0554 -0.2155
20986W        W37833  14.863  14.376   3.193  0.1886  0.0392  0.1612
20987W        W37834  14.916   6.159  12.742 -0.1277 -0.2208  0.0359
20988W        W37835  16.515   2.913  12.171  0.0085  0.1271 -0.2899
20989W        W37836   9.921   3.339  11.331  0.0727  0.1470  0.2220
20990W        W37837   7.894   8.845   1.834 -0.0261  0.0902  0.0120
20991W        W37838   9.253  10.941   2.360  0.0220  0.0125 -0.2752
20992W        W37839  12.391  14.911   5.775 -0.3501  0.2520  0.3063
20993W        W37840   5.011  16.837   2.814 -0.0381  0.0610  0.0219
20994W        W37841  10.446   6.376  11.610  0.1699 -0.0297  0.2404
20995W        W37842  13.748   0.345  15.112  0.1407 -0.2810 -0.2195
20996W        W37843   9.209   3.988   2.250 -0.3340 -0.2589  0.0945
20997W        W37844  11.620  12.459   5.127 -0.0880 -0.1428  0.2546
20998W        W37845  11.504  17.204   0.727  0.1513  0.0088  0.1634
20999W        W37846   3.449   1.970   1.436 -0.3262  0.1121  0.1697
21000W        W37847  14.742   4.460   3.452  0.0430  0.2896  0.0194
21001W        W37848  12.041   7.166   0.575  0.0395  0.4903 -0.0569
21002W        W37849   7.962   6.756   2.469  0.0812  0.2878 -0.0014
21003W        W37850  13.430   2.083  13.617  0.1343 -0.4430 -0.0835
21004W        W37851  12.822   0.575  13.470 -0.0657  0.2168  0.0571
21005W        W37852   9.169   6.800  11.675  0.0334 -0.0509 -0.1169
21006W        W37853   4.675   3.227   4.987  0.2911  0.0555  0.1506
21007W        W37854   1.989  16.505   5.381  0.1160 -0.0668  0.0623
21008W        W37855  14.542   6.506  12.863  0.2205  0.0912 -0.3251
21009W        W37856   1.924   5.510  12.616 -0.0962 -0.0698 -0.1625
21010W        W37857  12.390   6.219   2.011  0.2226 -0.2032 -0.0892
21011W        W37858   3.272   6.248  15.963 -0.1346 -0.1098 -0.0197
21012W        W37859  16.553   3.119   3.320 -0.1489  0.0981 -0.0755
21013W        W37860   5.825  16.575   5.213  0.1004 -0.0602  0.0408
21014W        W37861   6.648   7.298   3.710  0.1068  0.4168 -0.1133
21015W        W37862  13.314   1.230  11.453 -0.1122 -0.0638  0.1229
21016W        W37863  14.871   3.563  11.435  0.0522  0.1242  0.0056
21017W        W37864   0.088  11.281  13.125  0.3480 -0.1609  0.2500
21018W        W37865   0.030   1.231  14.331  0.1264  0.4076  0.4504
21019W        W37866  13.202   5.793  11.181  0.0715  0.1995 -0.0679
21020W        W37867   8.285  16.370   1.681 -0.1184  0.0381 -0.0234
21021W        W37868  10.917  13.859  12.025 -0.1397  0.1598 -0.3148
21022W        W37869  15.255   6.778  13.366  0.4261 -0.0112 -0.3189
21023W        W37870  14.741   0.467   0.022 -0.0818  0.1029 -0.3024
21024W        W37871   7.574  15.905   1.715  0.3760  0.1082  0.0267
21025W        W37872  15.771   6.550  12.682  0.0212 -0.0872  0.1034
21026W        W37873  10.845   8.547   2.827 -0.0512 -0.0113  0.0098
21027W        W37874  10.910  17.803   0.185 -0.2609  0.0812 -0.1108
21028W        W37875   3.024  18.077   0.858 -0.0548  0.0757  0.1952
21029W        W37876  13.202  16.599   4.934 -0.1647  0.1381  0.0913
21030W        W37877  11.598   5.751  14.972  0.1395  0.0119 -0.0139
21031W        W37878   9.619  16.696  11.897  0.0930  0.0363  0.0390
21032W        W37879   6.533  12.173  10.996 -0.2564  0.0745 -0.0475
21033W        W37880   4.349  10.382  15.113 -0.0751  0.3356 -0.2953
21034W        W37881   3.328   3.947  13.095 -0.1894 -0.2096 -0.1534
21035W        W37882   2.921  16.568   2.627  0.1102  0.3091 -0.1444
21036W        W37883   8.477   2.653  15.843 -0.0578 -0.0895  0.1601
21037W        W37884   4.058   1.568  14.690  0.1250  0.2721  0.3033
21038W        W37885   8.602   0.207   4.294 -0.1761  0.2197 -0.3612
21039W        W37886  13.827  11.639   4.647  0.1210  0.3458  0.0757
21040W        W37887   1.192  17.970   0.333  0.1567  0.3423 -0.2670
21041W        W37888   0.384  15.097   5.696 -0.1122  0.0738 -0.0076
21042W        W37889   8.794  12.607   4.252  0.1496  0.1927 -0.2125
21043W        W37890  16.942  13.333   1.250  0.0315 -0.2067  0.3018
21044W        W37891  12.504  15.832   3.386  0.0828  0.0080 -0.0641
21045W        W37892   3.671  13.114  13.791 -0.1305  0.4058  0.0309
21046W        W37893  11.509   6.365  11.505  0.1123 -0.1989  0.1200
21047W        W37894   3.203   8.122   2.224  0.2092  0.3111  0.0112
21048W        W37895  15.339  10.703   0.618  0.1965 -0.0227 -0.0557
21049W        W37896  11.115  10.030   1.041  0.0133 -0.1298  0.1682
21050W        W37897   7.558   1.680   4.444 -0.1091 -0.1308 -0.1925
21051W        W37898   4.636  14.634   5.150 -0.1877 -0.0833 -0.0524
21052W        W37899   6.051   9.025  15.825  0.2461 -0.0246  0.0323
21053W        W37900  17.656   7.240  13.528 -0.0338  0.0122 -0.1118
21054W        W37901   3.008   8.917  11.874  0.1849 -0.1312  0.0407
21055W        W37902   3.638   1.109   3.476  0.1832  0.1668 -0.0070
21056W        W37903  14.434  17.211  15.146  0.0135  0.2992 -0.0822
21057W        W37904   3.125  13.800  12.136  0.2079  0.0268  0.0957
21058W        W37905  11.156   9.426   3.455 -0.1051 -0.1813 -0.2000
21059W        W37906  18.059  11.111   4.892  0.0864  0.1927 -0.2620
21060W        W37907   2.700   7.913   5.457 -0.0014 -0.2256 -0.0524
21061W        W37908   2.297  13.918   4.956  0.0782 -0.2748 -0.2883
21062W        W37909   2.899   2.283  11.790  0.0192 -0.0244 -0.0071
21063W        W37910  16.379   0.492  14.798 -0.0426  0.0770  0.3394
21064W        W37911   9.116   2.032   4.345 -0.1457  0.1644 -0.2004
21065W        W37912  11.584  13.752   2.177  0.0896 -0.1934 -0.1219
21066W        W37913   6.294   8.800   0.526 -0.2248  0.0317  0.0741
21067W        W37914   2.020  11.151   4.342  0.0847  0.0757 -0.0834
21068W        W37915   1.408   5.640  10.904  0.1397  0.1877 -0.0591
21069W        W37916  14.770  10.261   4.958 -0.1747  0.0211 -0.0127
21070W        W37917  18.115  15.215  12.504  0.4232  0.0978  0.2578
21071W        W37918  12.058   1.885  11.410 -0.2034 -0.0920 -0.2051
21072W        W37919  12.510  16.960  16.091 -0.1529 -0.1984 -0.0405
21073W        W37920  15.654   6.652   0.703 -0.3107  0.1103  0.0282
21074W        W37921   2.076   9.852   5.135 -0.1519  0.1777  0.1017
21075W        W37922  14.244   5.970   4.320  0.1992  0.1058  0.0537
21076W        W37923   4.018  12.033  13.296  0.0946 -0.0783  0.1073
21077W        W37924  10.796   0.074  15.123 -0.1980 -0.0788  0.1090
21078W        W37925   1.600  15.181   1.473 -0.0177 -0.0864  0.0736
21079W        W37926  16.532  16.338  12.572 -0.2319  0.0119 -0.3029
21080W        W37927  12.859  17.152  15.429  0.0871 -0.1056 -0.0136
21081W        W37928  18.327  15.150   4.524 -0.0592  0.3865 -0.0436
21082W        W37929   2.774   2.284   2.910 -0.4263  0.2390  0.0064
21083W        W37930   8.640  10.416  15.300 -0.1356 -0.0084  0.0401
21084W        W37931   8.850   1.504   6.014  0.2029 -0.1725 -0.2781
21085W        W37932  17.132   1.721  12.387 -0.0444  0.0088 -0.3490
21086W        W37933   3.188  14.699   0.303  0.0942  0.0200  0.2178
21087W        W37934   6.637  10.549  15.209 -0.0385 -0.0762  0.2112
21088W        W37935   4.884  16.947   2.181 -0.2039  0.0664  0.4417
21089W        W37936  17.930  16.479   3.840 -0.1637 -0.2593  0.2069
21090W        W37937  12.001   4.612  13.198  0.1075 -0.2158  0.2318
21091W        W37938   5.571   7.235   1.956 -0.1910  0.2384  0.0242
21092W        W37939   1.320  18.071   0.812  0.0233 -0.2300  0.0203
21093W        W37940   4.389  15.545  13.404 -0.0785  0.1126 -0.1339
21094W        W37941  16.388   5.275   0.803 -0.3479 -0.1921 -0.0472
21095W        W37942  17.421  16.375  12.635  0.1527  0.1147 -0.2941
21096W        W37943   8.168   8.969   1.430  0.1124 -0.0229 -0.0118
21097W        W37944   1.441  14.534   0.247  0.3438  0.1881 -0.2743
21098W        W37945   2.430   0.993  15.476  0.0168  0.0319 -0.0846
21099W        W37946   8.554   0.379  14.934 -0.2048  0.1544  0.3227
21100W        W37947  10.393  17.748   0.145  0.4345 -0.1305 -0.0782
21101W        W37948   7.550   9.429  11.701 -0.0679  0.0641 -0.0159
21102W        W37949  13.173  16.755  12.086  0.0802  0.1643  0.0727
21103W        W37950  15.101   4.936   3.562 -0.1302 -0.2989 -0.1124
21104W        W37951  13.883  13.258  14.634 -0.0291  0.4771 -0.3703
21105W        W37952  15.403  10.080  15.138  0.0155 -0.0781  0.0947
21106W        W37953  13.471   6.225   4.298 -0.2334  0.2574 -0.3854
21107W        W37954  14.168   2.265  12.441 -0.0805  0.1106  0.1490
21108W        W37955  18.209  16.201   1.621 -0.2243  0.0187  0.0032
21109W        W37956  14.710  12.978  11.678  0.2687 -0.0055 -0.2229
21110W        W37957  12.729  13.235  12.339  0.1527 -0.2475  0.0006
21111W        W37958  11.471  14.487  15.953  0.1893  0.4213  0.2530
21112W        W37959   8.624   9.340   1.317 -0.0424 -0.1408 -0.0505
21113W        W37960  17.455   5.756  13.116 -0.0608  0.0049  0.0515
21114W        W37961   0.031   7.250   0.173  0.0494 -0.3566  0.1525
21115W        W37962  15.861  11.772  13.369  0.0672 -0.0271 -0.0067
21116W        W37963   2.274   9.291   1.848  0.1842 -0.2517 -0.2480
21117W        W37964   5.875  14.629   0.778  0.4830  0.1753  0.1210
21118W        W37965   9.675   3.464  16.112  0.1811 -0.2821  0.2209
21119W        W37966   1.958   5.142   2.754 -0.0583 -0.0782 -0.0874
21120W        W37967  16.296  11.342   3.284 -0.0363 -0.2007 -0.1160
21121W        W37968   5.438   7.982   1.117 -0.0316  0.0118 -0.1231
21122W        W37969   4.004  15.016   3.123 -0.1677  0.0697 -0.0815
21123W        W37970  14.172   4.164   2.442  0.3148  0.1330 -0.0738
21124W        W37971   9.964  17.080  11.920 -0.2608  0.0734  0.2529
21125W        W37972   8.758  11.098   1.718 -0.0849 -0.0511  0.1449
21126W        W37973  11.439   1.903  12.786  0.1225 -0.0388  0.2177
21127W        W37974   0.774  11.453  14.532  0.1548  0.1034  0.1552
21128W        W37975  11.159   0.670   3.192 -0.2863  0.0302  0.0809
21129W        W37976  17.961  11.892  11.138 -0.2712  0.0487 -0.1822
21130W        W37977  13.119   5.737   2.433 -0.0082  0.4003 -0.1191
21131W        W37978  15.913   5.564   4.174 -0.2175 -0.1862  0.2459
21132W        W37979  10.438   1.515   4.286  0.0983 -0.3511 -0.1529
21133W        W37980   6.130  10.966   4.304  0.1444 -0.0606 -0.1387
21134W        W37981   2.036  16.346  12.497 -0.3206  0.0203 -0.0094
21135W        W37982   5.420   9.838  12.848 -0.0284 -0.0962  0.1232
21136W        W37983  17.129  11.879  14.542  0.0123  0.1081  0.1285
21137W        W37984  11.434   7.469   1.104  0.3049 -0.1122 -0.2107
21138W        W37985   3.239  12.998  10.703  0.1078 -0.1043 -0.0416
21139W        W37986   6.918  14.047   4.674  0.5208  0.2027 -0.0632
21140W        W37987   2.088  14.241   2.866 -0.2390  0.1067  0.2636
21141W        W37988  11.608  13.912  12.822  0.1375  0.0536 -0.0387
21142W        W37989  13.426  14.791   2.940  0.1522  0.1331 -0.2625
21143W        W37990   2.882   6.093   4.809  0.1119  0.1200 -0.0597
21144W        W37991  12.481   3.689   3.268  0.1775  0.1512 -0.2055
21145W        W37992   5.858   9.990  12.560 -0.2623 -0.2550  0.3625
21146W        W37993   3.806   4.992  14.324  0.1866  0.3879  0.0173
21147W        W37994  13.260  17.223   0.945 -0.2204  0.1954 -0.0694
21148W        W37995   0.271   3.546   0.748  0.0513  0.2552 -0.0692
21149W        W37996  17.356  18.272   4.584  0.2698 -0.3812 -0.1518
21150W        W37997  17.146  10.320   0.160 -0.2268  0.1338  0.0541
21151W        W37998  10.484   8.650   5.467 -0.2714  0.2021  0.1580
21152W        W37999   8.033  16.976   0.299 -0.1006  0.0459 -0.0945
21153W        W38000  17.450  10.007   3.439 -0.3648 -0.2044 -0.2907
21154W        W38001  12.726  11.767  11.974  0.2565 -0.1323  0.0810
21155W        W38002  17.654  17.397   4.257  0.0590 -0.2069  0.0512
21156W        W38003  13.434  10.027   1.355 -0.0084  0.0972 -0.2573
21157W        W38004   9.520   1.837   4.026  0.2449 -0.0206  0.1748
21158W        W38005  13.523  17.876   3.429  0.2604 -0.0910  0.0855
21159W        W38006   2.658  10.618  13.586 -0.0759 -0.1410  0.0523
21160W        W38007  10.102  16.228  11.035  0.0917  0.1094  0.0556
21161W        W38008  10.528  15.052  13.714  0.0991 -0.2288  0.2822
21162W        W38009  17.929   7.805   4.298  0.3429  0.0500  0.0084
21163W        W38010   5.887   0.835   4.754  0.2131  0.2466 -0.1602
21164W        W38011  10.405   5.702   2.784  0.2258 -0.1585  0.1176
21165W        W38012   2.004  11.354   3.793 -0.3133  0.0688  0.0079
21166W        W38013   3.892  12.512  10.919 -0.1118 -0.2538  0.1173
21167W        W38014  15.914  11.612   3.111 -0.3667  0.0202 -0.1200
21168W        W38015  11.331  10.384   1.376  0.0355 -0.0301  0.0964
21169W        W38016   9.815  15.281   1.975 -0.1777 -0.2042  0.0609
21170W        W38017   7.540   3.265  14.156 -0.1924  0.0696 -0.0991
21171W        W38018  16.272   2.616   4.813 -0.0928  0.1029  0.1320
21172W        W38019   3.769   8.171  15.437  0.0950 -0.0798 -0.1974
21173W        W38020  13.655   2.012   4.450 -0.0423 -0.1732 -0.0822
21174W        W38021   1.811  15.429  12.303 -0.0765  0.1586 -0.0944
21175W        W38022  10.483  17.754  12.566  0.1460  0.0789 -0.0740
21176W        W38023  14.869   8.434   1.931 -0.1240 -0.0367  0.2340
21177W        W38024   4.366  13.427   5.808  0.1546  0.0596 -0.0085
21178W        W38025   7.256  13.812   5.931 -0.0149 -0.2640 -0.2519
21179W        W38026  13.197   1.613  11.791 -0.0722  0.1053 -0.0605
21180W        W38027  14.507  11.274   4.279  0.1386  0.0611  0.1050
21181W        W38028  13.396   2.741   3.671 -0.0365  0.0689  0.1613
21182W        W38029   3.327  15.535  11.714 -0.2475 -0.0649 -0.0974
21183W        W38030  14.255  13.499   0.228  0.1136 -0.0930  0.2129
21184W        W38031  12.502  17.424  11.100  0.1145 -0.2992  0.0692
21185W        W38032   1.895   2.601  15.830  0.2186 -0.1549  0.3689
21186W        W38033  16.886   5.818   4.223 -0.0445 -0.1200  0.0100
21187W        W38034   0.431  10.141  12.773 -0.0628  0.1270 -0.2321
21188W        W38035  13.056  14.271  15.140 -0.1571 -0.2787  0.1531
21189W        W38036   7.433   5.603  14.310 -0.2988 -0.0505 -0.0274
21190W        W38037   4.146  11.247   2.704 -0.2643  0.1037 -0.3126
21191W        W38038  16.212   3.448  14.393  0.0981  0.0830  0.0665
21192W        W38039   9.985  14.525   0.973 -0.0249  0.0891  0.0390
21193W        W38040  15.308   0.429   1.586  0.1283  0.1612 -0.1465
21194W        W38041   9.868  17.362  12.712 -0.0142 -0.0337 -0.2167
21195W        W38042  11.275  13.374   2.182  0.1835  0.1967  0.1910
21196W        W38043  16.063  12.058  15.326  0.0736  0.2032 -0.1579
21197W        W38044   9.149   1.084  13.148  0.1226 -0.0555 -0.0133
21198W        W38045   4.693   7.734  13.871  0.1338  0.1331 -0.0008
21199W        W38046   6.769  16.204   3.621 -0.1126  0.1795  0.2180
21200W        W38047   9.558   7.006  13.427  0.1582  0.0191 -0.0164
21201W        W38048   1.752  13.471  15.631  0.0087  0.0911  0.1431
21202W        W38049  16.039   7.531   0.611 -0.1277  0.2371  0.1895
21203W        W38050   7.539   9.651  15.874  0.0938  0.1583 -0.0527
21204W        W38051  12.020  15.381   2.973 -0.0152  0.3657  0.3134
21205W        W38052   9.153   3.478   1.981  0.1258 -0.0202 -0.2727
21206W        W38053  12.549   6.449   2.662 -0.0186 -0.0047 -0.1128
21207W        W38054  18.065  16.528   1.231  0.2389  0.1214  0.0849
21208W        W38055   8.454  17.161   5.487  0.1700  0.0562  0.1936
21209W        W38056   1.329  17.698  14.474  0.4807  0.1025  0.5070
21210W        W38057   2.553  17.398   2.942  0.3625  0.1525  0.0209
21211W        W38058  15.574  14.138  16.042  0.1979 -0.0698  0.0619
21212W        W38059   6.934   2.258  15.730  0.0538  0.1218  0.3796
21213W        W38060  14.799  17.615   3.912  0.0556  0.2548  0.1146
21214W        W38061   6.808   0.618  13.765 -0.1451  0.1190 -0.0860
21215W        W38062  15.436   6.286   3.610  0.1392  0.3492 -0.1267
21216W        W38063  16.074  16.036  13.268 -0.1202 -0.0720  0.1063
21217W        W38064   0.368   1.246   0.695  0.0611  0.1678 -0.1729
21218W        W38065  17.307  16.848   2.970 -0.1313  0.1716  0.3560
21219W        W38066  13.489  17.839  16.043  0.0507  0.1234  0.1629
21220W        W38067  14.498  16.130   5.421 -0.1175  0.0981 -0.0482
21221W        W38068   8.846   7.151  13.830 -0.0351  0.2732  0.1025
21222W        W38069  13.804  13.837   4.527 -0.0854  0.2083 -0.0841
21223W        W38070  12.462  14.363  12.315 -0.0038 -0.0353  0.0417
21224W        W38071   5.019  14.604   5.585 -0.1461 -0.0913  0.1666
21225W        W38072  12.809   6.966   4.373  0.0988  0.0584 -0.1287
21226W        W38073   3.596  14.938   0.613 -0.0811 -0.2992  0.0754
21227W        W38074   0.590   0.699   1.162  0.1490  0.0371  0.1025
21228W        W38075   4.222  14.898   4.964 -0.2492  0.0530 -0.2514
21229W        W38076   6.685   4.641  14.805  0.0165 -0.2001 -0.2162
21230W        W38077  17.055  16.359   1.631  0.3821 -0.1325 -0.0784
21231W        W38078  17.432   2.040  11.636 -0.2439 -0.1551 -0.2596
21232W        W38079  14.983   8.565   1.439  0.0408 -0.1331  0.1003
21233W        W38080  17.526   4.030  13.971  0.1882  0.0718  0.3141
21234W        W38081   0.622  14.187   4.006 -0.0783 -0.0858  0.1160
21235W        W38082   9.388   2.381   4.614 -0.0815  0.3815  0.1569
21236W        W38083  11.230   4.893   1.908 -0.1401  0.1559 -0.0638
21237W        W38084   3.095   0.273  14.524  0.1791  0.1561  0.0395
21238W        W38085   3.396   2.787   3.348 -0.1425 -0.1478 -0.0625
21239W        W38086   9.477   5.663   1.970  0.0482 -0.1627 -0.4879
21240W        W38087   4.013  12.158   3.421  0.4470  0.2359  0.0058
21241W        W38088  10.011   4.545   0.424  0.2533 -0.2011 -0.1532
21242W        W38089   9.147  10.277   3.787  0.0726  0.2285 -0.3403
21243W        W38090  12.962  10.907   2.518 -0.0704 -0.1961 -0.2019
21244W        W38091  15.537  12.956  14.482 -0.0907 -0.0762 -0.1802
21245W        W38092   5.451   2.334  13.645 -0.2530  0.1169 -0.0996
21246W        W38093   0.784  12.787  12.308  0.1629 -0.1121  0.0171
21247W        W38094  18.198   6.846   4.554  0.2692  0.0458  0.1354
21248W        W38095   4.964   9.758  12.538 -0.2223  0.2025 -0.2379
21249W        W38096  12.639  15.230   4.726  0.0185 -0.0139  0.1791
21250W        W38097  12.424  10.900  12.273 -0.2539  0.3311 -0.0792
21251W        W38098   8.639   0.075  13.722  0.1311 -0.1403 -0.3001
21252W        W38099   7.481  11.827  13.015 -0.0245  0.1537 -0.1233
21253W        W38100   7.794  15.729   5.084  0.2418 -0.1325 -0.3181
21254W        W38101   1.292  14.496  13.702  0.0725 -0.1311 -0.1155
21255W        W38102  15.411   1.341   2.048  0.0076  0.0838 -0.4496
21256W        W38103  15.332   6.014   2.832  0.0402  0.0525  0.0708
21257W        W38104  15.940  10.938  15.861  0.1147 -0.2108 -0.0956
21258W        W38105   1.580   7.418  14.215  0.0577 -0.2182  0.0528
21259W        W38106  14.789   0.326   1.559  0.4390  0.0651 -0.0760
21260W        W38107  11.300   0.914  14.385  0.1263 -0.0377  0.0038
21261W        W38108  11.828   0.299  12.106  0.0656  0.0174  0.3150
21262W        W38109   4.494  10.144   3.551  0.1086 -0.0051 -0.0379
21263W        W38110  14.760   9.837  12.744 -0.1289 -0.1512 -0.1644
21264W        W38111  12.319  10.593   5.924 -0.1278 -0.3050 -0.1376
21265W        W38112   8.306  10.756  13.526 -0.2224 -0.1873  0.0037
21266W        W38113   8.179   9.208   5.139 -0.1912  0.1210  0.1291
21267W        W38114   2.803   5.366  11.699 -0.0995  0.1519 -0.1792
21268W        W38115  12.619   5.918   3.775  0.0863 -0.1122  0.0215
21269W        W38116  14.103   5.559  15.919 -0.0049 -0.0459  0.2148
21270W        W38117  10.088   4.271  11.613  0.0820  0.2484  0.0712
21271W        W38118   5.846   4.327  12.093 -0.0381  0.0124 -0.0352
21272W        W38119  13.578   3.363   3.985  0.1277  0.0633  0.0887
21273W        W38120   5.409   7.694  15.157 -0.1298 -0.1399 -0.1648
21274W        W38121   8.113   7.681  14.389  0.2802  0.1097  0.1148
21275W        W38122  12.600  15.443   3.771  0.1029 -0.1114  0.1964
21276W        W38123  12.644  15.459   0.165 -0.0335 -0.0080 -0.3578
21277W        W38124  17.365  12.218   3.639 -0.3617  0.2742  0.0115
21278W        W38125   2.576   1.300  13.172 -0.6295  0.1134 -0.1561
21279W        W38126   5.085   3.173  14.180  0.3184  0.0210  0.0045
21280W        W38127  14.460   5.075   4.129 -0.1348 -0.0845  0.1368
21281W        W38128  11.564   9.018  13.882 -0.1497  0.0730 -0.2767
21282W        W38129  11.047  17.301   2.432 -0.1188 -0.1992 -0.1072
21283W        W38130   9.872  14.745  12.092  0.1688  0.1370 -0.1815
21284W        W38131   9.235   9.373  12.318 -0.1518 -0.1165 -0.1078
21285W        W38132  17.489   6.497  13.061  0.1284  0.2102 -0.0385
21286W        W38133  15.805  11.006  11.172 -0.0236  0.3378 -0.0547
21287W        W38134   8.540  17.826   0.926  0.1210 -0.2279  0.3120
21288W        W38135   8.411  10.543   6.219  0.1955 -0.2062  0.0611
21289W        W38136   2.157  16.791  14.627 -0.1192 -0.0101  0.2282
21290W        W38137   3.097  13.551   2.367 -0.1048  0.0978  0.1252
21291W        W38138   3.699  14.621   5.524  0.1963 -0.1457  0.0349
21292W        W38139  11.460  10.313   3.623 -0.1579  0.0549  0.1275
21293W        W38140  11.473  17.601  16.094  0.0664 -0.1883  0.1067
21294W        W38141   3.337   0.524   0.868  0.1325  0.0908 -0.0277
21295W        W38142   6.821   9.137   4.374 -0.0520 -0.1624  0.1474
21296W        W38143   0.717  12.997   5.936 -0.3113  0.1137 -0.0296
21297W        W38144   0.153  13.194  15.904 -0.0003 -0.3785  0.1088
21298W        W38145   5.578   3.248  14.258  0.1332 -0.1728 -0.1394
21299W        W38146  11.685   5.315   0.904  0.0006  0.1674  0.1526
21300W        W38147   4.509   2.064  13.477  0.2099  0.1188 -0.0354
21301W        W38148  11.616   5.828   0.670  0.2591 -0.1558  0.1871
21302W        W38149   9.107   8.917   5.062 -0.0255  0.2169  0.2574
21303W        W38150   4.580  15.588  14.423 -0.1107  0.0400 -0.0013
21304W        W38151  14.764  17.538  13.235 -0.1582  0.0948  0.0337
21305W        W38152  10.944   8.083  13.046  0.1612 -0.2667 -0.1446
21306W        W38153   1.275   8.373   4.263  0.0027  0.1081 -0.0634
21307W        W38154  11.680   0.633  14.184  0.2421 -0.0519 -0.2211
21308W        W38155  14.515   8.153  10.954 -0.0524  0.0830 -0.2263
21309W        W38156   5.780   0.234  13.752  0.0077  0.1738  0.2615
21310W        W38157   0.374  12.523   0.470 -0.3495 -0.0421  0.3519
21311W        W38158  15.649   0.565   2.070  0.2013  0.1359  0.2146
21312W        W38159  16.325   8.514  12.548 -0.0695 -0.0848 -0.0191
21313W        W38160   2.373   1.017   6.305 -0.2010  0.3736 -0.3068
21314W        W38161  12.360   5.040  12.125 -0.2507 -0.1200 -0.1054
21315W        W38162   1.337   3.585  14.473  0.2474  0.1789 -0.1103
21316W        W38163  12.939   7.197  14.427  0.0465 -0.0221 -0.0544
21317W        W38164   3.323   1.968  13.048  0.4145 -0.0680  0.0315
21318W        W38165  15.916   7.027  15.543  0.0224 -0.2378  0.0203
21319W        W38166  14.157   0.661  12.512 -0.0054 -0.0671  0.1195
21320W        W38167   9.861   3.931  16.021  0.0620 -0.2068  0.1548
21321W        W38168  11.663   7.036   1.972  0.1568  0.3577 -0.4302
21322W        W38169  18.306   3.014   3.857 -0.0626 -0.2478  0.4686
21323W        W38170  13.403   7.430  11.813  0.0827  0.0213  0.1159
21324W        W38171   8.544   7.662   3.175  0.0244  0.1090  0.2341
21325W        W38172  14.087  14.982  13.890  0.0285  0.0445  0.0285
21326W        W38173   4.685   7.221   5.368 -0.2319  0.0636 -0.0549
21327W        W38174   0.973  13.626   2.380  0.1159  0.0233  0.0573
21328W        W38175   7.449   9.497   3.912 -0.1664 -0.1899 -0.1411
21329W        W38176  16.807   9.992  12.765 -0.2525  0.0554  0.1896
21330W        W38177   8.580  14.320  12.104  0.1767 -0.1846  0.1118
21331W        W38178  16.040  10.007  12.134 -0.0844  0.2141 -0.0748
21332W        W38179  10.278   9.819   0.942  0.1557 -0.1224 -0.0125
21333W        W38180  10.222  17.802  13.830 -0.2515 -0.0949 -0.0188
21334W        W38181   4.899   3.087   1.516 -0.2089 -0.2605 -0.1885
21335W        W38182  10.983   0.015  14.638 -0.0367  0.2365  0.1466
21336W        W38183  11.817  16.951  15.617  0.1380 -0.2028  0.0394
21337W        W38184   9.851  12.484  14.630 -0.0225  0.1449 -0.1519
21338W        W38185  13.114   5.499  14.258 -0.0133 -0.0512  0.0737
21339W        W38186  12.064   3.295   3.327 -0.0390 -0.1972  0.1908
21340W        W38187   7.646   2.700  14.975  0.0685 -0.2203 -0.0719
21341W        W38188  15.298   5.183   0.670  0.0182  0.1089  0.0380
21342W        W38189   6.689  12.923  12.253  0.0440  0.0483  0.1372
21343W        W38190  11.370  12.404  10.401 -0.0251 -0.1452  0.1785
21344W        W38191  12.794  12.114  14.473  0.2723 -0.0558  0.1958
21345W        W38192   5.185   9.593   4.824  0.1369  0.1460  0.1483
21346W        W38193  16.484   5.023   5.841  0.1314  0.0645  0.0183
21347W        W38194   4.580  17.578  15.026  0.0668 -0.0483  0.2633
21348W        W38195   5.579   5.785   0.904  0.0717  0.1263  0.3118
21349W        W38196   0.789   1.460   2.727  0.0222  0.0060 -0.1091
21350W        W38197  12.549  11.135   3.299 -0.2262 -0.0833  0.2490
21351W        W38198   0.143  12.799   5.047  0.1581  0.2604  0.3047
21352W        W38199  14.927  10.979   4.286 -0.0671 -0.3130 -0.2195
21353W        W38200   1.314  12.759  13.169 -0.0027  0.0560  0.0740
21354W        W38201   4.833  16.504   5.269  0.0314  0.1278  0.1637
21355W        W38202   2.010   2.453   5.348  0.2034 -0.0494  0.0139
21356W        W38203  14.847  14.754  15.056 -0.1832  0.1070 -0.0696
21357W        W38204  10.909   1.734  14.569 -0.1870  0.0235 -0.0517
21358W        W38205  18.108  15.993  14.937 -0.1155  0.0102 -0.1537
21359W        W38206   0.971   3.882  14.261 -0.3575  0.2033 -0.1514
21360W        W38207   7.515  10.032  15.048  0.0584  0.2528 -0.1260
21361W        W38208  14.620  11.342  14.874 -0.1628  0.0324  0.1996
21362W        W38209   2.103  15.684   0.832 -0.0618 -0.0233  0.1221
21363W        W38210   2.211  17.075  15.035  0.3744 -0.1107 -0.1222
21364W        W38211  15.875   1.266  12.663  0.2947 -0.1616 -0.0574
21365W        W38212   0.817   2.921  11.773  0.1217 -0.1233  0.0733
21366W        W38213   4.460  18.190   5.834  0.1043 -0.0704  0.1273
21367W        W38214  16.415  17.273  11.380  0.4198 -0.2925  0.1271
21368W        W38215   9.485   0.424   2.285 -0.0860 -0.2025 -0.3276
21369W        W38216  14.350  17.735   0.902  0.1549 -0.0940 -0.0165
21370W        W38217   2.435  16.334  11.027  0.2283 -0.0388  0.0417
21371W        W38218  12.128  14.529  12.042  0.0721  0.2725 -0.1785
21372W        W38219  10.379   1.544  15.452 -0.0072  0.0352  0.1078
21373W        W38220   6.992   3.745   0.088  0.2032 -0.2097  0.3915
21374W        W38221  14.014  14.665   1.713  0.3530 -0.1917  0.2687
21375W        W38222  15.642   6.356   3.096 -0.0289 -0.0917 -0.1020
21376W        W38223   3.254  16.528  11.248  0.1759 -0.1482  0.2807
21377W        W38224  15.331   3.954  14.149  0.0756 -0.3443  0.0162
21378W        W38225   0.530  16.845   2.754  0.0381  0.0387 -0.1926
21379W        W38226   4.452   8.292   2.490  0.0140 -0.0241 -0.1107
21380W        W38227  14.599   5.619   2.150 -0.2562 -0.0753 -0.1154
21381W        W38228   4.225  14.343   4.119  0.1919 -0.1395 -0.0138
21382W        W38229   9.915   7.622   3.836  0.0248 -0.0540  0.1998
21383W        W38230  10.317   8.535  15.409 -0.1817 -0.1514  0.0199
21384W        W38231   3.865  11.731   0.712 -0.2617 -0.1101 -0.0147
21385W        W38232   3.169   8.250  12.991  0.0673 -0.1927 -0.0348
21386W        W38233   9.924   5.919  15.938 -0.0760 -0.0449 -0.1763
21387W        W38234   3.109  15.450  14.323  0.1604 -0.3600  0.0359
21388W        W38235  17.628   5.658  16.110 -0.2670  0.0851  0.0344
21389W        W38236  16.096   1.973   4.155  0.0748  0.0627  0.1248
21390W        W38237  10.808  14.820  12.153 -0.1322  0.1678  0.0222
21391W        W38238  12.281   3.618   4.697 -0.1535  0.0951  0.0765
21392W        W38239  12.384   5.604  13.357  0.0866  0.1724 -0.0940
21393W        W38240   0.292  12.717  12.523 -0.0684 -0.2271  0.0715
21394W        W38241   7.970  13.517  11.157  0.2430 -0.0101  0.3448
21395W        W38242   6.085   0.620  13.519  0.0127  0.0046  0.2378
21396W        W38243  18.304   8.555  14.998 -0.3107  0.1359  0.1249
21397W        W38244  15.562   1.699  14.487  0.0199  0.3038 -0.1129
21398W        W38245   6.956   0.227  13.395  0.0370 -0.1201 -0.1883
21399W        W38246  12.119  11.594   2.244  0.0666 -0.0185 -0.1195
21400W        W38247  11.828   5.520  10.902 -0.1167 -0.0662 -0.0837
21401W        W38248  14.528   5.870  15.828 -0.0935  0.2455  0.1581
21402W        W38249  11.187  18.085   0.494 -0.2973 -0.1647 -0.0759
21403W        W38250   5.480  12.794  15.091 -0.0506  0.1774 -0.0580
21404W        W38251   9.375  16.764   0.229  0.1872 -0.3162  0.0884
21405W        W38252  10.361  10.966   3.112  0.0421  0.1515 -0.1159
21406W        W38253  15.463  10.385  15.553 -0.0820  0.0337 -0.1503
21407W        W38254   4.275  15.775  15.282 -0.1014  0.3049  0.0504
21408W        W38255   6.206   1.409  14.555  0.0167 -0.0181 -0.1159
21409W        W38256   1.772   1.355  11.547 -0.0621  0.2618 -0.1175
21410W        W38257   8.049   9.455   3.570 -0.1774  0.0930  0.0099
21411W        W38258   6.576   2.112  14.991  0.3370 -0.0145  0.1099
21412W        W38259   9.931  14.668   0.148 -0.1541 -0.1577 -0.0441
21413W        W38260  13.794  17.021   5.004  0.1065 -0.4737 -0.1099
21414W        W38261   6.543   9.647  14.767  0.3602  0.2242 -0.0173
21415W        W38262  11.220  16.983  14.426  0.0277  0.0266  0.1499
21416W        W38263   7.588   7.015  14.296  0.1125  0.2175 -0.0950
21417W        W38264  14.440  11.858   1.433 -0.0604  0.2144 -0.2054
21418W        W38265  10.410   4.659  11.445 -0.0316  0.0519 -0.0613
21419W        W38266   3.278  13.881   0.196  0.3205  0.3477 -0.0587
21420W        W38267   4.739  10.040   2.008  0.0363 -0.3717 -0.0983
21421W        W38268   9.468   6.544   4.360 -0.0404 -0.0218 -0.0510
21422W        W38269  15.409   2.005  14.999  0.2423  0.1708  0.1218
21423W        W38270   2.255  17.548   5.609 -0.2327 -0.2217  0.0552
21424W        W38271  14.370   5.957   4.882 -0.0615 -0.0295 -0.1945
21425W        W38272  15.085  12.021  14.403  0.0545  0.0624 -0.1565
21426W        W38273   9.627  11.862  11.927 -0.2624  0.1767  0.3438
21427W        W38274   9.584   6.822  10.917  0.1341 -0.0176  0.2292
21428W        W38275  10.478  13.809   3.440  0.1432  0.0027 -0.2203
21429W        W38276  10.278   7.966  12.357  0.3648  0.0157  0.3171
21430W        W38277   8.301  12.534   1.498 -0.1697 -0.0028 -0.1455
21431W        W38278   8.627  13.847   2.012 -0.1079 -0.1391  0.0665
21432W        W38279   8.188  16.814   0.759 -0.1723 -0.1231  0.0937
21433W        W38280   0.326  15.615   3.645  0.1584  0.1037 -0.0261
21434W        W38281   1.719  14.160  13.335 -0.0739 -0.1463 -0.2037
21435W        W38282   0.949   4.418  12.744 -0.2027  0.1022 -0.0868
21436W        W38283   6.543  13.304  12.553  0.0108 -0.2652  0.2000
21437W        W38284   5.245  13.883  13.683  0.1843  0.2454  0.0771
21438W        W38285   4.899   0.083   4.473 -0.0969 -0.1125 -0.1046
21439W        W38286  17.414   2.245  15.215  0.1009  0.2520 -0.1077
21440W        W38287   6.096   7.679   4.527 -0.0234 -0.1869  0.1941
21441W        W38288   2.023   6.196   3.632 -0.0337  0.0966 -0.0946
21442W        W38289  18.315   3.579  15.090  0.1769 -0.0649  0.3266
21443W        W38290   4.063  15.411   3.576  0.2040  0.1222 -0.0470
21444W        W38291  15.121   8.645   2.265  0.0399 -0.2683  0.2635
21445W        W38292  14.924  16.678   0.427 -0.0929  0.4940 -0.0092
21446W        W38293   0.848   3.756   0.966 -0.0219  0.2218 -0.1287
21447W        W38294  16.602   5.040   5.351 -0.0127 -0.2818  0.2052
21448W        W38295   7.139   9.043   1.614 -0.0294 -0.3127  0.4071
21449W        W38296  16.409   4.248   5.450 -0.1567  0.0219  0.0291
21450W        W38297   6.153   4.620   4.129  0.1773  0.0139 -0.2157
21451W        W38298  11.872   5.027  13.587 -0.1665  0.3347  0.0745
21452W        W38299   2.920  16.023  14.409 -0.0618 -0.1173 -0.3398
21453W        W38300  11.836   1.810   3.762  0.1114 -0.0502  0.0521
21454W        W38301   6.669   8.940  12.668  0.0116  0.0529 -0.1810
21455W        W38302   7.008   8.994  13.686 -0.2359 -0.0425 -0.1782
21456W        W38303   6.920   8.701   1.271 -0.0680 -0.0931 -0.4202
21457W        W38304  14.435   4.905  16.189  0.0360 -0.5067  0.0572
21458W        W38305  14.573   8.523   2.981 -0.0572 -0.3899  0.2177
21459W        W38306   9.887   5.727   0.950  0.0602  0.3706 -0.2435
21460W        W38307   2.589  10.251   4.302 -0.1467 -0.2547  0.0650
21461W        W38308  14.567   9.293   2.501  0.1574 -0.0043  0.0121
21462W        W38309  13.621   7.438   3.231 -0.3538 -0.0710  0.0758
21463W        W38310  11.064   3.363  13.756  0.0139 -0.0122  0.0232
21464W        W38311   0.029  11.557  15.609 -0.3050  0.2753  0.0107
21465W        W38312   5.973  13.816  15.874 -0.3635 -0.0900 -0.3539
21466W        W38313   0.322   4.724  12.383  0.1171  0.3094  0.1955
21467W        W38314   7.105  17.055  10.103 -0.4268  0.0167 -0.1976
21468W        W38315  14.135  15.444  13.636 -0.0351  0.1934 -0.2547
21469W        W38316   3.656   4.700  10.438 -0.0339 -0.0160 -0.2093
21470W        W38317   0.630  11.375   4.543  0.1306 -0.1118 -0.0658
21471W        W38318   3.140  17.472  15.263  0.0884  0.1916  0.1584
21472W        W38319   7.824  12.435   1.335  0.0867 -0.0975  0.1383
21473W        W38320  11.255  16.123  14.179 -0.1347 -0.0625 -0.1706
21474W        W38321  10.634  17.910   4.563 -0.0120 -0.0386 -0.1126
21475W        W38322   7.569   9.971  13.387 -0.1557 -0.5242 -0.1162
21476W        W38323   5.883   1.828   0.587 -0.0237 -0.0747 -0.0742
21477W        W38324   4.559  12.361  14.238 -0.1348 -0.3088  0.2342
21478W        W38325  12.187   0.705  11.720 -0.4982 -0.1167 -0.2442
21479W        W38326  11.290  12.995  11.919  0.1125 -0.0505 -0.2611
21480W        W38327   3.900  14.506   5.020  0.0319 -0.2163 -0.0128
21481W        W38328  13.765  18.212   3.794 -0.1365  0.2417  0.2551
21482W        W38329  15.588  17.637   5.972 -0.3168 -0.3154  0.2210
21483W        W38330   1.964  13.478   1.432 -0.0425  0.1222 -0.0183
21484W        W38331  13.526   9.794  10.936 -0.0565  0.0380 -0.0691
21485W        W38332   4.143   3.519   2.574  0.0151 -0.3934  0.0361
21486W        W38333   6.174  11.319   5.728  0.1185 -0.1699 -0.0590
21487W        W38334  10.137   5.460  15.746 -0.1442  0.3386  0.0269
21488W        W38335  16.352  16.227   3.630 -0.0133  0.0613 -0.1715
21489W        W38336   9.345  15.782  14.989  0.0394 -0.1709  0.0949
21490W        W38337   0.968   1.922  14.172  0.2993  0.2037  0.2621
21491W        W38338   0.808  17.362   3.940 -0.0993 -0.0121 -0.1135
21492W        W38339  17.235   7.610  11.125  0.1269  0.3067  0.3515
21493W        W38340  14.182  18.315  15.968 -0.1767  0.0182 -0.1678
21494W        W38341   2.619   0.679   2.605  0.1198 -0.0035 -0.1029
21495W        W38342  13.584  15.101  15.408 -0.2604  0.0211 -0.1480
21496W        W38343  10.367   3.559   2.629 -0.0311  0.1639  0.1898
21497W        W38344   6.311  17.943   2.060 -0.0904 -0.0183 -0.0755
21498W        W38345   3.701   5.025  12.992 -0.0867 -0.3370  0.0184
21499W        W38346  14.890  14.211   1.400 -0.2004 -0.0660  0.0018
21500W        W38347  14.957   6.782  12.863  0.0465 -0.0588 -0.1519
21501W        W38348   7.881  10.541  12.337  0.1180 -0.1646  0.1737
21502W        W38349   7.555   6.284   1.731 -0.1388  0.0875  0.0077
21503W        W38350   9.968  10.818   4.737 -0.0429  0.3355 -0.0885
21504W        W38351  13.151   4.076   3.447 -0.3268  0.0587 -0.0216
21505W        W38352  13.088  11.321   3.342  0.3484 -0.1848  0.2452
21506W        W38353   8.203   1.008   5.054  0.4216 -0.0278  0.2311
21507W        W38354   3.816  12.311   5.144  0.3158  0.1591  0.0532
21508W        W38355   4.874   8.971   5.459 -0.0937  0.0161 -0.1120
21509W        W38356   6.419  17.711  11.819  0.2739 -0.1002  0.1846
21510W        W38357   6.107  15.904  12.842  0.0640  0.1885  0.1196
21511W        W38358  12.228   2.514  15.034  0.1052  0.1512  0.0448
21512W        W38359   2.837   7.611   4.514 -0.0978  0.0068 -0.0328
21513W        W38360  17.501   3.919   5.089 -0.0245 -0.2258  0.1880
21514W        W38361   2.306  13.434  15.668 -0.0761  0.2245  0.3291
21515W        W38362   7.731   6.926   2.937  0.3055  0.0686 -0.1658
21516W        W38363  17.202   0.613  12.499 -0.1828  0.1204  0.1915
21517W        W38364  13.108   9.898  11.229 -0.0378 -0.1302 -0.0690
21518W        W38365  13.988   2.354   2.705  0.2558 -0.3091  0.2451
21519W        W38366   9.602   1.096  13.242 -0.1504  0.2213 -0.0672
21520W        W38367  17.098  11.651  10.186 -0.0301  0.0434 -0.4056
21521W        W38368   5.975  11.677  14.538 -0.1330  0.2674  0.1006
21522W        W38369   5.816  14.940  15.309 -0.1682 -0.0906 -0.0642
21523W        W38370  13.205   6.299   5.500  0.0861 -0.1338 -0.2865
21524W        W38371  11.030  12.111   5.073 -0.1505 -0.1301 -0.1486
21525W        W38372   7.363   4.488  15.267  0.0755  0.3325  0.1043
21526W        W38373   5.312  11.502   3.485  0.0795  0.1246  0.1517
21527W        W38374  11.933  17.556   0.706  0.2389 -0.0563 -0.0470
21528W        W38375   1.287  10.026   5.347 -0.1524 -0.0528 -0.2565
21529W        W38376   2.556   4.778   2.418 -0.2673 -0.3897 -0.0118
21530W        W38377  13.928  12.422  12.684  0.0499  0.0791 -0.2894
21531W        W38378  17.222   9.480   1.475  0.4366  0.0127 -0.1517
21532W        W38379  16.269  12.544  11.996  0.1251  0.2638  0.2318
21533W        W38380  10.392   6.857   4.326 -0.1633 -0.1783 -0.2031
21534W        W38381   2.003  16.923   4.844 -0.1126  0.2615  0.0657
21535W        W38382  11.300  15.790  16.150 -0.1618  0.1899  0.0564
21536W        W38383  10.844   7.066  15.320 -0.1113 -0.2404  0.3069
21537W        W38384  11.937   1.430  11.174  0.0963  0.0869  0.2239
21538W        W38385   6.781  11.736  14.167  0.0656 -0.0163  0.0617
21539W        W38386  10.377   5.195   1.318  0.0823  0.1426 -0.1247
21540W        W38387  16.889   9.921  16.121 -0.3111 -0.2680 -0.1835
21541W        W38388   8.466   7.476  16.097 -0.1694 -0.0658  0.0623
21542W        W38389   8.896   3.597  13.478  0.4080  0.0413 -0.0705
21543W        W38390   6.692   6.574  12.500 -0.0068  0.2230  0.1742
21544W        W38391   6.565   3.527   4.868 -0.1240 -0.0952  0.1089
21545W        W38392   6.603  13.951   3.713 -0.2312  0.1889 -0.1840
21546W        W38393  12.978   1.897  11.323  0.1414 -0.0417  0.2273
21547W        W38394   7.664  18.126   1.331 -0.0511  0.1728 -0.0919
21548W        W38395   6.093   6.424   1.560 -0.1821  0.0926  0.0890
21549W        W38396   3.631   5.232   3.071 -0.2866 -0.1853 -0.1277
21550W        W38397   9.816   0.654  14.770 -0.0108  0.1359 -0.0103
21551W        W38398   1.988  10.214   4.383  0.1597  0.0064 -0.1824
21552W        W38399  14.115  12.279  13.702  0.0007  0.2987 -0.2518
21553W        W38400   8.948   3.212   5.566 -0.0303 -0.1362  0.1619
21554W        W38401  17.072  13.338   2.743 -0.3511 -0.0654  0.1503
21555W        W38402   8.350   3.000   4.754  0.0052  0.2577 -0.0995
21556W        W38403  17.247   5.879  10.855 -0.1211  0.0637  0.3175
21557W        W38404  16.304   1.825   4.637  0.0148  0.0371  0.0488
21558W        W38405  17.932   0.751  13.493 -0.2431  0.0245  0.2905
21559W        W38406  15.950  17.467  11.398  0.1006 -0.3029  0.0987
21560W        W38407  16.468  17.242   3.369 -0.1441  0.1805  0.0653
21561W        W38408  14.116   1.208  15.013  0.1635 -0.1852 -0.2489
21562W        W38409   0.611  11.937   2.414  0.0402  0.1529 -0.1212
21563W        W38410  10.700   6.558   3.447 -0.2273 -0.0064 -0.0235
21564W        W38411   6.746   7.084  15.537  0.0366  0.2383 -0.3152
21565W        W38412   2.346   0.462   4.581  0.2345  0.1892 -0.3292
21566W        W38413  15.801  10.756  14.355 -0.2242 -0.2374 -0.2480
21567W        W38414   7.318   2.290   6.324 -0.0461 -0.0780 -0.1333
21568W        W38415   5.798   8.822   5.303 -0.0644 -0.4234 -0.0569
21569W        W38416   8.831   2.323   5.824 -0.2616 -0.0050  0.0689
21570W        W38417  11.942   0.577   5.639 -0.0295 -0.0333  0.1523
21571W        W38418  14.660  12.415  15.381  0.3051  0.2224  0.0207
21572W        W38419   7.463  16.080   5.192  0.2197 -0.2375 -0.0740
21573W        W38420   9.866   7.637  12.402 -0.0530 -0.0583  0.1160
21574W        W38421   1.619  16.119   1.573 -0.0971  0.2751  0.1876
21575W        W38422  14.054   8.426   2.896 -0.0592  0.1836 -0.0738
21576W        W38423   2.410   3.430   2.048  0.2523 -0.2174  0.1292
21577W        W38424  15.160  12.000   0.293 -0.2203  0.1334 -0.2795
21578W        W38425   6.130  10.908  12.986  0.3536 -0.0282  0.1617
21579W        W38426   8.149  13.659  16.011  0.1805 -0.1156 -0.1596
21580W        W38427  10.636   8.323  12.209 -0.2096  0.1639  0.2167
21581W        W38428   7.596   5.942   1.341  0.2023  0.1086  0.0931
21582W        W38429   0.373  16.985   1.784 -0.0780  0.0481 -0.0450
21583W        W38430   5.286  16.420   4.042  0.0546 -0.2850 -0.0065
21584W        W38431  10.943   9.748  13.322 -0.4545 -0.1467 -0.2346
21585W        W38432   7.537   9.739   2.957  0.4354 -0.1361  0.0724
21586W        W38433  11.166  17.547  13.250  0.0388  0.1895  0.0815
21587W        W38434   0.147  18.105   2.291 -0.2877 -0.0204 -0.0059
21588W        W38435   1.629   2.951  13.051 -0.0102  0.0546  0.1127
21589W        W38436  13.224  17.167   0.362  0.3662 -0.0270 -0.1725
21590W        W38437  14.352   1.830   4.114 -0.0165  0.3285  0.0652
21591W        W38438  13.098  13.798   3.782  0.0981  0.2177  0.0049
21592W        W38439   4.235   4.601  11.157 -0.1734 -0.2714  0.0042
21593W        W38440  11.599  18.107   4.280  0.0117 -0.1168  0.1711
21594W        W38441   1.523   5.533   5.104 -0.4382 -0.0077  0.1191
21595W        W38442   4.405  15.051  12.680  0.0224  0.3120 -0.0057
21596W        W38443  15.563   7.774   0.062 -0.3856  0.3244  0.0780
21597W        W38444   5.735  10.847  16.159 -0.1134 -0.0946  0.1678
21598W        W38445   3.606  15.253   2.832 -0.1918 -0.0486 -0.1645
21599W        W38446  15.547  17.530  14.537 -0.1765  0.3596 -0.0263
21600W        W38447  11.363   9.090  12.273 -0.3908 -0.0311  0.0415
21601W        W38448   8.641  10.354   3.819  0.0372  0.0281  0.1142
21602W        W38449   1.837   1.711  13.861 -0.0743  0.0481 -0.0884
21603W        W38450   0.915   0.415   4.851  0.0291 -0.0876 -0.1105
21604W        W38451  13.175  10.356   3.377 -0.1986  0.1905  0.0472
21605W        W38452   0.277  10.269  11.679  0.0107  0.2822  0.0951
21606W        W38453  13.347   8.484  14.468  0.0334  0.1402 -0.0063
21607W        W38454  17.953   8.842   2.950 -0.4148 -0.2102 -0.2662
21608W        W38455  12.024  18.269  15.441 -0.1290 -0.0957  0.2236
21609W        W38456  14.400   2.105   5.291 -0.2478 -0.0705 -0.1246
21610W        W38457  11.435  16.802   3.694  0.3661 -0.0214 -0.0838
21611W        W38458   1.849  17.348   4.412  0.0597 -0.3820 -0.0798
21612W        W38459   2.864   7.943  15.964  0.0888 -0.3065  0.0310
21613W        W38460  17.524  13.348   5.053 -0.0440  0.3015  0.1297
21614W        W38461  13.835   9.760   0.491 -0.1158  0.1596  0.4109
21615W        W38462   5.632   4.479   2.066  0.2990  0.1435 -0.0424
21616W        W38463  17.023  16.236  11.168  0.1029 -0.1254  0.1551
21617W        W38464   5.817   6.718  11.580  0.0612  0.0893 -0.2445
21618W        W38465   4.527   8.675   0.157 -0.0357 -0.0299 -0.1539
21619W        W38466   6.955  17.694  12.408  0.1240  0.1728 -0.0959
21620W        W38467  11.131  13.061   1.555  0.0910 -0.0189 -0.0500
21621W        W38468  11.892  16.546  12.938  0.0580  0.0470 -0.0135
21622W        W38469   4.443   9.845  12.956  0.0707 -0.1388  0.0663
21623W        W38470  15.880  14.701   3.802 -0.0624  0.0077 -0.1690
21624W        W38471   2.955  15.113   3.571  0.2319  0.1526  0.1693
21625W        W38472   2.818  16.123   5.425 -0.1587 -0.2716 -0.0152
21626W        W38473   3.222   2.058  12.166  0.0995  0.2232  0.0831
21627W        W38474  16.208   9.222   2.524  0.1999  0.1424 -0.0661
21628W        W38475   5.901   5.785   4.580  0.3857 -0.4266 -0.0264
21629W        W38476   0.106  10.160   2.319  0.0362 -0.0685  0.1451
21630W        W38477  12.447  12.164   5.210  0.1306  0.1607 -0.1387
21631W        W38478  10.316   4.494   2.322  0.2583 -0.0935  0.0217
21632W        W38479  16.141   3.037  13.474 -0.3642  0.2271  0.1476
21633W        W38480  11.418  13.330   0.320  0.0372 -0.0553 -0.3407
21634W        W38481  16.487  15.842   3.951 -0.3265 -0.0740 -0.0093
21635W        W38482   3.765  15.190  13.993 -0.0265 -0.0042 -0.0367
21636W        W38483   8.420   7.153  14.132 -0.0002  0.0398 -0.1726
21637W        W38484  17.654   0.344  12.513  0.0906 -0.0768 -0.0005
21638W        W38485  10.527  16.378  13.478 -0.1205  0.0646  0.1452
21639W        W38486   6.320  10.842  15.511 -0.2725  0.0313 -0.1583
21640W        W38487   8.848  16.903   0.777  0.1031  0.0308 -0.2182
21641W        W38488   7.525   0.575   1.981 -0.1526  0.0458 -0.0333
21642W        W38489  17.463  16.106   3.215  0.0825  0.0840  0.2320
21643W        W38490  11.333  13.397  15.905  0.1771 -0.1158 -0.1971
21644W        W38491  14.962  15.061  15.427 -0.1093  0.0280  0.4330
21645W        W38492  16.733  10.047   0.949 -0.1063 -0.1823  0.0888
21646W        W38493   8.309  16.330   3.393 -0.1423 -0.2027 -0.1592
21647W        W38494  17.553  14.278   5.789 -0.0310 -0.0123  0.1470
21648W        W38495   8.604   2.295  13.654  0.0906  0.1590  0.1104
21649W        W38496   1.021   0.841  12.372  0.1579 -0.1309  0.0581
21650W        W38497  12.382  17.266  11.620 -0.1899  0.1176  0.4241
21651W        W38498   2.499   7.104  14.862 -0.0048  0.0922  0.0581
21652W        W38499  11.108  15.044   3.156  0.1184 -0.0615  0.2611
21653W        W38500  16.125  12.536   3.160 -0.2537 -0.1617 -0.2501
21654W        W38501  11.995   8.088   2.753 -0.0861 -0.0547 -0.1541
21655W        W38502   8.610  12.619  14.111 -0.2675  0.1800  0.1102
21656W        W38503   1.617  12.642  15.565  0.0641 -0.0200 -0.1381
21657W        W38504  15.197  15.274   3.510  0.0310 -0.0493  0.0261
21658W        W38505  12.097  16.159  15.878  0.1628 -0.0204 -0.1453
21659W        W38506  17.018   2.070  13.413  0.0933 -0.0471 -0.1942
21660W        W38507  11.213   2.053  14.319  0.0846  0.0493 -0.0533
21661W        W38508  14.386   9.676  14.627  0.0087 -0.1266  0.2144
21662W        W38509  12.240  17.970   0.615 -0.0161  0.0834 -0.3881
21663W        W38510  13.288  10.353  16.169 -0.0363 -0.3615 -0.1390
21664W        W38511   8.238  10.241   2.508 -0.0770  0.2583  0.3003
21665W        W38512  11.120  12.292  12.841 -0.1985  0.2493  0.0469
21666W        W38513   6.344   3.885   5.609  0.0355  0.0156  0.1327
21667W        W38514   0.591   6.437  13.772  0.1027 -0.0656 -0.3044
21668W        W38515  14.341  10.843  12.258  0.2050  0.3666 -0.2019
21669W        W38516   9.438  11.937   5.165  0.1314  0.0949 -0.0625
21670W        W38517   7.156  13.463   3.637  0.0373 -0.0402  0.0134
21671W        W38518  15.374  14.350  14.481 -0.1190 -0.1502 -0.0728
21672W        W38519  10.609  16.747  13.133 -0.1773 -0.1746 -0.2238
21673W        W38520  13.639   4.407  12.510 -0.0173 -0.1694 -0.3017
21674W        W38521   9.439   7.893   0.696  0.0057  0.2787 -0.0801
21675W        W38522  14.921  12.741  14.619  0.0343  0.2529 -0.5473
21676W        W38523  12.957  15.290   5.149  0.2057 -0.2091 -0.1995
21677W        W38524  10.857   4.513   5.397 -0.1156  0.1815  0.1133
21678W        W38525   4.711   9.440  12.006 -0.4181  0.1360 -0.5090
21679W        W38526  11.876  12.009   0.536  0.1197 -0.2777 -0.0337
21680W        W38527  11.082  14.976  12.913  0.0631  0.1557  0.0561
21681W        W38528  10.673   0.106   1.454 -0.0533  0.2211 -0.0056
21682W        W38529  10.614   9.753  12.537  0.0549 -0.4570 -0.0158
21683W        W38530  15.215   0.601  14.348  0.0399  0.1487  0.0453
21684W        W38531   8.045   3.415   4.829 -0.4120  0.0415  0.2554
21685W        W38532   2.037  17.509  11.969  0.1079  0.0481  0.2795
21686W        W38533   1.007  10.281  15.969  0.1585 -0.0778  0.0984
21687W        W38534  12.683   8.520  15.546 -0.1645  0.2236 -0.0028
21688W        W38535   0.895  11.430   3.221  0.1419 -0.1190  0.0503
21689W        W38536  12.056  18.306   1.463 -0.2170 -0.1503  0.2275
21690W        W38537   0.209   4.140   1.331  0.0006 -0.1431 -0.0560
21691W        W38538  10.890  18.266  15.726  0.0200 -0.1355  0.2520
21692W        W38539  17.385   4.824   3.295  0.1571  0.3224  0.1105
21693W        W38540   8.318   9.240   0.905 -0.2590  0.1388 -0.1119
21694W        W38541  13.376  16.587  12.973 -0.1481  0.0809 -0.0109
21695W        W38542   9.900   3.210  14.895  0.0339 -0.6046  0.0738
21696W        W38543  11.447   0.318   2.503  0.0071 -0.3739 -0.0094
21697W        W38544  14.281  13.117   3.329  0.0045  0.2152 -0.1982
21698W        W38545  12.524   2.443  10.383 -0.0552 -0.2714 -0.0281
21699W        W38546   4.313   0.814   0.183 -0.0768  0.2140 -0.2626
21700W        W38547   5.059   4.266   2.730 -0.0100 -0.3392 -0.0925
21701W        W38548  10.451  14.591   1.875 -0.0276 -0.1228  0.0906
21702W        W38549   4.439   4.405   1.671  0.0511 -0.0195 -0.2283
21703W        W38550   8.771   9.323  10.878 -0.1443  0.2303 -0.0490
21704W        W38551  12.859  10.546  14.450  0.2638  0.1956 -0.0341
21705W        W38552  10.112   2.585   2.555  0.0540 -0.1452  0.0832
21706W        W38553  12.250  11.419  12.915  0.0469  0.0847  0.1314
21707W        W38554  17.613  17.697  12.235 -0.0190  0.0081  0.3545
21708W        W38555  12.138   6.107  10.379 -0.0544  0.0225  0.1786
21709W        W38556   2.117   2.510  14.279  0.0207  0.1753  0.0292
21710W        W38557   7.408  16.173  14.130  0.3603  0.0822  0.0874
21711W        W38558   4.203  15.964   3.167  0.0665  0.0389 -0.1810
21712W        W38559   5.742  17.750   1.026 -0.3285 -0.1289  0.1565
21713W        W38560   5.804  12.777   5.233 -0.2306  0.1275 -0.1346
21714W        W38561  18.007   7.466   1.524  0.2002  0.2455  0.1356
21715W        W38562   1.770   6.306   5.013  0.3658 -0.0441  0.1148
21716W        W38563   0.691  17.674  15.023  0.2869  0.1055 -0.1281
21717W        W38564  17.139   2.045   2.804  0.2057 -0.1361 -0.2299
21718W        W38565  14.951   8.774  15.189 -0.0605 -0.0296 -0.1195
21719W        W38566  17.800   9.164   3.266 -0.0589 -0.0320 -0.4218
21720W        W38567  13.435  10.910  16.121  0.0573 -0.0509 -0.0320
21721W        W38568   8.314   1.873  15.242 -0.1082  0.1099 -0.1560
21722W        W38569   5.823   8.199   0.260 -0.0642  0.0981 -0.0055
21723W        W38570   8.973  18.054   4.094  0.1254  0.2572  0.0198
21724W        W38571  12.662   5.081  15.305 -0.0722  0.0763 -0.0810
21725W        W38572  17.849  15.881  13.271  0.1260 -0.0685 -0.2961
21726W        W38573   4.554   2.359  16.117  0.0029  0.3450  0.2056
21727W        W38574   8.009   9.362   1.678 -0.0281 -0.2221  0.1832
21728W        W38575  13.567   4.737  15.222 -0.0533  0.1264 -0.0328
21729W        W38576  10.491   1.303  13.162  0.1912 -0.3115 -0.2089
21730W        W38577  15.522  17.462  13.570 -0.1253 -0.0007  0.0250
21731W        W38578  15.744  11.890  11.049  0.2243  0.1640 -0.0179
21732W        W38579   1.692  10.968  12.665  0.0464 -0.0551 -0.1960
21733W        W38580  15.443  12.977   4.253  0.1021  0.3511 -0.1201
21734W        W38581   3.000  14.293   0.063 -0.1158 -0.0061 -0.1546
21735W        W38582  15.700  12.501  13.150  0.0016 -0.2339  0.0500
21736W        W38583   1.694   8.393  16.042  0.1068  0.0538 -0.0024
21737W        W38584   6.837   2.139  12.885 -0.3305  0.2246  0.0472
21738W        W38585  16.558   3.676  14.135 -0.1050 -0.1229 -0.4555
21739W        W38586   4.198   3.776   0.345  0.2147  0.1931  0.0277
21740W        W38587  11.961  11.199   2.519 -0.2770  0.0984 -0.0485
21741W        W38588  17.631   2.269   5.027  0.0724  0.3362  0.0438
21742W        W38589   8.530   4.493  14.576  0.2878  0.4389 -0.1102
21743W        W38590   4.078   4.082   1.837 -0.0799 -0.0060 -0.0006
21744W        W38591   6.779   7.025   0.534 -0.0852  0.2172  0.1439
21745W        W38592  11.742   0.205  14.610 -0.2255  0.1222 -0.2663
21746W        W38593   4.565  17.289   5.168 -0.4700  0.0402  0.1033
21747W        W38594   2.067  13.137  13.431 -0.0409 -0.3859 -0.0963
21748W        W38595  10.727   8.874  13.485  0.3602  0.0357 -0.1349
21749W        W38596  10.989   2.038  13.736 -0.0309 -0.0513 -0.0217
21750W        W38597   7.708   3.225   3.212 -0.1973  0.2190 -0.1972
21751W        W38598  14.990  12.966   1.104  0.1178  0.1384  0.2609
21752W        W38599  15.318   1.797   1.761 -0.2590 -0.0783  0.2059
21753W        W38600   0.740   8.832   2.180  0.1071 -0.0100  0.1676
21754W        W38601   4.233  16.656   1.130  0.0828  0.0332 -0.0238
21755W        W38602  10.399  10.193   4.342  0.0400  0.2755 -0.0671
21756W        W38603   5.330  16.929   1.270  0.1783  0.2235 -0.2574
21757W        W38604   1.470  14.847   1.801 -0.4737  0.0305  0.1566
21758W        W38605   1.286  13.202   5.496  0.1276 -0.0945  0.0794
21759W        W38606  14.393  10.722  11.784 -0.1464 -0.0286  0.0752
21760W        W38607   5.062   1.801  12.889 -0.0169 -0.2604  0.0943
21761W        W38608  11.843  17.224   3.052  0.0049  0.0165 -0.2813
21762W        W38609  14.869   0.588  12.108 -0.0184 -0.1295  0.1436
21763W        W38610   8.775   3.642   4.219  0.1823 -0.0575  0.2288
21764W        W38611   6.584  11.764   0.262  0.1576 -0.1711  0.2545
21765W        W38612   6.859  17.656   0.176 -0.1405 -0.0961 -0.1181
21766W        W38613  12.604   2.849   1.260 -0.2382 -0.0776  0.1136
21767W        W38614  11.881  17.259   1.084 -0.2505  0.3943 -0.1511
21768W        W38615   3.919   1.042  13.905 -0.2789  0.2590 -0.0161
21769W        W38616  10.256   3.390  15.812  0.0043 -0.2171  0.1213
21770W        W38617  12.490   2.029  11.675  0.0745  0.4499  0.0670
21771W        W38618  13.861  17.963  15.033  0.4303 -0.3052 -0.0112
21772W        W38619  16.731   7.315   1.621 -0.0938  0.1725 -0.1066
21773W        W38620   8.272   1.391  13.504  0.0396 -0.0866 -0.4623
21774W        W38621   5.490  10.586   5.381  0.1175 -0.1165 -0.1500
21775W        W38622  12.510   0.328  13.784  0.0584  0.1820  0.1947
21776W        W38623   3.179  16.957  12.217 -0.2024 -0.0792  0.3393
21777W        W38624  13.703  10.693  11.096 -0.0371 -0.0508 -0.0365
21778W        W38625  11.687  13.852   0.944 -0.3209 -0.2652 -0.1620
21779W        W38626  10.956  16.902  12.812 -0.0499 -0.5118  0.0968
21780W        W38627  17.324  11.672   1.135 -0.1578  0.1336  0.1091
21781W        W38628   2.223  11.903  14.100 -0.0624  0.0333 -0.1153
21782W        W38629   6.685  17.400   4.677 -0.0001 -0.1811  0.0170
21783W        W38630  15.728   5.625  12.924 -0.0680 -0.3114  0.4148
21784W        W38631  16.441   7.708   0.295  0.0893  0.2892  0.0378
21785W        W38632   5.794   5.702   2.472 -0.1703  0.0843  0.0263
21786W        W38633   4.886   1.575  11.565 -0.3039 -0.2216  0.1817
21787W        W38634  10.786  13.879   1.475 -0.0750 -0.0097  0.3482
21788W        W38635   1.640   9.560  15.164 -0.3384  0.1305 -0.1257
21789W        W38636   8.797   0.836   3.666 -0.0278  0.5177  0.1559
21790W        W38637   5.915   1.114   1.974  0.3761 -0.2914 -0.1106
21791W        W38638  10.211   3.266   3.074  0.0272  0.0656  0.2506
21792W        W38639  16.208   3.866   1.696 -0.1378 -0.0598  0.1566
21793W        W38640   6.345  17.200  15.828 -0.1471  0.2985  0.1337
21794W        W38641   4.819   5.256  11.302 -0.1059 -0.1118 -0.0837
21795W        W38642   8.927  17.442  13.109 -0.1618 -0.5901 -0.0576
21796W        W38643  16.237  16.970  13.307  0.0569 -0.0932 -0.0197
21797W        W38644  14.360   2.558   2.335 -0.1868 -0.0008 -0.0012
21798W        W38645   2.386   9.814  13.262  0.1160 -0.0087  0.1363
21799W        W38646   1.650   8.585   2.450 -0.1569 -0.0870  0.1096
21800W        W38647  15.184  16.436   4.504 -0.5030 -0.1180  0.2297
21801W        W38648   9.282   8.421   0.518 -0.1437  0.0336 -0.0735
21802W        W38649   1.590  10.057  11.874 -0.1024 -0.2652 -0.2630
21803W        W38650   8.253   0.452   4.513 -0.1888  0.0692  0.0209
21804W        W38651  13.300  13.291  15.347 -0.0878 -0.1512 -0.0756
21805W        W38652   6.153  12.113  11.382 -0.2511  0.0426  0.2714
21806W        W38653  12.259   7.079   3.382 -0.2682 -0.3968 -0.2797
21807W        W38654  17.187   2.363   4.184  0.2310 -0.0243  0.2432
21808W        W38655   2.380  13.547   1.050  0.0869  0.2046  0.0175
21809W        W38656  15.986  13.872  16.090  0.1271  0.3738 -0.3290
21810W        W38657  15.001   0.977  12.923 -0.2936  0.2084  0.3872
21811W        W38658   3.228   9.576   4.614 -0.0804  0.0851  0.1809
21812W        W38659   2.766   9.443   3.063 -0.1830  0.1798  0.2022
21813W        W38660   5.038  14.953   5.023 -0.2085  0.0491  0.1606
21814W        W38661  15.606   4.821   1.209 -0.1070  0.2371  0.0942
21815W        W38662   4.131  14.440   6.029 -0.1699 -0.0257  0.1148
21816W        W38663  11.106   1.625   0.441  0.2822  0.0112 -0.1717
21817W        W38664  10.289  13.292  13.218 -0.1106 -0.1153 -0.0669
21818W        W38665   0.375   3.459   5.539  0.0981  0.1611  0.2874
21819W        W38666   7.796   5.597   1.609 -0.1066  0.2822 -0.1026
21820W        W38667   3.770  17.700   4.744  0.1527  0.0560 -0.1458
21821W        W38668  16.134   3.600  11.350 -0.1377 -0.0992  0.2987
21822W        W38669  16.585   9.593   4.546  0.2873 -0.1715 -0.2095
21823W        W38670   5.784   9.428  15.607  0.4361  0.0351 -0.0314
21824W        W38671   7.923  16.086   2.023  0.0972  0.2772 -0.1014
21825W        W38672  17.802   1.977   4.573 -0.0383 -0.0626  0.1429
21826W        W38673  10.773  14.000  14.893 -0.1624  0.2003  0.1828
21827W        W38674  11.118  14.383  12.100  0.0311  0.1008  0.2478
21828W        W38675  13.244   1.527  15.270  0.1478  0.1660  0.1177
21829W        W38676   0.935   1.377   4.989  0.2541 -0.2220 -0.0590
21830W        W38677   5.630   6.756   1.888 -0.2911  0.2134  0.3566
21831W        W38678   4.167  16.808  13.368  0.1142  0.2535  0.0274
21832W        W38679   8.017   4.526   3.900  0.0217  0.3580  0.0576
21833W        W38680   9.588   1.928   0.566  0.0242 -0.3684  0.1877
21834W        W38681   4.318   7.045   0.897 -0.1398 -0.1602 -0.2516
21835W        W38682   5.200  16.770  11.514 -0.1373 -0.0966 -0.1350
21836W        W38683   0.791  11.150   2.792 -0.0972  0.0717 -0.1656
21837W        W38684  11.031  14.810   1.511  0.0320  0.2303  0.0632
21838W        W38685   5.743   9.809   3.818  0.0198 -0.1629  0.0088
21839W        W38686   6.759   7.403   4.238 -0.1487 -0.0526  0.1312
21840W        W38687   4.939   2.471  11.583 -0.3220 -0.0249 -0.3901
21841W        W38688  14.624  17.045  16.067  0.0750  0.1868  0.0140
21842W        W38689   7.802   6.012   5.046 -0.1056 -0.1207  0.2378
21843W        W38690   6.730  16.789   2.896  0.0715 -0.0571 -0.5739
21844W        W38691   4.826  17.565  11.700  0.1314 -0.0530  0.1638
21845W        W38692   8.529   1.803  13.704  0.3260 -0.1125 -0.1030
21846W        W38693   0.711   5.312   2.612  0.2788 -0.3820 -0.0744
21847W        W38694   1.702   6.011  11.197 -0.0370 -0.0332 -0.0280
21848W        W38695  13.853  10.278  15.467  0.0070 -0.0004 -0.0867
21849W        W38696  14.412   5.926   1.087 -0.1259  0.0992 -0.0909
21850W        W38697  13.051  16.067  13.799  0.0356 -0.2148 -0.0155
21851W        W38698  17.953   1.878   0.788  0.2077  0.1147  0.1157
21852W        W38699  10.397   9.608  11.608 -0.0278  0.4172 -0.1012
21853W        W38700  14.196  10.065  11.622 -0.1566  0.0912 -0.0348
21854W        W38701   0.077   6.971  12.166  0.0758 -0.1799 -0.1369
21855W        W38702   9.614   9.648  12.081  0.0586 -0.4032 -0.2722
21856W        W38703  15.233   7.269  13.118  0.0312 -0.0834 -0.1861
21857W        W38704  12.010   7.251   2.504  0.0498  0.1269  0.1478
21858W        W38705  16.040   9.370  12.667  0.0337 -0.0327  0.0200
21859W        W38706   6.672  15.524   4.788  0.1619 -0.2324 -0.3333
21860W        W38707  17.510   0.117  14.288  0.0060 -0.0342  0.1139
21861W        W38708   4.789   0.754   2.513 -0.0646 -0.1517 -0.0627
21862W        W38709  13.458  12.450   1.928 -0.0302  0.0972  0.0922
21863W        W38710  11.870  10.196   1.550 -0.0958  0.1420  0.0321
21864W        W38711  11.387   3.111   2.027  0.1712 -0.0419 -0.0065
21865W        W38712  15.647  10.673   3.296 -0.0982 -0.0914  0.0073
21866W        W38713   7.866  10.383   0.286  0.0915  0.1114  0.2141
21867W        W38714   4.486  16.926   1.453  0.0242  0.2587 -0.0535
21868W        W38715  14.561   1.196  13.832  0.0097 -0.1561  0.1073
21869W        W38716   6.978   9.145   2.952  0.2668 -0.0046 -0.0144
21870W        W38717   2.005   8.247  14.592 -0.1553 -0.1524  0.2732
21871W        W38718   1.760   4.221   0.065  0.1566 -0.1602 -0.0464
21872W        W38719  15.152   4.661   0.405  0.0254 -0.1055 -0.0878
21873W        W38720   4.032   6.647   3.631 -0.2347 -0.2403  0.1221
21874W        W38721   8.026   5.364  13.858  0.0058 -0.1939  0.3328
21875W        W38722   1.383   6.972   3.646 -0.1920 -0.1300  0.2601
21876W        W38723  14.232  13.848  11.852  0.1241  0.0983 -0.0931
21877W        W38724   0.266  14.645   5.186 -0.0365  0.1726 -0.0573
21878W        W38725   4.328  12.210   1.270  0.0267  0.1834 -0.1021
21879W        W38726  11.191  13.779  12.524  0.2545 -0.0135  0.0116
21880W        W38727   1.817   2.886   3.908 -0.1354  0.1829  0.1384
21881W        W38728  15.054   9.076   4.855  0.0773  0.3701  0.1450
21882W        W38729   8.049   8.564  14.334  0.1863  0.1869 -0.0070
21883W        W38730  16.421   5.267   1.374  0.1417 -0.1835 -0.0640
21884W        W38731  15.863   2.478  11.407 -0.0351  0.0413  0.1883
21885W        W38732   0.531   3.459   4.348  0.0320  0.0473  0.1675
21886W        W38733  11.088   7.234   3.888  0.2078  0.2798  0.0388
21887W        W38734   1.399   7.838  12.691 -0.1412 -0.0232  0.0086
21888W        W38735  10.200  12.227  13.784 -0.1231  0.3328 -0.1199
21889W        W38736   8.372  14.127   1.397 -0.2051  0.1384 -0.3002
21890W        W38737   0.332  17.837  13.301 -0.0230 -0.1079  0.0316
21891W        W38738  14.752   5.334  12.451 -0.0857 -0.0564  0.2586
21892W        W38739   2.748   0.352   2.051 -0.1457 -0.0779  0.1500
21893W        W38740   5.920   2.025   5.278 -0.3026  0.0063 -0.2647
21894W        W38741   0.868   8.568   6.110  0.0640  0.0514 -0.0819
21895W        W38742   5.501  16.208  12.382 -0.2316 -0.1501  0.0938
21896W        W38743   1.990  16.597   3.356  0.2827  0.1628 -0.0378
21897W        W38744  17.226  12.161   1.463  0.0879 -0.1639  0.0621
21898W        W38745  13.359   1.339   0.929  0.1894  0.2319  0.0056
21899W        W38746   7.285  10.262  13.791 -0.1219  0.0110 -0.0540
21900W        W38747   6.034   3.536   2.763  0.2575  0.0325  0.0148
21901W        W38748   8.537   0.746   4.829 -0.1519 -0.1806  0.2237
21902W        W38749   7.350  13.882  12.353 -0.0105  0.0461  0.1557
21903W        W38750   5.798  16.020   2.083  0.3931  0.0282  0.2120
21904W        W38751   3.133  12.626   1.590  0.2518 -0.0512 -0.2401
21905W        W38752   8.313   8.316   0.431  0.2180 -0.3124 -0.1699
21906W        W38753  16.044   5.760   0.821  0.2530  0.0606  0.2299
21907W        W38754  10.254   4.050   2.559  0.1900 -0.0001 -0.1244
21908W        W38755   7.667   5.245  11.282  0.0600  0.0638  0.0886
21909W        W38756   5.355   6.020  15.854  0.0713 -0.1199 -0.0400
21910W        W38757   4.515  12.014   3.648  0.0054 -0.3454 -0.3567
21911W        W38758   6.101   8.196  12.377  0.1654 -0.0082 -0.0597
21912W        W38759  10.135  10.749  12.502  0.1844 -0.1630 -0.1287
21913W        W38760   5.131   3.423   3.411  0.1289 -0.0616 -0.1363
21914W        W38761   0.461  10.169   0.506  0.0051  0.0912 -0.2041
21915W        W38762  17.552  18.002   4.961 -0.0009  0.2662 -0.0400
21916W        W38763   2.061  12.693   2.426  0.1124 -0.1673 -0.2288
21917W        W38764   7.393   2.566   1.791 -0.0362 -0.0933  0.1631
21918W        W38765   6.888   7.143  13.221 -0.1787  0.1412  0.2155
21919W        W38766  12.525  16.068   0.883 -0.3425 -0.4398  0.0060
21920W        W38767   6.220  17.334   4.741  0.0985  0.1285  0.0526
21921W        W38768   6.858  14.111  12.589 -0.1733  0.0550  0.1516
21922W        W38769   0.453  16.570  12.576 -0.1923  0.1082 -0.2501
21923W        W38770  16.534  14.351  12.325  0.2019 -0.1798 -0.1149
21924W        W38771  10.122   3.708  11.761  0.2116 -0.0186  0.2137
21925W        W38772   6.453   4.747   0.576  0.1947 -0.1717  0.0879
21926W        W38773   4.916  15.177   1.490  0.3770  0.2963 -0.0188
21927W        W38774  10.155   7.220   1.560 -0.0419 -0.2038 -0.1297
21928W        W38775  13.364   5.811   4.796  0.1233  0.0673 -0.0121
21929W        W38776  10.765   4.557   2.015 -0.1105 -0.0700 -0.0685
21930W        W38777  17.331   3.259   4.134 -0.3361 -0.2223  0.0306
21931W        W38778  14.660  13.043   5.152  0.1960  0.0048 -0.1743
21932W        W38779  14.104  13.306  12.099 -0.1863  0.0969 -0.1326
21933W        W38780   9.158   3.799   0.724 -0.3696 -0.0973  0.1646
21934W        W38781   3.374   7.951  12.072 -0.1547  0.1700 -0.0117
21935W        W38782  14.823   7.484   0.524 -0.0214 -0.1287  0.1486
21936W        W38783   8.243   8.727  15.015 -0.0763  0.0155  0.0783
21937W        W38784  12.444   7.526  12.132 -0.0584 -0.0289 -0.5096
21938W        W38785  16.549   5.444  13.638 -0.0015  0.0306 -0.0027
21939W        W38786   2.390   8.967   5.551  0.0714  0.1106  0.0358
21940W        W38787  17.824  12.254   0.765 -0.1942  0.1316  0.1061
21941W        W38788   9.460  10.217   5.296  0.1314  0.1957  0.2802
21942W        W38789   4.001  17.805  15.825  0.1221 -0.2295 -0.0980
21943W        W38790  15.528   5.302   3.802 -0.2235 -0.0155 -0.0372
21944W        W38791   9.583  10.548   2.580 -0.2704  0.0793  0.1124
21945W        W38792   6.226  11.890   0.922  0.0446  0.1692  0.0389
21946W        W38793   0.178  14.097  15.736 -0.0712  0.0267 -0.1418
21947W        W38794   0.029   3.537  12.563 -0.0482 -0.1465  0.0376
21948W        W38795  15.671  11.912  11.550  0.0321  0.5612  0.0173
21949W        W38796   5.044  14.410   4.145 -0.0140  0.0175 -0.2340
21950W        W38797  12.010   0.172   2.765 -0.0965  0.1091  0.0025
21951W        W38798  15.170  14.608  15.569  0.0293 -0.0902  0.0698
21952W        W38799   6.353   0.164  14.675  0.0876  0.0638  0.0219
21953W        W38800   8.178  18.045  14.751 -0.0783 -0.0734  0.1553
21954W        W38801  11.830  13.206   4.797 -0.1267 -0.1043 -0.1408
21955W        W38802  17.638   2.032   1.141  0.1621 -0.3157  0.1151
21956W        W38803  14.139  17.008  14.191 -0.0910 -0.1902  0.1625
21957W        W38804   3.012  14.491  15.615  0.0221  0.1594  0.0690
21958W        W38805  15.915   0.535  12.660 -0.1007 -0.1132 -0.1547
21959W        W38806  16.060   6.650  13.898 -0.0751 -0.0823 -0.1176
21960W        W38807  17.479   2.815   4.396  0.0784  0.0179 -0.2940
21961W        W38808   8.592  11.222  15.802  0.3332  0.1954  0.2469
21962W        W38809  10.159   9.453  12.056  0.0517 -0.1214 -0.2351
21963W        W38810   2.938  16.763  16.176  0.1464  0.0423  0.0366
21964W        W38811  11.992   9.606   1.371  0.0551  0.0113 -0.0036
21965W        W38812  12.961   7.589   0.608 -0.0830 -0.0398 -0.2680
21966W        W38813   8.568   6.587  12.939  0.4050 -0.0311  0.0646
21967W        W38814   9.198  16.401  13.755 -0.1702 -0.1168  0.2437
21968W        W38815  17.310   0.624  15.838 -0.1010 -0.1309  0.0691
21969W        W38816  14.215   1.002  13.505 -0.2807 -0.2970  0.0621
21970W        W38817   4.593   9.132  14.200 -0.2989  0.0817  0.0478
21971W        W38818  11.766   4.795   0.021  0.2631 -0.0655  0.1671
21972W        W38819  10.018   5.551  12.591  0.0666 -0.0821  0.0865
21973W        W38820   4.895  12.836   3.575 -0.3355  0.1480  0.0356
21974W        W38821   8.969  18.171  15.774 -0.2181  0.1997  0.2593
21975W        W38822  10.809  14.455   3.886  0.2242  0.0893 -0.1065
21976W        W38823   1.320   1.357  13.279 -0.2653 -0.4562  0.1944
21977W        W38824  11.952  15.977   0.671 -0.1099 -0.0508 -0.2123
21978W        W38825  13.708  13.991  15.247 -0.0666 -0.1440  0.2885
21979W        W38826   5.466  17.372  16.036 -0.0415  0.1208  0.1455
21980W        W38827   6.899  14.683   4.630  0.0987 -0.0995 -0.0798
21981W        W38828   8.796  16.381   2.093 -0.2387  0.1843 -0.1390
21982W        W38829  14.548  17.896  11.741 -0.0911  0.0040 -0.1854
21983W        W38830   9.039   9.629  15.017  0.0003 -0.1400 -0.2007
21984W        W38831   4.498  11.122   3.227  0.1527  0.0262  0.1406
21985W        W38832  12.505  17.416  14.668 -0.0876  0.0866 -0.0754
21986W        W38833   0.131  10.927  15.086  0.0960 -0.2126 -0.0054
21987W        W38834  13.315   3.314  13.238 -0.1992  0.1320 -0.1350
21988W        W38835   0.697   4.005   2.259  0.0611  0.2317 -0.2275
21989W        W38836   7.277   2.375  15.026  0.1492 -0.2151 -0.4237
21990W        W38837  15.278  11.816  15.953  0.0781  0.0759 -0.1238
21991W        W38838   5.296  15.765   3.644 -0.1288 -0.1450 -0.2247
21992W        W38839   7.479   5.527  13.804 -0.2354 -0.1875  0.0339
21993W        W38840  14.863  10.023   5.462 -0.0851 -0.0587  0.1823
21994W        W38841   6.629  11.502   4.907 -0.1410 -0.0480  0.0300
21995W        W38842  18.103   0.174  12.407 -0.0276  0.1263  0.1906
21996W        W38843  14.670  13.949   1.040 -0.1967  0.1024  0.0210
21997W        W38844   6.644   6.338   4.687 -0.1061 -0.0402 -0.1355
21998W        W38845   2.273   8.684   0.992 -0.1264 -0.1853  0.0197
21999W        W38846   9.809  15.488  14.971 -0.0148  0.0232  0.1615
22000W        W38847  11.201   5.439  15.589 -0.1094 -0.2692  0.2035
22001W        W38848  17.528   9.289   4.692  0.1074  0.0345  0.2162
22002W        W38849   1.878   0.201   1.782 -0.1592  0.1293 -0.0531
22003W        W38850  10.918   4.356  10.275  0.0718 -0.4888 -0.1236
22004W        W38851  13.717  11.006   4.105  0.0801 -0.1646  0.1732
22005W        W38852  13.153   1.154  13.574 -0.1547  0.0129  0.2452
22006W        W38853  17.545  16.093  14.040  0.0918  0.1562 -0.3122
22007W        W38854   7.789   8.454  14.757 -0.0132  0.0769  0.0619
22008W        W38855  14.742   1.036  11.873  0.0283  0.0224  0.0165
22009W        W38856   1.834  11.068  14.840  0.1085  0.2836 -0.1568
22010W        W38857   2.270   0.835   3.370 -0.3465 -0.0123 -0.2152
22011W        W38858  13.444  10.788   4.595  0.0709  0.2468  0.0801
22012W        W38859   4.514  16.427  13.579  0.0121 -0.1139 -0.0067
22013W        W38860  12.147   6.419  13.485 -0.0781  0.2426  0.0724
22014W        W38861  13.991  15.594   0.211 -0.0794 -0.2554  0.1833
22015W        W38862   2.268   5.459   1.228 -0.1235 -0.1928 -0.1958
22016W        W38863  17.297   0.310  12.120  0.0650  0.0879 -0.0450
22017W        W38864   8.189   5.240   0.873  0.1452  0.0972 -0.0603
22018W        W38865   9.339   0.737  14.526 -0.1886  0.2136  0.3748
22019W        W38866   9.492  12.529   0.876  0.1420  0.1278  0.2411
22020W        W38867  17.746  17.157   2.722 -0.0225 -0.1581 -0.1576
22021W        W38868   6.310  17.176  12.606  0.1244  0.1747 -0.2785
22022W        W38869  13.513   2.497   1.249  0.0180 -0.5015 -0.1606
22023W        W38870   1.080  16.869   2.749  0.2088  0.1421  0.0498
22024W        W38871  10.231  11.510   0.530  0.3208  0.1770  0.0947
22025W        W38872   0.872   6.598  14.684 -0.0967 -0.1684  0.2989
22026W        W38873   0.740  16.739   5.227  0.2146 -0.1328  0.1117
22027W        W38874   0.301   3.931  12.374  0.0014  0.0836  0.1904
22028W        W38875   7.509   5.985  14.042 -0.0547 -0.4568 -0.0788
22029W        W38876   6.732   8.103   1.599  0.0023 -0.1465  0.1646
22030W        W38877  13.871  15.813  13.830 -0.1549 -0.0251  0.1551
22031W        W38878   3.383  16.680  15.406 -0.1726 -0.2487  0.0312
22032W        W38879  10.190   8.573  12.194 -0.0128 -0.1046 -0.1907
22033W        W38880   3.255   1.630   5.161 -0.1679  0.1423 -0.1844
22034W        W38881   8.855  11.894  15.147  0.0659 -0.0100 -0.2519
22035W        W38882   9.317   3.585  13.791 -0.2014  0.2331  0.1769
22036W        W38883   7.289   8.224  15.791  0.0005 -0.1439  0.0188
22037W        W38884  14.202   7.853  16.086 -0.0194  0.0889 -0.1859
22038W        W38885   0.867  17.819  12.414 -0.0115 -0.2394  0.0728
22039W        W38886  12.026   5.682  15.916 -0.3049  0.1380 -0.1953
22040W        W38887   7.010   0.080   2.579  0.1035 -0.2262  0.0502
22041W        W38888   5.692  14.636  12.878 -0.1372  0.0723 -0.1151
22042W        W38889  15.600  10.542   5.883  0.0600 -0.1235  0.0986
22043W        W38890   5.057   4.343  13.629 -0.1138 -0.1772 -0.1201
22044W        W38891  10.291  14.057   2.700 -0.0196 -0.1246  0.3922
22045W        W38892   1.635  10.884   0.223  0.0284 -0.2368  0.0093
22046W        W38893  10.404   1.548   0.998  0.0869 -0.0707 -0.1713
22047W        W38894   3.770   6.589  15.369  0.1199 -0.1323 -0.0157
22048W        W38895  12.051   4.626   1.676 -0.1381 -0.0903 -0.1322
22049W        W38896   3.063   5.617  14.264 -0.1816 -0.2565  0.1315
22050W        W38897  15.295   0.863  11.218 -0.0969  0.3982 -0.0668
22051W        W38898  10.695  15.906   0.798 -0.0954 -0.0284 -0.0235
22052W        W38899  12.071  18.156  14.980  0.0830  0.1231  0.2454
22053W        W38900   1.730   9.156  15.472  0.1311 -0.1188 -0.0646
22054W        W38901   4.577   9.908   2.514 -0.2274 -0.1011 -0.2031
22055W        W38902   0.095   9.503   4.320 -0.4746  0.1412 -0.0409
22056W        W38903   6.695  15.212  14.932 -0.0289  0.5454 -0.0647
22057W        W38904   3.472   8.955  11.952 -0.2786  0.0357  0.2312
22058W        W38905  18.235   2.297   3.285 -0.2156 -0.4766  0.5952
22059W        W38906  11.660  16.896  13.163  0.0961  0.1625  0.1874
22060W        W38907  13.979  10.039  14.503  0.3738  0.4095 -0.1565
22061W        W38908   8.197  10.476   4.938  0.1131 -0.0031  0.1602
22062W        W38909   5.300   9.336   2.389  0.1204 -0.1221 -0.1621
22063W        W38910   1.769  16.868  12.738 -0.2941  0.0972 -0.0053
22064W        W38911   8.313   6.822   5.352 -0.0970 -0.0978  0.2261
22065W        W38912  14.797   5.228  14.832  0.0943  0.0252 -0.4219
22066W        W38913   1.352  11.309  14.524 -0.2956 -0.2667  0.0499
22067W        W38914   5.066   2.480  12.718 -0.0810 -0.2847  0.0512
22068W        W38915  11.343   6.401  15.269 -0.3478  0.0922  0.2363
22069W        W38916   7.363  11.269   2.229  0.0133 -0.1056 -0.0928
22070W        W38917   5.063   2.842   5.443 -0.0044  0.0008  0.0792
22071W        W38918   8.843   1.117   4.482  0.1051 -0.2093  0.0995
22072W        W38919  10.791   3.886   0.028  0.1853 -0.3185 -0.1470
22073W        W38920  10.896  18.302  13.066  0.0923 -0.1279  0.1208
22074W        W38921  15.769  14.063   3.277 -0.2532  0.0473 -0.0368
22075W        W38922  10.024   4.169   5.791  0.0009 -0.1568 -0.0521
22076W        W38923  13.237  10.436   1.233 -0.1093 -0.1632 -0.0975
22077W        W38924   6.301  16.829   5.221 -0.0404 -0.0515 -0.3010
22078W        W38925  11.079   5.229  12.371  0.1314 -0.0320 -0.1029
22079W        W38926  11.785   0.553  11.452 -0.0107  0.0906  0.0267
22080W        W38927   6.536   3.738   3.966 -0.0421 -0.1228  0.1965
22081W        W38928  17.851   2.028  11.378 -0.5466 -0.1297 -0.1747
22082W        W38929  11.295   6.999  12.219  0.0405 -0.0198  0.2534
22083W        W38930   2.628  14.563   5.727 -0.2091 -0.2432  0.0342
22084W        W38931  17.561  10.069  14.686  0.1607  0.0513  0.1082
22085W        W38932  17.490   3.795   9.909 -0.0332 -0.1248 -0.2444
22086W        W38933   3.198  14.721  12.033  0.1691  0.0993 -0.0593
22087W        W38934   3.050  16.479   1.869 -0.0824  0.1410  0.1733
22088W        W38935   7.196   5.024  15.454 -0.0526 -0.2775 -0.0864
22089W        W38936   3.590  13.741   5.297 -0.2570  0.0223  0.0462
22090W        W38937  13.745   7.931  15.749  0.2599  0.1125  0.0927
22091W        W38938   4.289   2.120   2.555  0.2651 -0.3423 -0.3306
22092W        W38939   6.575  11.756  13.559 -0.1226  0.1054 -0.0779
22093W        W38940   2.530  16.892  14.303 -0.1284  0.0887  0.1364
22094W        W38941   2.853  11.780  13.092  0.1405  0.1118  0.1158
22095W        W38942  11.720   6.337  10.555  0.1276 -0.0027  0.0796
22096W        W38943   5.324   5.979   3.249  0.2354 -0.1858  0.2440
22097W        W38944  12.998   6.710   9.742  0.2694  0.2573  0.1555
22098W        W38945   3.810   0.334   1.062  0.0529 -0.1760  0.0572
22099W        W38946   1.710  16.009  12.293 -0.3436  0.1327 -0.1929
22100W        W38947  10.107  14.934  11.067 -0.2659 -0.2479  0.0627
22101W        W38948   0.434   6.683  13.326 -0.0294 -0.3196 -0.0781
22102W        W38949   6.059   8.958   1.793 -0.0578  0.0292 -0.2458
22103W        W38950  12.122  17.777   1.619  0.1357 -0.1280  0.1566
22104W        W38951  11.410  16.282   0.077 -0.0121 -0.0457  0.2424
22105W        W38952  16.112   9.315  11.084 -0.3109 -0.2369  0.1059
22106W        W38953  14.831   9.797  13.733  0.1458 -0.0018  0.0588
22107W        W38954   2.291   5.306   0.229  0.1357  0.3147  0.3925
22108W        W38955  15.645  15.657   1.637 -0.2025 -0.0248 -0.0167
22109W        W38956  13.184  17.683  11.628  0.2314  0.6174 -0.1772
22110W        W38957   7.191   6.866  14.970 -0.2386 -0.1826 -0.1280
22111W        W38958   6.829  17.165   0.332  0.1937  0.0515  0.0982
22112W        W38959   3.237   7.618   3.724  0.0598  0.0957 -0.1430
22113W        W38960   7.202   2.549   0.887  0.1690 -0.0220  0.1272
22114W        W38961  11.971   1.683   4.587 -0.2525 -0.2164  0.0354
22115W        W38962  16.516  15.187   1.577 -0.2712 -0.2846 -0.1402
22116W        W38963   2.856   1.312  11.792  0.2769 -0.1127 -0.2843
22117W        W38964   9.358  11.991  15.217  0.2004 -0.2077  0.0464
22118W        W38965   2.330   4.192   1.294 -0.1006  0.2841  0.0086
22119W        W38966   0.175  11.968  15.833 -0.0091 -0.1185 -0.3009
22120W        W38967  17.831  15.942  15.719  0.1338  0.0615  0.3147
22121W        W38968  12.924  15.428   3.293 -0.0507 -0.2636  0.0827
22122W        W38969   1.396  16.485  13.581  0.1189 -0.4333 -0.2142
22123W        W38970   6.854  14.638   1.080  0.0984  0.2219 -0.1805
22124W        W38971   9.163   4.088   0.336  0.0421  0.1534 -0.0142
22125W        W38972   6.345  14.048   2.154 -0.0289 -0.0050  0.2279
22126W        W38973  11.744  14.204   1.810 -0.0463  0.0106  0.1363
22127W        W38974  14.867   2.063  11.225 -0.0264 -0.1570 -0.0623
22128W        W38975   7.226  11.724   6.344 -0.4387 -0.1383  0.2285
22129W        W38976  13.440  12.528   4.553  0.1896  0.1862 -0.1799
22130W        W38977   5.858   1.146  14.226  0.2064 -0.2247 -0.1219
22131W        W38978  15.561  11.035  16.128 -0.0374  0.4220  0.0237
22132W        W38979  14.177  18.223   2.288  0.1258 -0.0737 -0.3954
22133W        W38980  13.442   8.882  13.632  0.2319  0.1413 -0.2424
22134W        W38981  16.074   4.397   0.947  0.3718 -0.2851 -0.2125
22135W        W38982  15.697   4.906  11.934 -0.0766  0.0053  0.3087
22136W        W38983   9.430  13.582  13.564 -0.0009 -0.0654  0.1359
22137W        W38984   2.007   1.700   4.188  0.1620 -0.0305 -0.1702
22138W        W38985  13.019   2.707  12.153 -0.1611  0.1013 -0.0508
22139W        W38986   4.445   0.962  12.952  0.1909 -0.0519 -0.1294
22140W        W38987  18.182   5.318   1.189 -0.1537 -0.0478 -0.1287
22141W        W38988  17.375   4.439  10.976 -0.3272 -0.0694 -0.3030
22142W        W38989   1.571  10.479   0.541  0.0947 -0.2741  0.2019
22143W        W38990   3.145   9.753   2.972 -0.0234 -0.0077 -0.2158
22144W        W38991   1.749   9.131  12.762 -0.2070 -0.1454  0.1214
22145W        W38992   1.009  17.050   3.515  0.0334  0.0323 -0.0644
22146W        W38993  10.855  17.179  13.267 -0.0091 -0.5601 -0.0600
22147W        W38994   0.217   1.772  14.151  0.0038  0.0375 -0.2366
22148W        W38995   8.738   1.182   3.963 -0.0188  0.0475  0.1594
22149W        W38996  14.313   8.966   0.797  0.0699 -0.1470 -0.4387
22150W        W38997   0.074  11.414   5.223 -0.0686  0.1201 -0.1494
22151W        W38998  17.527   1.016  11.631 -0.2877  0.0425 -0.0470
22152W        W38999   0.401   6.216   0.262 -0.1770  0.2740  0.1003
22153W        W39000  11.528  16.283   2.501 -0.2155  0.1198  0.0394
22154W        W39001   8.969  13.130  14.553  0.2054  0.0279 -0.0732
22155W        W39002   7.094  11.469   4.468  0.0051  0.0026 -0.1432
22156W        W39003  14.526   0.840   2.374  0.2882  0.0767 -0.1860
22157W        W39004   7.339  13.548  14.620  0.2875  0.1394  0.1246
22158W        W39005  11.692  15.743   3.035  0.1950  0.2801 -0.2246
22159W        W39006  14.136   5.961   2.981  0.4071  0.0127  0.0004
22160W        W39007  14.814   8.185  12.496  0.0544 -0.0606 -0.0093
22161W        W39008  11.937  15.510  14.349 -0.2437 -0.1484 -0.2209
22162W        W39009   6.036  11.643   4.968  0.1230  0.0432 -0.0129
22163W        W39010   4.827  16.035   1.014 -0.1216 -0.1129  0.1997
22164W        W39011   2.097   5.935   1.295 -0.3742 -0.0153  0.2367
22165W        W39012  10.195   9.323  15.842 -0.0264  0.0698  0.2265
22166W        W39013  15.437  16.439  15.089  0.1515  0.1940  0.0973
22167W        W39014  17.599   9.199  11.812 -0.2067  0.0566 -0.1930
22168W        W39015  18.003  14.782   1.440  0.1051  0.0271 -0.0072
22169W        W39016   3.825  15.375  16.138  0.1397 -0.0012  0.0380
22170W        W39017  17.235   9.332   2.682 -0.0139 -0.0466  0.2163
22171W        W39018  13.433  15.689   3.336  0.2171 -0.2978  0.0240
22172W        W39019  10.584  11.610   4.623  0.2343 -0.2456  0.2500
22173W        W39020  12.499   4.618  11.076 -0.1295 -0.2648  0.3129
22174W        W39021   8.089   0.552  13.832 -0.1332  0.0309 -0.0463
22175W        W39022   8.408  11.136   0.137 -0.0144  0.1030  0.0553
22176W        W39023  10.564   6.532   5.362  0.1352  0.0948 -0.0030
22177W        W39024   7.052   3.103   3.411  0.0190 -0.1081 -0.1696
22178W        W39025   3.252   8.680   0.815  0.1095  0.2093  0.2718
22179W        W39026   7.327  12.422   4.212 -0.2306  0.0353  0.1149
22180W        W39027   7.836  15.166   0.378 -0.2080  0.0497 -0.0856
22181W        W39028   6.759   7.804   1.159 -0.0234  0.0188  0.2169
22182W        W39029  14.308   2.838  15.270  0.0879  0.1277 -0.0306
22183W        W39030  14.563  15.203   3.581  0.0308  0.0175  0.0530
22184W        W39031   7.646  12.180  11.717  0.2003  0.2628 -0.1362
22185W        W39032  12.532   4.357   1.626  0.0473  0.3031 -0.0043
22186W        W39033  17.898   0.382  15.942  0.2602 -0.3200  0.0673
22187W        W39034   2.280  14.082  13.409  0.1885  0.0992  0.3098
22188W        W39035   4.346   3.241   2.948  0.1409 -0.1076  0.2027
22189W        W39036  12.116   9.481  14.638  0.0233  0.0744  0.0307
22190W        W39037   6.917  11.285   1.033 -0.1384  0.1081 -0.1728
22191W        W39038  12.242  16.361   5.700 -0.2691 -0.1134  0.2110
22192W        W39039   5.573  13.074   2.332  0.1095 -0.2240  0.1260
22193W        W39040  15.704  10.596   5.394 -0.0896  0.1329 -0.1490
22194W        W39041   7.766   4.657  15.473  0.2374  0.1530 -0.0380
22195W        W39042  15.083   6.025   4.530  0.0393 -0.0096 -0.1895
22196W        W39043   7.036   2.355   4.054 -0.2187 -0.1123  0.2183
22197W        W39044   0.075  17.793  11.080  0.0465  0.3566  0.0071
22198W        W39045   6.789  10.287  13.105  0.1188  0.2208  0.5075
22199W        W39046  18.165  11.982   4.890  0.1374  0.1103  0.1698
22200W        W39047  16.020  17.342   5.128 -0.0091 -0.3091 -0.1946
22201W        W39048   6.364  10.492  12.871  0.0847 -0.1636  0.0504
22202W        W39049   9.152   2.660   1.695 -0.0154  0.0632 -0.2354
22203W        W39050   1.493  15.383  12.728 -0.2931  0.1955  0.0662
22204W        W39051  15.360  13.658   4.802 -0.3868 -0.0765  0.0389
22205W        W39052  17.398  12.362  15.319 -0.2463  0.1408 -0.0116
22206W        W39053   4.312   2.086   3.960  0.2439 -0.1152 -0.1415
22207W        W39054  14.215  14.839   3.294 -0.0092  0.1861 -0.1724
22208W        W39055  12.186  16.905   3.305 -0.0325  0.1059  0.0865
22209W        W39056  17.426   8.713   3.141  0.1542 -0.2194 -0.2372
22210W        W39057   2.978   0.676   1.246 -0.1563 -0.0303 -0.1442
22211W        W39058   1.095   5.502   3.411 -0.5148 -0.0350 -0.1277
22212W        W39059  12.194   0.093  16.000 -0.0322  0.0923 -0.2117
22213W        W39060  10.301  15.077  11.553  0.1664  0.1682 -0.0119
22214W        W39061   9.556   9.709   0.424  0.0873 -0.0583  0.0836
22215W        W39062   1.514   6.278  15.271 -0.1834 -0.2743 -0.1574
22216W        W39063  12.127   2.590   3.176  0.3314  0.1667  0.1984
22217W        W39064   2.759   7.906   2.054 -0.2591 -0.0118  0.1418
22218W        W39065   8.012   8.247   6.032  0.1656  0.0382 -0.1693
22219W        W39066  16.600   9.494  15.252 -0.0864  0.3859 -0.0687
22220W        W39067   5.144   5.718   0.017 -0.1355 -0.3000 -0.3697
22221W        W39068  18.075  10.048  15.987 -0.1884  0.1820  0.1890
22222W        W39069   8.591  17.515  12.119 -0.0452  0.0320 -0.2949
22223W        W39070  10.791   3.290   4.376 -0.0928 -0.2706 -0.1683
22224W        W39071   2.920  12.283  15.789 -0.1461 -0.0443 -0.0955
22225W        W39072  14.386  11.617   3.961 -0.1514  0.1775 -0.3257
22226W        W39073   1.114   2.882  13.983 -0.3063 -0.1473 -0.1618
22227W        W39074  10.302   0.700  14.461  0.2337  0.0784  0.1481
22228W        W39075  10.803   4.951   0.097  0.0173  0.1459  0.2864
22229W        W39076   2.403  12.764  11.699  0.0588  0.3760 -0.1172
22230W        W39077  17.848   3.085   0.547 -0.1827  0.2548  0.0463
22231W        W39078   2.713  16.863  12.361  0.0538 -0.2192 -0.0935
22232W        W39079   5.788  12.967   3.294  0.2936 -0.1452  0.1457
22233W        W39080  16.567  17.821   2.257 -0.2835 -0.2244  0.0255
22234W        W39081   8.290   4.481  15.107 -0.2010 -0.1142 -0.2660
22235W        W39082   1.351  15.975  15.429 -0.0351 -0.2181  0.2148
22236W        W39083  12.913  10.541  13.874  0.2569  0.3149  0.0978
22237W        W39084   8.297   0.014  12.307  0.1914 -0.0532  0.0066
22238W        W39085   3.038  13.044   2.483 -0.1658  0.1851  0.1496
22239W        W39086   4.538   2.540   2.609 -0.1808 -0.2255  0.1752
22240W        W39087  12.676  12.043   1.087  0.0359 -0.0590 -0.1231
22241W        W39088   3.523  12.258   1.545 -0.3537  0.2674 -0.0855
22242W        W39089  15.904   0.675   2.639 -0.2706 -0.1865  0.2247
22243W        W39090  12.328   6.959  15.687  0.1479  0.0603 -0.3373
22244W        W39091  16.421  17.134   4.934  0.1068  0.1014 -0.0563
22245W        W39092   7.230   1.562  15.894  0.0151 -0.0922  0.0647
22246W        W39093   8.004  10.565  16.000 -0.1279  0.3162 -0.4090
22247W        W39094   9.819   1.625   3.679  0.1130  0.0439 -0.0002
22248W        W39095  10.136  17.676  15.835 -0.3788 -0.0768 -0.1842
22249W        W39096   6.675  14.708  15.123  0.0855 -0.2877 -0.2835
22250W        W39097  10.637  11.890  13.911  0.3245 -0.3314  0.0172
22251W        W39098  11.963  18.219   4.622  0.2231  0.1710 -0.0413
22252W        W39099  14.381  13.126  14.736 -0.3023 -0.0426  0.1409
22253W        W39100   1.870   4.541  12.205 -0.2875 -0.2645  0.3234
22254W        W39101   2.182  13.464  14.794  0.2095  0.4587  0.4899
22255W        W39102   9.248   0.329  12.646 -0.1749 -0.1326 -0.1145
22256W        W39103   2.782   5.325   1.664  0.1844 -0.0358  0.1140
22257W        W39104   7.250   3.038   1.613 -0.3923  0.1119  0.0759
22258W        W39105   5.084   2.972  15.529  0.0346 -0.2315 -0.3768
22259W        W39106  10.469   7.299  14.978 -0.2380  0.0470  0.2649
22260W        W39107   2.813  11.101  13.611  0.2032  0.1049 -0.0233
22261W        W39108  12.922  17.506   0.585 -0.0862 -0.3152  0.0300
22262W        W39109  17.576  14.982  10.821  0.2056  0.0268 -0.3856
22263W        W39110   8.747  13.098   1.522 -0.4411 -0.0396 -0.1389
22264W        W39111   4.516   6.145   4.349 -0.0456  0.0065  0.0620
22265W        W39112   9.291   7.235  10.973 -0.1977 -0.0551 -0.2293
22266W        W39113   6.514   2.329   3.589  0.2344 -0.2519  0.0808
22267W        W39114   8.196   8.658  10.791 -0.1373  0.1291  0.0624
22268W        W39115   4.962  10.216   0.221  0.1433  0.1232  0.2701
22269W        W39116  10.474   2.354   1.460  0.0711 -0.3640  0.0433
22270W        W39117  16.586  10.905   4.751  0.0598 -0.2018 -0.3061
22271W        W39118   7.123  11.438  12.967 -0.0803 -0.0081 -0.0120
22272W        W39119  16.716   5.534   0.050  0.2796  0.1727  0.0586
22273W        W39120  14.112  10.897   4.422 -0.1250 -0.0998 -0.2865
22274W        W39121   8.741  11.586  12.695 -0.0043 -0.0377 -0.2295
22275W        W39122   2.449  17.354   3.553 -0.0197 -0.1867  0.1370
22276W        W39123  15.456   5.502   2.797 -0.2292  0.0123 -0.2225
22277W        W39124   8.403   6.006  12.195  0.1359 -0.1103  0.2995
22278W        W39125   1.498   0.509  13.971  0.0049  0.1256  0.0419
22279W        W39126  16.797  15.902  12.562  0.0846  0.2066  0.4335
22280W        W39127   2.792   2.451  12.314  0.1213  0.0218  0.1881
22281W        W39128   8.371   4.948  12.477  0.0321 -0.1206 -0.2053
22282W        W39129   4.518  14.622   0.024  0.2565 -0.1241  0.1986
22283W        W39130   0.745   9.467   2.599 -0.1115  0.0413  0.1864
22284W        W39131  16.415   8.928   1.624  0.1679  0.3021  0.0722
22285W        W39132   2.387  11.860  13.490 -0.1272  0.0241 -0.2269
22286W        W39133  10.431   5.168   1.864  0.0597 -0.2767  0.0906
22287W        W39134  12.607   7.689  14.314  0.0425 -0.0996  0.3443
22288W        W39135   7.995   1.021  15.777  0.0914 -0.2295  0.1891
22289W        W39136   1.376   3.593   2.488  0.1014 -0.1751 -0.0991
22290W        W39137   6.439   2.541   4.644 -0.1366 -0.0618  0.2821
22291W        W39138   2.433   5.631  10.616  0.1382 -0.0716  0.0959
22292W        W39139   6.984   4.915  12.202  0.4570  0.1669 -0.3334
22293W        W39140  11.120   7.567   2.642  0.2162 -0.0903 -0.0517
22294W        W39141   6.203   5.049  14.608 -0.0089 -0.0592 -0.2795
22295W        W39142   6.625  17.993  15.194 -0.3401  0.1538  0.2550
22296W        W39143   5.025   1.537  16.161  0.0363 -0.0847 -0.2732
22297W        W39144   0.358  16.370   2.407  0.0530  0.2382 -0.0249
22298W        W39145  16.945   3.884  16.040 -0.0083 -0.1197  0.0608
22299W        W39146  11.194   0.815  15.367  0.1367  0.0313  0.3206
22300W        W39147   0.220  15.221   3.426 -0.0141 -0.1022 -0.1992
22301W        W39148   7.638  14.807   4.390  0.0923  0.1925 -0.0538
22302W        W39149   2.921  16.833   5.078 -0.1591 -0.0186  0.1418
22303W        W39150   6.095  13.621   1.777  0.0686  0.1331  0.3238
22304W        W39151   3.353   3.446  14.355 -0.1456  0.0178 -0.1205
22305W        W39152   4.981  17.882   2.597  0.1355 -0.3513  0.0396
22306W        W39153   8.232   5.445  15.532  0.2565  0.0641  0.1169
22307W        W39154  11.909   6.894   3.024  0.1154 -0.1662  0.0436
22308W        W39155   0.736   4.363  14.108  0.1751  0.2064 -0.1943
22309W        W39156  11.668   8.161  12.024  0.0133  0.0960 -0.2886
22310W        W39157   7.256   2.773  11.422  0.2372 -0.0056  0.0350
22311W        W39158   8.058   1.147   5.564 -0.0170 -0.2668  0.0725
22312W        W39159  10.474  14.205   5.298  0.0389 -0.2689 -0.1371
22313W        W39160   9.206   3.348   3.317 -0.2561  0.0638 -0.0786
22314W        W39161   2.992  11.750   2.622  0.3056  0.0976  0.0218
22315W        W39162   8.903   3.151  14.645 -0.2239  0.0207 -0.0668
22316W        W39163  15.087  15.158   5.095  0.0107 -0.3015 -0.0201
22317W        W39164   4.536   1.585   0.139 -0.4325  0.1524  0.3636
22318W        W39165  13.540   6.898  13.299 -0.3193 -0.2328 -0.0254
22319W        W39166   9.803  16.584  11.069 -0.1587  0.0844 -0.1793
22320W        W39167   1.042   6.854   0.963 -0.0969 -0.0125  0.0379
22321W        W39168   8.983  10.747  11.706 -0.0867  0.1048 -0.0180
22322W        W39169   3.588  15.515  12.208  0.0639  0.0423  0.0519
22323W        W39170  16.562   2.868   2.525  0.2579  0.0775 -0.0400
22324W        W39171   0.370  11.165  14.681 -0.0744  0.2669  0.0460
22325W        W39172  15.185  17.669   5.593  0.0881 -0.0224 -0.0546
22326W        W39173  17.380   8.954   1.663 -0.0509 -0.4002  0.0221
22327W        W39174   5.392  14.522   6.132  0.1321 -0.1973 -0.0970
22328W        W39175   5.601   4.895  12.751  0.1019  0.2839  0.4814
22329W        W39176  17.681  17.202   2.112  0.3946 -0.2028 -0.0900
22330W        W39177   4.332   1.435   4.759 -0.3171  0.0529 -0.0241
22331W        W39178  10.949  12.825   3.188  0.0370 -0.0994  0.1280
22332W        W39179  17.227  15.641  11.557  0.0996 -0.3863  0.1612
22333W        W39180  17.441   6.611   0.977 -0.2958 -0.1350  0.3140
22334W        W39181   4.750  17.467  15.497  0.0034  0.1353  0.2121
22335W        W39182  17.410   4.066   0.076 -0.1143  0.0345  0.1911
22336W        W39183  15.834  11.910   4.309 -0.0420  0.4254 -0.1254
22337W        W39184   1.164   3.495  15.419 -0.0785  0.2925  0.1152
22338W        W39185  14.166   0.086  11.489 -0.0736 -0.0511  0.0242
22339W        W39186   4.281   1.040   1.577  0.1475 -0.1095 -0.0194
22340W        W39187   8.178  11.487   5.233 -0.0910 -0.0827 -0.0675
22341W        W39188   3.413  15.972   1.561 -0.2462  0.1729  0.0031
22342W        W39189   3.768  16.623   0.958  0.0779 -0.0156 -0.1310
22343W        W39190  17.965   0.390   1.799 -0.2214 -0.1556  0.0286
22344W        W39191   5.701  14.442  12.311  0.4907  0.1634 -0.1553
22345W        W39192   7.972   2.317   1.744 -0.1752  0.1112  0.0074
22346W        W39193  13.925   3.133  12.586 -0.0599  0.2190  0.0629
22347W        W39194  17.788  16.067   1.349  0.0098 -0.1317 -0.0012
22348W        W39195  15.562   2.630  15.930  0.0898  0.1131  0.0228
22349W        W39196   9.630  16.261  15.000 -0.1155  0.0428 -0.4362
22350W        W39197  14.870  14.698  12.652 -0.1624  0.2846  0.3926
22351W        W39198   9.551  15.020   2.336  0.0380 -0.0006  0.1428
22352W        W39199   4.983   0.942   4.369 -0.4510  0.0088  0.2268
22353W        W39200  12.504   9.308   5.347  0.1256  0.0532 -0.0088
22354W        W39201   5.834   4.310  15.659 -0.2245 -0.2008 -0.1350
22355W        W39202  13.321   4.704  13.335 -0.1748  0.2677  0.1557
22356W        W39203   4.792  18.121  12.354  0.0875 -0.1323 -0.1229
22357W        W39204   2.080  11.593   1.467  0.2984  0.0224  0.0791
22358W        W39205  18.039   7.228  11.875  0.2450 -0.1160 -0.1806
22359W        W39206  14.310   2.720  13.532  0.0713  0.0120 -0.2153
22360W        W39207   0.089   3.456   4.011  0.0870 -0.1792  0.2202
22361W        W39208  10.922  11.931   2.893 -0.2657  0.0258  0.0310
22362W        W39209  15.381   3.595   0.296 -0.1362  0.0853 -0.1778
22363W        W39210  16.095   3.960  14.250  0.0089 -0.0140 -0.0875
22364W        W39211   4.112   0.437   4.720 -0.1088  0.2636 -0.0004
22365W        W39212   3.050  14.367   1.805  0.0770 -0.3752 -0.0397
22366W        W39213  13.328  11.469   4.348  0.0596  0.0821 -0.1707
22367W        W39214   5.411   2.689   0.314 -0.2615 -0.2889 -0.1031
22368W        W39215   0.166   6.680   1.690  0.0034 -0.0562  0.1160
22369W        W39216  10.155   4.503  13.215 -0.0870 -0.0815 -0.1605
22370W        W39217   9.061  17.359   2.267  0.0271  0.2182  0.2120
22371W        W39218  13.958  15.343  15.739  0.0888 -0.0007  0.2064
22372W        W39219   1.037   1.665  14.602  0.1587  0.0908 -0.0091
22373W        W39220  13.420   2.718  14.358 -0.0565 -0.1313 -0.0833
22374W        W39221  10.336  17.789   2.762 -0.0809 -0.3702  0.1461
22375W        W39222   1.756   3.895   4.050  0.0744  0.0304  0.2444
22376W        W39223   7.761   7.993  14.566  0.1211  0.0326 -0.0613
22377W        W39224   8.824  14.993   1.969  0.0426 -0.2773 -0.0634
22378W        W39225   6.538   8.378   4.189 -0.0273  0.2932 -0.0205
22379W        W39226  13.313   6.285  12.655  0.0493 -0.1557 -0.0601
22380W        W39227  10.337   2.212  11.467 -0.1313 -0.0925  0.0840
22381W        W39228  10.850  12.388   0.794 -0.0480 -0.1313  0.0944
22382W        W39229  17.873   7.694  13.918  0.0093 -0.3227  0.1129
22383W        W39230  10.691   3.386   1.870  0.0134 -0.0687  0.0597
22384W        W39231   8.518   2.242   1.333 -0.0893 -0.3010 -0.3207
22385W        W39232  17.950   7.955   0.875 -0.2127  0.2710 -0.0367
22386W        W39233  10.314   1.291  14.616 -0.0074 -0.0426  0.0512
22387W        W39234   3.142  15.857  13.974  0.1253 -0.0032 -0.1878
22388W        W39235   4.618   4.988   3.377  0.0727 -0.1179 -0.0021
22389W        W39236   1.052   7.589   5.231 -0.0469 -0.1719 -0.1343
22390W        W39237  17.132  14.115  10.964  0.4011  0.0874 -0.0948
22391W        W39238   2.944  15.702   2.160 -0.0022 -0.1310  0.0217
22392W        W39239   2.824   7.325   3.876 -0.0522  0.0154 -0.0990
22393W        W39240  16.521   9.896  13.414 -0.1032  0.0097 -0.0227
22394W        W39241   1.269  11.831   3.072 -0.2940  0.2998 -0.2506
22395W        W39242  16.132   7.135  11.672 -0.0011  0.0484 -0.3583
22396W        W39243  11.291  12.713   3.536  0.1162 -0.3112 -0.0710
22397W        W39244  18.097   2.199   4.901  0.2406 -0.0390 -0.0658
22398W        W39245   6.656  10.271   0.607 -0.1516 -0.0519 -0.1277
22399W        W39246   7.445   5.983   3.952 -0.1416 -0.0334 -0.0112
22400W        W39247   7.836   5.889  12.448  0.0616 -0.2492 -0.1541
22401W        W39248  17.725   7.438   4.044  0.3897 -0.1204 -0.0242
22402W        W39249   5.426  12.429   0.961 -0.2466  0.1023  0.1796
22403W        W39250   1.462  18.030   2.396 -0.0614 -0.1845 -0.0222
22404W        W39251  13.853  10.499  16.141 -0.1389 -0.0691  0.0672
22405W        W39252   2.192  12.731   5.467  0.1950  0.0924 -0.0068
22406W        W39253   1.888  14.673   0.491  0.1083  0.0340  0.1133
22407W        W39254  17.047  10.184  13.220 -0.2516 -0.3768 -0.0729
22408W        W39255   0.145   6.441   3.194 -0.0851 -0.0363  0.0969
22409W        W39256   8.743   3.084   4.990  0.2071  0.0680  0.1433
22410W        W39257  11.516   9.513   5.427 -0.1110 -0.5305  0.2328
22411W        W39258  15.144   7.115   0.647  0.1475  0.1156  0.3091
22412W        W39259  13.778  16.332   4.249  0.1425 -0.1758 -0.1435
22413W        W39260   0.149  16.977   3.223 -0.3495  0.3786 -0.0479
22414W        W39261   1.998   4.799  15.171 -0.0304 -0.1790 -0.1630
22415W        W39262  16.190   7.623  12.701 -0.0984 -0.1489 -0.0978
22416W        W39263   4.545  14.657  11.732 -0.0281  0.1488  0.1116
22417W        W39264   2.325   4.118  15.628  0.2646 -0.0527 -0.0222
22418W        W39265  17.421   0.111   3.685  0.1165 -0.1547  0.1739
22419W        W39266   9.295   0.131   4.825  0.1973 -0.0439  0.1086
22420W        W39267  10.820   6.286  13.938  0.1591 -0.1464  0.1005
22421W        W39268  11.060   3.713  14.851 -0.0203  0.0090  0.1280
22422W        W39269  13.556   2.411  15.099  0.0517 -0.2199 -0.2283
22423W        W39270  16.028   0.856   4.519 -0.0141 -0.4335  0.2260
22424W        W39271   5.852  11.914   3.315 -0.0761  0.4222  0.2479
22425W        W39272  17.287   7.277   3.594 -0.0581 -0.2209  0.1713
22426W        W39273  16.338  13.908  12.347 -0.0107  0.0253  0.0563
22427W        W39274  15.712   0.608   3.120 -0.0307  0.1580  0.0086
22428W        W39275  13.873  16.655  14.498  0.1173 -0.2024  0.1096
22429W        W39276   4.523  12.014   0.171 -0.0963 -0.0409 -0.0969
22430W        W39277   0.992   0.655  15.177  0.2674  0.1317  0.1334
22431W        W39278   6.028   5.052  13.042 -0.0468 -0.1971  0.0115
22432W        W39279   2.109   7.354   4.684 -0.1834  0.0682 -0.2265
22433W        W39280  15.094  18.088   2.069  0.2445 -0.0883  0.3611
22434W        W39281   7.758   4.261  13.619 -0.0635 -0.2028 -0.1730
22435W        W39282  16.253  15.982   3.203  0.3946  0.2339  0.1935
22436W        W39283  12.118  13.905   4.723  0.0797 -0.0562 -0.1072
22437W        W39284   7.908   5.016   3.936 -0.1902 -0.1894  0.0485
22438W        W39285   0.592   5.783   4.394 -0.3541 -0.2651 -0.1257
22439W        W39286  16.742   2.841  12.943 -0.4103  0.0463 -0.1421
22440W        W39287   5.008   3.896   3.067 -0.0444  0.0656 -0.1686
22441W        W39288  12.964   2.496   1.690  0.0846 -0.0236 -0.2275
22442W        W39289  11.120  15.330   0.121 -0.0027  0.0170 -0.1162
22443W        W39290  12.779   8.466  11.144  0.1575  0.0936  0.0637
22444W        W39291  15.677   8.296  11.720 -0.0230  0.0625 -0.0597
22445W        W39292  14.463  12.536  15.850  0.1434 -0.0850 -0.2334
22446W        W39293   6.722  11.115   0.609  0.2986 -0.3965  0.3446
22447W        W39294   3.452   7.474   1.202  0.0775  0.3356 -0.0972
22448W        W39295   9.184   2.395  12.943  0.3483  0.3256  0.4061
22449W        W39296  16.709   1.787  15.958  0.0949 -0.1169  0.3243
22450W        W39297  17.114   6.760   4.832 -0.0507 -0.1161  0.0278
22451W        W39298   5.166  12.741   2.196  0.0752 -0.0712  0.2029
22452W        W39299  14.335  14.669  15.082  0.2273 -0.0091  0.1508
22453W        W39300   4.171  10.056   2.239  0.0535  0.0422 -0.1418
22454W        W39301   4.096   9.639  11.624  0.0878 -0.0042 -0.0583
22455W        W39302   6.789  12.253   4.659  0.2618 -0.0234 -0.2331
22456W        W39303  17.948   5.523  15.718 -0.0367 -0.2790  0.0420
22457W        W39304  13.994  11.267   1.910  0.0949  0.1562  0.0245
22458W        W39305   2.681   4.842   4.413 -0.3464  0.0794  0.1911
22459W        W39306   2.669  12.446  11.392 -0.3660 -0.0165  0.2010
22460W        W39307   4.285  15.454   3.070 -0.2919 -0.0449 -0.2629
22461W        W39308  13.731   8.947   4.974  0.0638  0.0814  0.0386
22462W        W39309   5.646   7.890  12.013 -0.2409  0.1827 -0.0176
22463W        W39310   0.042   3.077  12.128 -0.0193  0.1904  0.0438
22464W        W39311  10.427  11.578  15.017 -0.1291  0.0338 -0.3222
22465W        W39312   3.213   0.599   4.164  0.3487 -0.2190 -0.0335
22466W        W39313   7.174   7.452   3.171  0.1050  0.2057 -0.0141
22467W        W39314  14.184   6.410   3.111  0.1136  0.0960  0.0860
22468W        W39315  11.290  10.456   0.297  0.1141 -0.1477  0.2092
22469W        W39316   6.288  15.011   5.850 -0.0041  0.1112  0.1505
22470W        W39317  17.831   6.035  15.819 -0.1217 -0.1334  0.2756
22471W        W39318   0.542   1.659   3.706  0.3824 -0.1452  0.3422
22472W        W39319   3.806  13.218  12.769  0.1113 -0.1168  0.1327
22473W        W39320   3.000  10.244  13.444 -0.1717 -0.0434 -0.4678
22474W        W39321   6.297  13.095  13.968 -0.0086 -0.1386  0.1760
22475W        W39322   5.803   5.427   3.326  0.1844  0.1478  0.1057
22476W        W39323   5.321   1.610   4.879 -0.0513 -0.0336 -0.2193
22477W        W39324   8.432  11.524   5.791 -0.0132 -0.1539 -0.1182
22478W        W39325  17.946   6.663   0.921  0.0970 -0.0381  0.0101
22479W        W39326  18.193   7.382   4.193  0.1274  0.0930 -0.0743
22480W        W39327  10.638  17.632  13.036  0.0002 -0.1501 -0.0432
22481W        W39328   9.779   2.721  14.127 -0.1278  0.1976 -0.0252
22482W        W39329   1.208   6.706  12.313 -0.1370  0.2606 -0.2407
22483W        W39330  12.365  14.368   6.040  0.1350 -0.0022  0.5128
22484W        W39331  13.785  17.252   3.696  0.1243 -0.1734 -0.4668
22485W        W39332  16.002  17.144  15.747  0.0881  0.0326 -0.3451
22486W        W39333   3.476  12.492  14.898 -0.1235 -0.1300  0.1710
22487W        W39334   3.088  17.414  14.355  0.1218  0.2828 -0.1203
22488W        W39335  16.482   4.299   4.067  0.1459  0.0390  0.0618
22489W        W39336  15.329   2.385   5.112 -0.2926 -0.4300  0.2110
22490W        W39337   7.146   0.638  14.176  0.0390 -0.0500 -0.1097
22491W        W39338   9.984   9.922  13.722  0.0173  0.0495  0.1313
22492W        W39339  12.367   5.512   4.860  0.0162  0.3549 -0.1584
22493W        W39340   2.105  16.283  16.112  0.2315 -0.1113 -0.0695
22494W        W39341   0.369   6.786  12.575 -0.0698  0.1637  0.0142
22495W        W39342  17.060  14.282   5.529 -0.2505  0.1253 -0.1083
22496W        W39343   9.867  16.979   2.439 -0.1283 -0.0361  0.1744
22497W        W39344  14.590  14.242  13.943 -0.2421  0.1133 -0.2589
22498W        W39345   9.099   7.303  13.426  0.1501 -0.2140 -0.0575
22499W        W39346   8.803   9.021   4.695 -0.2848  0.1484  0.1630
22500W        W39347   3.597  15.666  13.993 -0.2969  0.1942  0.0371
22501W        W39348  13.413  16.984   3.355 -0.1322  0.1859 -0.1156
22502W        W39349  12.879  10.139   1.381  0.2026 -0.3313 -0.0419
22503W        W39350  16.432   4.361  10.378 -0.0583  0.1684  0.0580
22504W        W39351  13.218   8.944  14.073 -0.1256 -0.1745  0.2872
22505W        W39352  16.499   3.025   0.023 -0.2558 -0.1837  0.2006
22506W        W39353  11.595  17.201   2.503  0.1605  0.0032  0.0031
22507W        W39354  14.675  16.897  14.273 -0.0472 -0.0071 -0.3087
22508W        W39355   5.262  18.193  15.085 -0.1897  0.1741 -0.2250
22509W        W39356  12.249  13.470  15.383 -0.0310  0.1736  0.0702
22510W        W39357   7.464   2.226   0.542  0.2524  0.0677  0.0607
22511W        W39358   9.948  15.707   3.535 -0.0720 -0.1034 -0.0511
22512W        W39359   6.029   6.474   6.588  0.2671 -0.0013  0.0447
22513W        W39360   3.672  10.856  12.514  0.0527  0.3372 -0.2087
22514W        W39361  12.570  15.940   1.402 -0.0456  0.1868  0.1490
22515W        W39362   4.356  12.206  14.678 -0.1082  0.0845 -0.2178
22516W        W39363   9.740   6.585   3.916  0.2350 -0.2883  0.1170
22517W        W39364   4.590   5.018   2.876 -0.2398  0.3198  0.1269
22518W        W39365   0.016   1.745  15.534 -0.0269  0.3365  0.0349
22519W        W39366   3.034  12.717   2.150 -0.2268  0.1759 -0.0157
22520W        W39367   1.637   1.927   0.866 -0.1352 -0.0930 -0.2245
22521W        W39368   5.938   0.784   1.610 -0.0723 -0.1974 -0.0923
22522W        W39369  10.939   1.026  13.727  0.1450 -0.1961 -0.0533
22523W        W39370  15.928   4.732  10.747  0.0581 -0.0648  0.2575
22524W        W39371  13.612   9.572  12.238 -0.0278  0.3577  0.0279
22525W        W39372  17.786  10.157  15.091 -0.0680 -0.0178 -0.3066
22526W        W39373   3.211   2.559   3.753 -0.0909 -0.1789  0.0325
22527W        W39374  18.295  10.364   3.140  0.0226  0.0903  0.1022
22528W        W39375   9.904   9.567   1.636 -0.4427 -0.0269 -0.2116
22529W        W39376  12.300   8.413  13.234 -0.0537  0.2864 -0.0832
22530W        W39377   2.517   4.402   1.762 -0.0990  0.2101  0.0655
22531W        W39378   6.955  15.303   3.342  0.2078  0.0898  0.2679
22532W        W39379  16.306  13.791  13.792 -0.0139 -0.2162  0.2633
22533W        W39380  16.226  14.644   5.294 -0.0692  0.3617 -0.3278
22534W        W39381   7.916   8.923  12.538  0.2663  0.0383 -0.2487
22535W        W39382  15.636   0.142   2.855  0.1577  0.2706 -0.4278
22536W        W39383   7.714   1.043   5.010  0.0016  0.0906 -0.0887
22537W        W39384   1.542  15.558  15.133  0.1977 -0.1471  0.0089
22538W        W39385  10.400  14.167  12.793 -0.0788  0.2933  0.2236
22539W        W39386  11.544   2.325   0.144  0.1039  0.0161  0.0871
22540W        W39387   2.427  10.426   2.880  0.1991  0.0923 -0.0848
22541W        W39388  13.964   1.243  13.183  0.3273  0.0628 -0.1091
22542W        W39389   5.273  17.974   5.327  0.2095 -0.3246  0.0371
22543W        W39390   9.568  12.281   5.501 -0.1858  0.2951  0.0045
22544W        W39391  10.282  15.639  11.688 -0.1265  0.3644 -0.0925
22545W        W39392   9.515   5.468  10.833  0.0932  0.1266 -0.0691
22546W        W39393   1.520   6.852  16.073 -0.0363 -0.4035 -0.3419
22547W        W39394  16.902   6.321   2.755  0.1826  0.2765 -0.1980
22548W        W39395  17.591  12.316  12.468 -0.3567 -0.0369  0.2415
22549W        W39396   0.412  17.891   1.846 -0.1549  0.2120 -0.3389
22550W        W39397   8.264   7.617   1.571 -0.0465  0.1822 -0.1712
22551W        W39398   8.199   6.348   0.563  0.1152  0.0147 -0.1508
22552W        W39399   4.670   5.794  14.032  0.2828  0.1046  0.0797
22553W        W39400   3.633   6.736   5.134 -0.2636  0.2726  0.1519
22554W        W39401  14.011  13.690   0.621  0.0676  0.0352  0.0011
22555W        W39402   4.970   6.551  11.899  0.3732 -0.0916  0.4685
22556W        W39403   2.306   6.872   4.552  0.3299 -0.0584 -0.0265
22557W        W39404   2.103   5.166  13.514 -0.2143 -0.2607 -0.0384
22558W        W39405   4.162  13.709   2.704 -0.2592  0.0998 -0.0615
22559W        W39406   4.891   4.295  16.158  0.0337  0.0123 -0.1810
22560W        W39407   3.393  12.371  12.582 -0.2382 -0.0261  0.3750
22561W        W39408   9.119  16.783  11.864 -0.2207  0.0674 -0.1636
22562W        W39409  11.264   2.971   5.460  0.1672 -0.0080  0.1405
22563W        W39410  13.717  11.405  15.294 -0.1533  0.1144  0.1293
22564W        W39411   3.859  15.998   4.491  0.1091 -0.0932  0.2060
22565W        W39412   8.172  16.180  12.430  0.0761  0.1896  0.1446
22566W        W39413  14.204   9.012   4.203  0.2017 -0.1133 -0.0825
22567W        W39414   5.113  13.365  13.138  0.2390 -0.2025 -0.1706
22568W        W39415  11.537   5.614   3.671  0.1408 -0.2942  0.2074
22569W        W39416   8.953   7.061   1.326 -0.0283  0.0483  0.0315
22570W        W39417  14.971  17.380  14.124 -0.0320 -0.0408  0.0773
22571W        W39418   1.890  13.775   2.958 -0.2061 -0.0546 -0.0320
22572W        W39419   4.538   7.807   4.573 -0.0832 -0.3479  0.3154
22573W        W39420  16.492   5.152   0.271 -0.1631  0.0746 -0.0135
22574W        W39421   9.161  14.649   3.490  0.0140 -0.0059 -0.0625
22575W        W39422  16.852  13.793  13.128 -0.2554  0.1527 -0.1694
22576W        W39423  13.746   1.577   3.072  0.0236 -0.2944  0.0145
22577W        W39424  10.964   1.279  13.281 -0.0383  0.1493  0.1834
22578W        W39425   9.723   5.799   2.435 -0.0320  0.1792 -0.0874
22579W        W39426  13.491   0.012   4.240  0.1842 -0.3916 -0.1718
22580W        W39427   0.346   8.077   1.422  0.1141  0.0054  0.0108
22581W        W39428   8.163   4.966   0.446 -0.3618  0.2561 -0.1185
22582W        W39429   3.009  14.641  13.866 -0.0433 -0.0087 -0.0771
22583W        W39430   8.027   5.409  12.629 -0.0270 -0.2380 -0.1158
22584W        W39431  13.251   4.579   3.375 -0.1203  0.0692 -0.3790
22585W        W39432   4.347   4.340  11.573 -0.2584 -0.0891  0.0940
22586W        W39433   7.506  17.209   5.170 -0.2725  0.0611 -0.1049
22587W        W39434  11.687   4.146  11.489  0.2057  0.0209 -0.1355
22588W        W39435  17.574  17.785   2.036  0.0416  0.4206  0.0430
22589W        W39436  17.501  15.863   2.664 -0.1601  0.1181  0.2739
22590W        W39437   9.790   3.545   3.884  0.1947  0.1244  0.0269
22591W        W39438   1.749   2.231   3.309 -0.0436  0.1078 -0.0996
22592W        W39439  14.491   3.210   9.377 -0.1837  0.2973  0.1703
22593W        W39440  13.285  14.620  12.805  0.1443 -0.2198  0.0966
22594W        W39441  10.793  14.316   2.645  0.0338  0.0679 -0.0802
22595W        W39442  18.144   8.514   2.616 -0.2899  0.0336  0.5600
22596W        W39443  14.619   9.360   4.544  0.3016 -0.3143  0.1013
22597W        W39444   3.174  14.979  10.189 -0.0873 -0.0924  0.2687
22598W        W39445   7.319  10.685   4.886  0.2946  0.0880  0.0230
22599W        W39446  15.304  11.232   4.167  0.0425 -0.1374 -0.0706
22600W        W39447   3.713  10.337   5.502  0.1971 -0.1735  0.1396
22601W        W39448   6.060   9.005  13.646  0.2431  0.1825 -0.2623
22602W        W39449  16.471   0.902   4.852  0.0298 -0.0363  0.0144
22603W        W39450  12.145   2.548  10.732  0.0962 -0.2205 -0.0958
22604W        W39451   4.653  15.897   2.988 -0.3248  0.1070 -0.0422
22605W        W39452   6.462  16.883  11.406  0.1921 -0.0592  0.3425
22606W        W39453   4.128  15.064   0.882  0.0241  0.1697 -0.3523
22607W        W39454   2.044  16.018   3.996  0.1095 -0.0871 -0.0557
22608W        W39455   6.593  10.727  13.364 -0.0690 -0.2027 -0.0687
22609W        W39456   9.893   4.896  14.222 -0.0226  0.0293  0.0956
22610W        W39457   3.883  12.509  13.415 -0.0480 -0.0825 -0.1185
22611W        W39458   4.617   4.551  13.217 -0.0647  0.0602  0.0734
22612W        W39459   5.169  11.150  12.700 -0.0046 -0.1996  0.0717
22613W        W39460  16.990   6.818   0.146  0.3150 -0.1153 -0.0500
22614W        W39461  17.511   2.725  11.351  0.2134  0.1803 -0.0927
22615W        W39462   9.708   4.121  14.893 -0.1585  0.0691 -0.1260
22616W        W39463   2.547   4.838  13.436  0.0894  0.0370  0.1044
22617W        W39464   4.914   0.179   1.923 -0.1180  0.2344 -0.0289
22618W        W39465   2.035   7.570   2.625  0.2401  0.1698  0.3482
22619W        W39466  12.381  15.221   0.895 -0.0151 -0.0862 -0.0578
22620W        W39467   8.771   9.834   4.898  0.3066 -0.0417  0.0597
22621W        W39468  13.397   4.300   5.799 -0.1332 -0.0124  0.0635
22622W        W39469   4.465   9.596   2.874  0.3255  0.0133 -0.0669
22623W        W39470  14.432   3.574   4.476 -0.1153 -0.1469  0.0003
22624W        W39471   4.844   5.270  16.099 -0.1098  0.1898 -0.0281
22625W        W39472  16.001   9.330  16.108  0.2398 -0.2186  0.5245
22626W        W39473   7.521   0.688   4.721 -0.1926  0.4127 -0.1451
22627W        W39474   6.154  15.254   0.124 -0.1532 -0.1544 -0.1412
22628W        W39475   5.022  14.980  14.956  0.0410 -0.1783 -0.0786
22629W        W39476  12.919   1.846  12.466 -0.0138 -0.0413 -0.1225
22630W        W39477  15.841  12.624  16.127  0.3149  0.3555  0.0887
22631W        W39478   0.541   1.393  12.157  0.2605 -0.0459  0.0856
22632W        W39479   9.751  12.242   1.272 -0.0820 -0.4374 -0.0487
22633W        W39480   2.975   5.840  11.985  0.1545  0.1264  0.1016
22634W        W39481   5.382   1.179  14.220  0.3302  0.2268  0.2910
22635W        W39482  12.406  12.538  13.218  0.0059  0.0313  0.2912
22636W        W39483   7.395   6.275  11.162 -0.1357 -0.0373  0.1317
22637W        W39484   9.879   1.318   5.984 -0.1476 -0.0250  0.2263
22638W        W39485   1.321  16.885  14.629 -0.1781 -0.0610  0.0506
22639W        W39486   8.489   7.601   1.000 -0.1602 -0.4587  0.2819
22640W        W39487  11.203   2.061  15.452 -0.2649 -0.3054 -0.0955
22641W        W39488   0.473  12.443   1.394 -0.3179 -0.1459  0.4077
22642W        W39489  10.185  16.174  12.058  0.3247  0.0305 -0.2587
22643W        W39490   6.047   6.419   2.054 -0.0100  0.0938  0.1039
22644W        W39491   6.770  12.205  14.864  0.1494  0.0421 -0.0542
22645W        W39492   1.361   8.293   3.244  0.2263  0.0387  0.1859
22646W        W39493  15.734   0.656   5.206 -0.0598 -0.2123 -0.2104
22647W        W39494  13.608   5.904   2.736 -0.1810  0.0325  0.0317
22648W        W39495  11.504  15.431  14.538 -0.0867  0.0634  0.0764
22649W        W39496   1.280  15.149   2.750 -0.0446 -0.1809 -0.1118
22650W        W39497   2.217   2.982   1.616  0.1849 -0.1096 -0.1422
22651W        W39498   1.413  14.481   1.431 -0.2109 -0.0597 -0.2936
22652W        W39499  16.206  11.692  14.016 -0.0800 -0.0962  0.0452
22653W        W39500   8.965   6.498  13.996  0.2390 -0.1369  0.1492
22654W        W39501   1.330  17.280  11.988 -0.1450 -0.1189  0.0612
22655W        W39502   9.840   6.227  15.061  0.1245 -0.1863  0.1619
22656W        W39503   2.278  10.888  13.869  0.2197 -0.1295  0.2257
22657W        W39504   3.600   7.139   0.805 -0.1515  0.0429  0.0628
22658W        W39505  17.127  16.334   0.714 -0.2710 -0.0945  0.1698
22659W        W39506  18.120  12.119   1.420 -0.0062 -0.2298  0.0371
22660W        W39507   4.845   2.189  13.086  0.1923  0.0325 -0.0556
22661W        W39508   6.649  11.621   0.741 -0.1073 -0.1038  0.1792
22662W        W39509   3.416   4.746   3.040 -0.0525  0.0213 -0.3845
22663W        W39510   0.891  12.351   2.243  0.1727 -0.0436  0.0844
22664W        W39511  15.047   0.189   1.082  0.0647 -0.0090  0.2139
22665W        W39512  13.588   7.961   1.093 -0.0597  0.0488  0.2046
22666W        W39513   9.959  12.579   4.812 -0.2643 -0.0594 -0.1445
22667W        W39514  18.042  10.197  14.511 -0.0950 -0.1793 -0.0377
22668W        W39515   6.822  15.174   1.836  0.0940 -0.0454 -0.1581
22669W        W39516   9.407  12.790  13.884 -0.1434  0.1448 -0.2170
22670W        W39517  17.833  16.283  13.559  0.0294  0.2370  0.0293
22671W        W39518  11.057  14.802   3.630  0.0921  0.2027  0.3335
22672W        W39519   5.395  11.545   4.129  0.4523 -0.1853 -0.2211
22673W        W39520  17.832  10.058   0.368 -0.0616 -0.0926 -0.0989
22674W        W39521  12.097   7.507   4.647 -0.1935 -0.0008  0.0531
22675W        W39522   9.942   5.579   2.824  0.1584 -0.0077  0.2680
22676W        W39523  16.006   4.145  11.667 -0.2733  0.0481  0.0074
22677W        W39524   1.950  12.241   4.325  0.0331  0.1736  0.0345
22678W        W39525  11.924  12.680  15.068 -0.2344  0.0588  0.2422
22679W        W39526  10.242  16.546   1.841 -0.3234  0.1485 -0.0475
22680W        W39527   1.318   8.563   1.710 -0.0403 -0.1356  0.0381
22681W        W39528  15.993  11.591   1.254  0.0432 -0.0738  0.0384
22682W        W39529   4.111   2.827  12.777 -0.2950  0.0293 -0.0431
22683W        W39530   2.874  17.892  10.043  0.0236  0.1960 -0.0537
22684W        W39531  11.254   2.585   3.351 -0.3561  0.2250  0.2609
22685W        W39532  11.592  11.843  15.813 -0.2958 -0.1580  0.0206
22686W        W39533  15.128   7.837  12.454  0.2435  0.1560  0.2971
22687W        W39534   6.344   0.532   0.137 -0.1846 -0.4916 -0.0805
22688W        W39535   2.645   8.915  13.122 -0.2238 -0.1408  0.0573
22689W        W39536  12.701   9.803   1.806 -0.1589  0.1064 -0.0601
22690W        W39537   8.158  12.129  13.755 -0.0293 -0.2368  0.1034
22691W        W39538  16.279  16.314   0.135  0.2200  0.1013  0.1058
22692W        W39539  10.812  16.903   2.540 -0.1600 -0.2449 -0.1170
22693W        W39540  15.980  11.182   2.346 -0.2286 -0.2020  0.0550
22694W        W39541   1.473  13.558   1.632  0.4013 -0.0149  0.2147
22695W        W39542  12.628  12.963   3.488 -0.0422  0.2406 -0.0668
22696W        W39543   6.601  12.682  13.207  0.3338 -0.3705 -0.2250
22697W        W39544  16.354  13.452  15.359  0.1475  0.1529  0.2144
22698W        W39545   5.419   6.821   3.223  0.0599 -0.1927  0.0852
22699W        W39546  10.639   3.525  11.617 -0.2368  0.0332 -0.2063
22700W        W39547   7.766   8.719   2.793 -0.1522  0.0971 -0.0432
22701W        W39548   0.621   3.435   4.883 -0.0818  0.1828  0.1246
22702W        W39549   3.693  15.104  15.290  0.2904 -0.0898 -0.0546
22703W        W39550  16.118   3.965  16.171  0.1649  0.0274 -0.2072
22704W        W39551  14.556  15.011   0.610  0.1718  0.1606 -0.1500
22705W        W39552  10.794  17.571  12.233  0.2447 -0.0352  0.3785
22706W        W39553  17.533  11.926  15.000 -0.2721 -0.5445 -0.0154
22707W        W39554   5.462  11.498   2.272  0.0654 -0.0101  0.2994
22708W        W39555   9.890   2.589  13.663  0.1275  0.1742  0.1431
22709W        W39556   6.775   3.391  11.145 -0.3429 -0.2538 -0.2823
22710W        W39557   5.276   1.332   4.429 -0.1813  0.0184 -0.3128
22711W        W39558  11.085   7.830   4.634 -0.0827 -0.0012  0.3181
22712W        W39559   6.308  17.742  12.751  0.0547  0.3020  0.1389
22713W        W39560   3.564  13.859  15.159  0.0063  0.2067  0.1584
22714W        W39561   2.209  13.437  11.228 -0.1375 -0.1257 -0.3838
22715W        W39562   6.519   3.692   2.598  0.5470  0.0066  0.1455
22716W        W39563  17.294  11.346   1.589 -0.0728 -0.0628  0.1149
22717W        W39564  13.205   6.933   1.935 -0.1565 -0.1548  0.2640
22718W        W39565   1.728  16.203  13.338  0.0511  0.1297 -0.0939
22719W        W39566  12.280   4.359   0.616  0.0916 -0.0772 -0.3378
22720W        W39567  15.613  14.178   0.890 -0.0046  0.1876  0.1896
22721W        W39568   7.004  14.643   1.652  0.0251  0.3370  0.1294
22722W        W39569   6.746  14.855  10.440 -0.0311  0.0185 -0.0265
22723W        W39570  11.881   2.966  14.946 -0.0436  0.0702  0.2735
22724W        W39571  16.260  13.389   3.726 -0.0680 -0.0624 -0.1722
22725W        W39572  13.694   3.826  12.861  0.0754 -0.2700 -0.1117
22726W        W39573   5.945  13.848   2.397 -0.2490 -0.4041 -0.2529
22727W        W39574   4.156   5.739   1.374 -0.1266 -0.0403  0.1328
22728W        W39575  10.086  10.425  12.880  0.3508  0.0934 -0.1018
22729W        W39576  17.838   7.490   3.558 -0.0817  0.0606 -0.1858
22730W        W39577  17.547  11.663   0.291  0.0645  0.0885 -0.0804
22731W        W39578  12.007  15.292   1.588  0.3170  0.0271  0.4822
22732W        W39579  15.823   1.589  13.174 -0.2487 -0.2496  0.3102
22733W        W39580  15.246   2.259  15.937 -0.4408 -0.0504  0.2010
22734W        W39581  12.425  12.783   0.572  0.2044 -0.0791  0.0496
22735W        W39582  16.329  14.439  15.545  0.1390 -0.1649  0.0229
22736W        W39583   0.190   1.024  13.414 -0.0402  0.1704 -0.2734
22737W        W39584   3.957   8.013   5.934 -0.2512  0.1565 -0.0565
22738W        W39585  11.638  11.844  15.271  0.1023 -0.0056  0.3774
22739W        W39586   8.256   9.110  12.958 -0.0181  0.2095 -0.2959
22740W        W39587  12.567  14.231  16.148 -0.2557 -0.1266  0.2752
22741W        W39588   5.893   1.110  15.995  0.2027  0.0341 -0.0732
22742W        W39589  11.096   8.908  12.745 -0.0471  0.0808  0.2159
22743W        W39590  14.126  10.181  13.272  0.2211 -0.2088 -0.0930
22744W        W39591   6.305  16.403   0.363 -0.3158 -0.1528 -0.0145
22745W        W39592   6.335   6.839  11.574  0.0819  0.0359 -0.1730
22746W        W39593  17.938  16.873  13.138 -0.1409 -0.1871  0.0078
22747W        W39594  10.473   7.694   0.843  0.2117 -0.1947  0.0119
22748W        W39595   4.556   3.670  13.976 -0.0785 -0.0716  0.0296
22749W        W39596   9.210  10.497  13.010  0.0685  0.0806  0.0873
22750W        W39597  12.421  16.974   5.264 -0.1671 -0.1171  0.2251
22751W        W39598  15.063  13.898   5.207 -0.0171 -0.1104 -0.3516
22752W        W39599  13.426   6.124  11.636 -0.2615 -0.1255 -0.0400
22753W        W39600  13.592  11.258  13.595 -0.2339  0.1692 -0.1693
22754W        W39601   8.911  15.274  13.259  0.3280  0.1853 -0.0752
22755W        W39602  14.194   7.352  14.001 -0.1143 -0.0218 -0.5023
22756W        W39603  12.191   5.512   4.329 -0.1275  0.2495 -0.1711
22757W        W39604   5.381   5.053  11.961  0.3145 -0.0120 -0.0952
22758W        W39605  15.287   3.304  10.694 -0.0109  0.2003  0.0102
22759W        W39606   1.030   7.936  13.650  0.2026  0.0021 -0.1634
22760W        W39607   9.658  15.058   1.161 -0.1527  0.0079  0.0363
22761W        W39608   4.583   9.605   3.885  0.2178  0.0329 -0.1664
22762W        W39609   8.475   8.476  11.853  0.0978  0.1273 -0.2106
22763W        W39610  12.066   3.048  10.678  0.2042  0.1329  0.2445
22764W        W39611  11.056  10.761   4.851 -0.0243 -0.1704 -0.1586
22765W        W39612   3.591  16.457   1.631 -0.0027 -0.2766  0.2163
22766W        W39613  12.974   3.592   3.336  0.1135 -0.0510  0.2083
22767W        W39614  12.953   2.460   2.619 -0.0095  0.0431  0.1574
22768W        W39615   4.790  10.577  16.024 -0.0663  0.1530 -0.3805
22769W        W39616   0.266   6.193  15.175 -0.0218  0.0623 -0.0175
22770W        W39617   2.785  15.434   5.523  0.0359  0.0431  0.3521
22771W        W39618  10.622   9.542   2.560 -0.2770  0.0568  0.0312
22772W        W39619   9.669   2.621   4.274  0.0214 -0.1947  0.0135
22773W        W39620  10.260  11.246  12.442 -0.4170  0.2237 -0.1267
22774W        W39621  11.754  14.074   3.960  0.2121  0.0687  0.0595
22775W        W39622   6.646  11.773   2.997 -0.0247 -0.0085  0.0372
22776W        W39623   3.666   2.972  14.078  0.2335 -0.3917  0.1361
22777W        W39624  13.907  10.925   3.434  0.3788 -0.0227 -0.0595
22778W        W39625  17.882  14.727  14.416 -0.1078 -0.0758  0.0273
22779W        W39626   8.278  12.358   0.972  0.1817  0.0141  0.0320
22780W        W39627  17.061  17.593  13.798 -0.1270  0.1333 -0.1904
22781W        W39628  13.562  17.763  15.417  0.0525  0.1986 -0.2506
22782W        W39629  14.841   5.049   0.287 -0.2138 -0.0212  0.2430
22783W        W39630   1.944  16.790   2.346  0.1549 -0.1950 -0.0239
22784W        W39631   6.368   8.715   3.440  0.0847  0.0764 -0.3488
22785W        W39632  13.062  12.202   4.588 -0.1459  0.0607 -0.1210
22786W        W39633   2.959   7.361  14.805  0.1013 -0.2364  0.0524
22787W        W39634   0.329  14.888  12.318 -0.1459  0.1256 -0.0797
22788W        W39635   4.531   4.902   3.988  0.3637 -0.1916  0.2127
22789W        W39636  12.429   5.688   2.001 -0.0512 -0.1391  0.2665
22790W        W39637  14.770  10.808  10.888 -0.2808  0.2172 -0.0140
22791W        W39638   6.639  16.480   5.352  0.3474 -0.0342 -0.0212
22792W        W39639  11.007  15.635  13.299  0.1294  0.2846 -0.1015
22793W        W39640  15.578   4.058   1.153  0.0835  0.1206 -0.0599
22794W        W39641  11.881  17.850   3.774 -0.0854 -0.1313 -0.0701
22795W        W39642   7.454  12.944  10.669 -0.0506  0.0510  0.0897
22796W        W39643  14.581  11.474   1.087  0.2072  0.0211  0.3453
22797W        W39644   1.265   8.074   5.078 -0.0141 -0.0723  0.0579
22798W        W39645  13.509   4.688  11.235  0.2916  0.3514 -0.3236
22799W        W39646  12.171  14.253   3.777 -0.0655 -0.2155  0.2330
22800W        W39647   4.992   6.394  12.344 -0.1168  0.0370 -0.3421
22801W        W39648  16.621   2.689  14.272 -0.2983 -0.1934  0.0060
22802W        W39649  12.676  14.520   1.670  0.0104 -0.1145 -0.0910
22803W        W39650   6.672  15.709   3.620 -0.1028 -0.1426 -0.1280
22804W        W39651  11.674   7.622   2.482 -0.2599 -0.0367 -0.1774
22805W        W39652  15.349  17.042  13.914 -0.0663  0.1691  0.1586
22806W        W39653   6.303   2.120   0.864 -0.2862 -0.0397  0.0594
22807W        W39654  17.288   8.989  14.290  0.2259 -0.1086  0.1483
22808W        W39655   9.354   6.837   1.121 -0.0394  0.1082  0.1424
22809W        W39656  15.905   3.126  12.128 -0.1323  0.0741  0.0417
22810W        W39657   2.511   9.134  15.509  0.0951 -0.1507  0.1978
22811W        W39658  12.636  18.000   6.287 -0.1411  0.1627  0.0871
22812W        W39659  17.848  10.038  12.826  0.2259  0.0245 -0.1422
22813W        W39660   0.420  11.129   0.304 -0.1460  0.2349  0.0712
22814W        W39661  10.210   7.224  15.944 -0.2435 -0.2115 -0.0811
22815W        W39662   8.044   8.667  11.618 -0.1589  0.1656 -0.1333
22816W        W39663  12.367  16.431   4.727 -0.2059 -0.0535 -0.3444
22817W        W39664   1.795  11.794  12.543  0.0099 -0.0508  0.0558
22818W        W39665   0.004   1.535   1.154  0.0523  0.2150 -0.0566
22819W        W39666   6.204   4.131   2.592  0.0660 -0.1270  0.0369
22820W        W39667   0.669   5.843  11.699  0.1573  0.1406  0.0021
22821W        W39668  13.826  11.380  14.805 -0.1210  0.0215 -0.2146
22822W        W39669  17.808   0.494   4.423 -0.0991  0.1499  0.0791
22823W        W39670  10.955   4.140   1.398  0.1664  0.2664  0.1016
22824W        W39671  14.287   6.523   4.140  0.2876 -0.1178 -0.1664
22825W        W39672   2.380   2.939   0.310  0.1601 -0.3603 -0.1918
22826W        W39673  17.434   7.070  11.155  0.1341  0.0482  0.0347
22827W        W39674   8.769   9.713  14.593  0.1096  0.0119 -0.0994
22828W        W39675   3.231   7.767  11.522 -0.2205  0.5048  0.0905
22829W        W39676  13.649  12.159   0.402  0.0944  0.0033 -0.0114
22830W        W39677   1.705   4.677   0.292  0.2573  0.0814  0.1290
22831W        W39678   2.878   3.929  13.383  0.1964  0.2435  0.0499
22832W        W39679  16.538  16.592  15.408 -0.0993  0.3093 -0.1417
22833W        W39680   6.672  18.061  14.702 -0.0884 -0.1224  0.1231
22834W        W39681   0.223  14.649  14.784  0.0924 -0.0203  0.1026
22835W        W39682  10.676   4.020   3.614  0.0529 -0.1411 -0.0602
22836W        W39683   7.926  17.186   4.807  0.4231  0.0489 -0.3348
22837W        W39684  14.752  15.890   3.723 -0.0343  0.2005 -0.1125
22838W        W39685   9.631  10.752  14.943 -0.0816 -0.3650 -0.0048
22839W        W39686  15.517  15.172   4.744 -0.1607  0.1018  0.0743
22840W        W39687   9.357  10.083   2.562  0.0277  0.1849  0.0346
22841W        W39688  17.680  13.868   4.986 -0.1169  0.1940 -0.1408
22842W        W39689  15.317  10.444  13.343  0.4000  0.4467 -0.1209
22843W        W39690  10.752  11.811   5.473 -0.0657  0.0151 -0.0202
22844W        W39691  10.543   1.767  11.255 -0.0767 -0.2817 -0.3426
22845W        W39692   0.660   6.849  11.462 -0.0109 -0.0305  0.0252
22846W        W39693  13.151   6.046   2.995  0.0854 -0.2166 -0.0011
22847W        W39694  14.903  14.574   0.377  0.1315  0.3035  0.1543
22848W        W39695   3.586  10.120   1.167 -0.3827 -0.3975  0.0124
22849W        W39696  12.451  10.360   3.855  0.1223  0.2514  0.1042
22850W        W39697  17.973  18.019   2.270  0.0087 -0.2909  0.2961
22851W        W39698  18.313  14.235   4.419 -0.1380 -0.1954  0.0288
22852W        W39699  16.845  14.848   4.158  0.1716 -0.1821  0.0890
22853W        W39700  13.390  10.404   5.098  0.1045 -0.1830  0.0306
22854W        W39701   9.009   6.344   4.370 -0.0116  0.0825 -0.0438
22855W        W39702   4.504  11.199   1.715  0.0364 -0.2999  0.3790
22856W        W39703  18.211  15.660  12.911 -0.1819  0.1683  0.0648
22857W        W39704  12.707   0.160   0.317  0.2474  0.1116  0.2394
22858W        W39705  13.778  17.436  15.778  0.2883  0.1561  0.0871
22859W        W39706   1.326  11.224   3.433 -0.2693  0.2123 -0.2517
22860W        W39707   9.509   4.571   2.877  0.5120 -0.1365  0.3433
22861W        W39708   7.441   1.667   4.943 -0.0897 -0.4174  0.0734
22862W        W39709  12.733  17.212   5.554  0.0771  0.4048 -0.1189
22863W        W39710   3.064  10.174  12.019 -0.1090  0.1678 -0.1403
22864W        W39711  11.195   7.650   0.618  0.0682 -0.1266 -0.0174
22865W        W39712  12.264  10.780  15.127 -0.1854 -0.0603 -0.3088
22866W        W39713  11.765   7.925   4.649 -0.2118 -0.1709 -0.3669
22867W        W39714  11.233   2.457   4.475 -0.0274  0.1615  0.0860
22868W        W39715  17.232  10.882  12.798  0.1725  0.3261 -0.2889
22869W        W39716  17.248   5.578   0.777 -0.0383  0.0938  0.0140
22870W        W39717  15.056  17.913  12.880 -0.0877 -0.2974 -0.1160
22871W        W39718   7.346   6.777   4.387  0.3439  0.0868  0.1179
22872W        W39719  13.083  12.317  11.609 -0.1581 -0.0735 -0.0594
22873W        W39720   3.401   6.549   5.515  0.2669 -0.1205 -0.0149
22874W        W39721  12.533   3.313   1.356 -0.2881 -0.0654 -0.1998
22875W        W39722   3.859  15.771   1.693  0.0780 -0.1909 -0.0006
22876W        W39723  11.462   9.374   1.780  0.0257  0.1440  0.2750
22877W        W39724  12.608   3.415   1.920  0.0431  0.0786 -0.0666
22878W        W39725  13.786  10.888  14.541  0.1277  0.2330  0.3304
22879W        W39726  14.229   0.045   5.933  0.0816 -0.0751  0.2654
22880W        W39727  10.124  13.306   0.003 -0.1505 -0.1202 -0.4455
22881W        W39728   3.667  15.571   5.342  0.2074  0.0780 -0.0904
22882W        W39729   7.248   6.904   5.061 -0.1135 -0.0450 -0.3179
22883W        W39730  14.155  16.429  12.564  0.0002  0.0083  0.1104
22884W        W39731   7.864  15.039   3.115 -0.3151  0.0052  0.0023
22885W        W39732   9.470   7.665   2.861  0.1661  0.0137  0.0818
22886W        W39733   0.908   8.639   2.597  0.0261 -0.2016 -0.1298
22887W        W39734  11.712   8.039  15.867 -0.2458  0.3312  0.4230
22888W        W39735   4.080   9.953   0.804  0.0950 -0.0690 -0.0216
22889W        W39736   2.003  11.502   2.039  0.1643 -0.0179  0.2875
22890W        W39737  17.723   5.675  11.489  0.1920  0.2167 -0.0945
22891W        W39738  17.855  10.089   4.331 -0.2218 -0.1015 -0.1719
22892W        W39739   7.727  11.052   2.471 -0.1459 -0.0000 -0.1852
22893W        W39740   2.914  15.866   3.164 -0.0881  0.0518 -0.1153
22894W        W39741   3.159   1.560   5.670  0.1914 -0.0110 -0.1171
22895W        W39742  16.569  16.296   1.562  0.1351 -0.1802 -0.1513
22896W        W39743   8.525  15.303  13.610  0.2563 -0.0058  0.2582
22897W        W39744   3.320  11.976   3.388  0.0214  0.2748  0.1747
22898W        W39745   9.226   0.988   4.044  0.5446 -0.0701 -0.2551
22899W        W39746   1.666  13.055  15.332  0.0004 -0.0558  0.2838
22900W        W39747   6.819   1.374   0.502  0.2431 -0.0366 -0.1134
22901W        W39748   6.390   4.933   3.801  0.2247  0.1629 -0.2192
22902W        W39749  14.974  17.833   1.138 -0.2089  0.1481 -0.2716
22903W        W39750   3.040  13.180  15.346 -0.2050 -0.0277  0.0228
22904W        W39751  18.176   6.330   2.108  0.2922  0.0229 -0.2127
22905W        W39752   0.195  11.900   5.193 -0.1703 -0.0449 -0.1942
22906W        W39753  15.196  16.584   2.457 -0.0188  0.1574 -0.2519
22907W        W39754  11.995   5.562  14.701 -0.4049  0.0078  0.0948
22908W        W39755  10.177  14.356   2.325 -0.0546 -0.3849  0.2961
22909W        W39756   2.606  15.845  15.657 -0.0333 -0.0096 -0.0823
22910W        W39757  11.719   2.137   4.772 -0.2535  0.0267  0.1769
22911W        W39758  10.399  10.017   2.425  0.0472  0.1075 -0.1538
22912W        W39759   8.988  11.404   5.934  0.1357  0.1462  0.0528
22913W        W39760  10.780   2.772   2.960  0.1083  0.0321  0.0230
22914W        W39761  13.598   6.615   2.001 -0.0948 -0.4567 -0.0085
22915W        W39762   8.245   4.063   3.622 -0.0548  0.0754  0.0730
22916W        W39763  10.297  18.106  15.585  0.2975 -0.2333 -0.0540
22917W        W39764  18.052   1.677  12.400  0.1316 -0.0369  0.0340
22918W        W39765  12.791   6.637  12.640 -0.0852 -0.2771  0.2398
22919W        W39766  18.095   6.820   2.017  0.1654  0.2279  0.0286
22920W        W39767   6.878   1.759   0.223 -0.2501  0.3040 -0.2140
22921W        W39768   2.977  11.761   2.134 -0.1344  0.2417  0.2542
22922W        W39769   8.774  16.554  14.067  0.2448 -0.2039 -0.2110
22923W        W39770   9.130   3.431  15.002  0.0475  0.0356 -0.1795
22924W        W39771   4.277   4.946   2.422  0.0604 -0.0286 -0.1068
22925W        W39772  10.212  15.002  12.399  0.0545 -0.3203  0.2536
22926W        W39773  10.585   8.889   0.647  0.0570  0.0326  0.1908
22927W        W39774   0.458   8.293   3.742  0.0308 -0.0050  0.1725
22928W        W39775  13.968  12.303  11.744 -0.0711 -0.2874 -0.0684
22929W        W39776  10.473   2.196   0.973 -0.0087 -0.2254  0.0944
22930W        W39777   0.481   2.194  12.814  0.6080 -0.0345 -0.0091
22931W        W39778   6.119  15.783   1.786 -0.2140  0.1073 -0.2036
22932W        W39779   5.104   4.777  15.233 -0.0534  0.0140  0.1192
22933W        W39780   8.246  17.518   3.598 -0.2075  0.0207  0.0260
22934W        W39781   0.580   0.164   5.842  0.1852 -0.1449 -0.1972
22935W        W39782  12.690   3.360  11.357 -0.1001 -0.1385 -0.3888
22936W        W39783   2.940  13.702   4.047 -0.2316  0.0147  0.0250
22937W        W39784   2.116   6.076  14.324  0.2269 -0.0201 -0.1801
22938W        W39785   8.158  15.222   2.733 -0.0414 -0.0485 -0.0238
22939W        W39786   2.551   4.664   3.804 -0.1384 -0.2070 -0.3806
22940W        W39787   2.720  13.987  15.112 -0.1867 -0.2282  0.0896
22941W        W39788   0.528   9.903   2.144  0.1382 -0.0595 -0.2908
22942W        W39789  14.360  18.045   4.664 -0.0352 -0.3566  0.1834
22943W        W39790  14.606   0.205  12.366  0.0514 -0.1166  0.3223
22944W        W39791   4.386   9.633   1.050 -0.0255  0.3755 -0.0119
22945W        W39792  13.647  10.810   5.055 -0.3224 -0.4864  0.1018
22946W        W39793  17.943   1.853  13.503 -0.2075 -0.3587 -0.0773
22947W        W39794  14.165   2.430  11.243 -0.1431 -0.0560 -0.0989
22948W        W39795  11.348   4.129  12.957 -0.1047 -0.1841 -0.1633
22949W        W39796   4.393   0.322  11.609  0.0303 -0.2874 -0.0931
22950W        W39797   2.302   6.655   6.381 -0.0675  0.0081 -0.0465
22951W        W39798   2.500  16.489   0.149 -0.0276 -0.0557 -0.0496
22952W        W39799   3.671   6.369  12.786  0.3551  0.2516 -0.0268
22953W        W39800  14.978   6.540   0.121  0.1540 -0.1301  0.0402
22954W        W39801   1.892  16.112  15.199 -0.0401 -0.0587  0.1101
22955W        W39802  16.279  17.915  15.242  0.0039  0.1364 -0.1735
22956W        W39803   6.730  15.184   4.354  0.1268 -0.3523  0.1269
22957W        W39804  17.491  12.181  13.789  0.2509 -0.1782 -0.1028
22958W        W39805  17.329  10.467  15.592  0.0475  0.0685  0.2426
22959W        W39806  17.308  13.795  13.451  0.0721 -0.0574  0.3515
22960W        W39807   2.103   7.956   2.371 -0.0032  0.1141 -0.1872
22961W        W39808   5.610  12.950  14.612  0.1312  0.1007 -0.0484
22962W        W39809   5.373  14.242  12.751  0.0367 -0.3269 -0.1304
22963W        W39810  15.657  13.305  14.157 -0.1834 -0.0552 -0.0284
22964W        W39811   7.618  16.570   4.093 -0.1648 -0.0760 -0.1935
22965W        W39812   0.387   9.199   3.679  0.0266  0.2025 -0.0339
22966W        W39813   7.092  12.205  13.862 -0.0125  0.0249  0.3750
22967W        W39814  11.260   5.499   2.758 -0.1135  0.0349 -0.0093
22968W        W39815  16.450  10.259   2.787 -0.1876 -0.0289 -0.0072
22969W        W39816   0.905  14.809  15.640 -0.0446 -0.0315 -0.2708
22970W        W39817   6.017  17.584   0.557 -0.0610 -0.0293 -0.3231
22971W        W39818  10.779  14.836   4.635 -0.2415 -0.0444 -0.2880
22972W        W39819   9.380  18.215   5.228 -0.1597 -0.0003  0.1255
22973W        W39820   4.775   8.298  12.076 -0.5279 -0.1761  0.0829
22974W        W39821  15.662  16.890  15.459 -0.2376 -0.0772  0.0878
22975W        W39822   6.876   7.227  13.721 -0.1516 -0.2122  0.3856
22976W        W39823  16.766  14.175  11.327  0.3579 -0.1481  0.0620
22977W        W39824   9.307  17.836   2.305  0.0026  0.0563 -0.1665
22978W        W39825  12.298  17.178   1.452 -0.1178  0.1324 -0.0882
22979W        W39826  12.332   4.675   3.839  0.0908 -0.3180  0.0111
22980W        W39827  15.114   0.035  11.204  0.1141 -0.2610  0.0829
22981W        W39828   7.027   7.769  15.821  0.2101 -0.0295  0.0090
22982W        W39829   7.358  15.237  12.229 -0.0984  0.2268 -0.0028
22983W        W39830   6.146  16.650   3.338 -0.0066  0.2365 -0.0316
22984W        W39831  15.228  12.771   0.689 -0.1188  0.1400  0.2538
22985W        W39832  10.459  11.162  14.700  0.0506 -0.2974 -0.0980
22986W        W39833   3.758  17.728   3.686  0.1342  0.0428 -0.0683
22987W        W39834   8.741   9.234  14.762  0.0790 -0.0858  0.4632
22988W        W39835   2.599   0.341   0.130  0.0833  0.1659 -0.1703
22989W        W39836   5.358  12.599  13.282 -0.0018  0.1310  0.0501
22990W        W39837  11.827  12.336   3.539 -0.1295 -0.3188 -0.1569
22991W        W39838   4.500   7.511   5.017 -0.1388  0.0298 -0.1626
22992W        W39839  14.499  13.371  15.819 -0.1731 -0.0729  0.1359
22993W        W39840  17.624  18.284   0.970 -0.0065 -0.3023 -0.0424
22994W        W39841   4.038   3.970   4.870  0.0317  0.1377  0.0633
22995W        W39842   2.727   1.719   5.894  0.0100 -0.1491 -0.0756
22996W        W39843  12.531   3.803   1.340  0.0631 -0.0846 -0.0866
22997W        W39844  16.158   6.312  15.972  0.0691  0.0014  0.2138
22998W        W39845  17.618  11.747  11.759  0.0947  0.0673  0.1046
22999W        W39846   4.757   9.767   0.050 -0.0739 -0.2235 -0.2793
23000W        W39847   8.979   5.944   1.947  0.0827 -0.1618 -0.2256
23001W        W39848  13.300   8.792   3.588 -0.2108  0.1193 -0.2968
23002W        W39849   3.464   6.400  13.592  0.2295 -0.3409 -0.2230
23003W        W39850  17.946   9.161   5.319 -0.1559  0.1290  0.0486
23004W        W39851   4.521  14.408   1.844  0.2283  0.1552  0.1639
23005W        W39852  12.937  15.325   1.674  0.3467  0.3269 -0.2000
23006W        W39853   8.390   1.533  11.427 -0.1470 -0.3836 -0.2296
23007W        W39854  13.543  12.042   2.963  0.3078 -0.1649 -0.0297
23008W        W39855   3.776  10.323  15.971 -0.1363 -0.1097 -0.3029
23009W        W39856  12.302  12.519   4.265 -0.0815  0.3063  0.0972
23010W        W39857   3.902   5.487   4.547 -0.1835 -0.0702  0.0227
23011W        W39858   4.588  13.453   6.699  0.0538  0.1029  0.3106
23012W        W39859  10.724  15.734   4.815 -0.1490  0.1400  0.1896
23013W        W39860  11.315   3.981  11.183 -0.1515  0.0884  0.0169
23014W        W39861   6.683  17.805   4.378  0.1090 -0.1095  0.0955
23015W        W39862   2.878  15.629   0.395  0.0839  0.1465 -0.1883
23016W        W39863  11.356  15.504   0.834 -0.1441 -0.2109  0.1626
23017W        W39864   2.076   5.575   2.460  0.2529  0.0913 -0.2733
23018W        W39865  14.292   2.122  13.460 -0.2672 -0.1815  0.1034
23019W        W39866   3.297  16.176  10.875 -0.1503  0.2803 -0.0995
23020W        W39867   6.227  10.987  11.909 -0.1199  0.0842  0.1002
23021W        W39868   2.857   1.591  14.556 -0.0368  0.2783  0.3050
23022W        W39869   8.371   0.714  14.465  0.2129 -0.0795  0.1371
23023W        W39870   7.563  11.038   5.163  0.1361 -0.1789  0.1486
23024W        W39871  15.884   6.527  15.613 -0.0395  0.0234 -0.2631
23025W        W39872  10.442  17.749  14.673 -0.1258 -0.0148 -0.0157
23026W        W39873   1.048   2.615   4.575  0.0835  0.0798 -0.1039
23027W        W39874  13.784   7.266   4.419  0.0341  0.1059  0.1051
23028W        W39875  17.764  17.878   5.378 -0.0765 -0.0312 -0.1102
23029W        W39876  11.715   5.600  11.409  0.3611 -0.1327  0.1972
23030W        W39877  14.169  13.596   2.268 -0.2323 -0.2016  0.0473
23031W        W39878  11.203  17.215  14.872 -0.5165 -0.1470  0.0088
23032W        W39879  17.098   2.064  15.594 -0.1586 -0.1370  0.0467
23033W        W39880   3.603  14.723   4.692  0.3484 -0.1262 -0.1326
23034W        W39881   5.928  14.236   5.534 -0.1473  0.0563 -0.2359
23035W        W39882  12.666   6.662  12.161 -0.2344  0.0068  0.4250
23036W        W39883  11.907  11.278   6.418  0.1285  0.1367 -0.2142
23037W        W39884   9.754  17.882   3.293  0.1189  0.3455 -0.0524
23038W        W39885   7.065   9.599   4.262 -0.2083 -0.2005 -0.0699
23039W        W39886  10.874  10.227   1.526 -0.1953  0.0062 -0.0745
23040W        W39887  15.329  11.288  13.913 -0.1787 -0.2413  0.0743
23041W        W39888   0.570  12.909  13.683  0.2073  0.0954  0.1594
23042W        W39889  11.725  16.340  14.949  0.0979  0.0886 -0.2997
23043W        W39890  14.443   8.732  16.122 -0.3107  0.0044  0.1742
23044W        W39891  11.393   2.168  15.874 -0.0615 -0.2460  0.1275
23045W        W39892  17.185   9.812   2.834  0.2067  0.1007  0.1610
23046W        W39893  17.126   4.997   3.745 -0.0926 -0.1785  0.0178
23047W        W39894  14.991  14.819   3.647 -0.4280  0.1368 -0.0885
23048W        W39895   7.804   9.533   0.115  0.0448 -0.0037 -0.3616
23049W        W39896  13.000   7.252   2.232  0.0776 -0.3169 -0.1301
23050W        W39897  15.702   2.752  15.403  0.0980 -0.3384  0.0167
23051W        W39898   1.474   6.913   2.602 -0.1200 -0.1887 -0.1970
23052W        W39899  10.316  15.724  15.301  0.0895  0.1215  0.0358
23053W        W39900   8.841  11.825   3.823 -0.0118  0.5330  0.1674
23054W        W39901  12.623   3.468   2.462  0.0085 -0.1490  0.1504
23055W        W39902   3.872   7.435  11.769  0.0438  0.2369  0.3015
23056W        W39903  14.207  16.192   4.487  0.0599 -0.1136 -0.1641
23057W        W39904   0.272   7.004   2.045 -0.1961 -0.0387  0.2336
23058W        W39905  17.226   7.021  15.541  0.1911  0.1685  0.0416
23059W        W39906  14.290  10.148   1.268 -0.4901  0.0046 -0.0124
23060W        W39907   0.748  18.227  14.971  0.0091  0.1523 -0.1504
23061W        W39908  17.785  18.217  13.813 -0.1293  0.3898  0.3187
23062W        W39909   8.077   6.938  15.521 -0.0344 -0.1426 -0.2156
23063W        W39910  10.371   9.138   2.323  0.4886 -0.2462 -0.0876
23064W        W39911   5.961  16.865  16.031  0.3185 -0.1487  0.1524
23065W        W39912   2.100   6.173   2.788  0.0769 -0.1083 -0.3911
23066W        W39913  10.185   4.888  14.993 -0.0216 -0.1078 -0.1541
23067W        W39914  10.899  11.423  15.259  0.1486 -0.1089 -0.1098
23068W        W39915  10.678  18.036   0.573 -0.2703  0.2856 -0.1690
23069W        W39916   9.671   8.911  14.620 -0.1147 -0.0332 -0.4283
23070W        W39917   7.550   5.648   3.149  0.0689  0.0758 -0.1342
23071W        W39918   0.943   1.162  13.058 -0.1637  0.2259 -0.0493
23072W        W39919   8.961   7.624  11.064 -0.1105  0.1821  0.2778
23073W        W39920  16.333  17.995   0.014 -0.0510 -0.1848 -0.0815
23074W        W39921  11.291   2.173  11.423 -0.0189 -0.1687 -0.1199
23075W        W39922  11.153  11.790  11.573  0.0706 -0.0113 -0.1852
23076W        W39923   0.172   0.605  14.264 -0.0688 -0.2433 -0.1233
23077W        W39924  12.968   1.896   3.397  0.3378 -0.0934  0.1079
23078W        W39925   2.285  16.953   1.605  0.0134  0.1424  0.3008
23079W        W39926  14.735   1.006  11.137 -0.2580  0.2753  0.0542
23080W        W39927  17.672  13.927  11.719 -0.0181 -0.2192 -0.1252
23081W        W39928  10.407   1.612  12.779  0.0882  0.2478 -0.3271
23082W        W39929   2.393   7.220   1.257 -0.0132 -0.1200  0.0848
23083W        W39930   5.003   3.006  13.662  0.3613 -0.2784  0.2788
23084W        W39931   5.005   4.759   4.196  0.1639 -0.4039 -0.0646
23085W        W39932  11.809  10.314  15.173  0.0373 -0.0170  0.2692
23086W        W39933  11.013  15.417   2.697 -0.2478 -0.1771  0.1485
23087W        W39934   2.717   6.508   2.244  0.1134 -0.1855  0.1450
23088W        W39935   6.787   7.016  11.381 -0.1756 -0.2571  0.0456
23089W        W39936  11.299   4.879  11.950  0.3079  0.1268 -0.0762
23090W        W39937   8.869   4.239   1.652  0.0235 -0.0344  0.2217
23091W        W39938   7.567  11.239   0.406 -0.2705 -0.1524 -0.0969
23092W        W39939   6.499   1.846  12.688  0.0444 -0.2577 -0.0664
23093W        W39940   1.698   4.032   3.074  0.3246  0.3449  0.2992
23094W        W39941   0.724  10.824   1.783 -0.0501  0.1226  0.0508
23095W        W39942   3.565   4.515   4.439 -0.3379  0.0615 -0.3601
23096W        W39943   4.704   3.844  15.052 -0.6219 -0.0086  0.2134
23097W        W39944  17.258  12.043   0.469  0.2012  0.2427 -0.1043
23098W        W39945   6.027   3.238   4.394 -0.4240 -0.5032 -0.1611
23099W        W39946   9.759  16.399   5.362 -0.0517  0.0600 -0.0567
23100W        W39947  15.003  17.603   2.194 -0.0135 -0.0262  0.0034
23101W        W39948  15.888  18.328  14.053  0.1651  0.3154  0.0822
23102W        W39949   3.908   1.507  14.121 -0.1854  0.2175 -0.0300
23103W        W39950  13.192  18.074  15.609  0.2364 -0.2641  0.3879
23104W        W39951  18.230  14.730   4.295 -0.2191  0.1863  0.0014
23105W        W39952   4.950   8.184  13.733 -0.2207  0.1026  0.0856
23106W        W39953  14.705  16.552  15.654 -0.2322  0.0948  0.1887
23107W        W39954   6.561   7.368  11.720 -0.3265 -0.3201  0.0955
23108W        W39955  14.059   1.194  11.793 -0.1316 -0.3327 -0.3312
23109W        W39956   0.426   5.730  12.730 -0.2135  0.0643  0.0686
23110W        W39957   9.257  15.242  14.151  0.2157  0.2318 -0.0312
23111W        W39958  13.963  16.499   6.142  0.0615 -0.3190 -0.2070
23112W        W39959   0.904  15.644  11.838  0.0486 -0.0858  0.0572
23113W        W39960  17.020  14.532   2.446 -0.1627 -0.0323  0.2313
23114W        W39961   1.976   3.573   3.322 -0.0212  0.1576 -0.1166
23115W        W39962  17.386   1.288   2.016  0.1168  0.0243  0.2557
23116W        W39963  13.746   5.892   1.610  0.1428  0.0398 -0.2948
23117W        W39964  12.666   9.518  13.223  0.1399  0.1147 -0.1381
23118W        W39965  13.112   4.071  11.860  0.0874  0.0746 -0.0381
23119W        W39966  17.665   6.129  11.776 -0.1294  0.2462 -0.0437
23120W        W39967   4.471  13.347   4.992 -0.1410 -0.2420  0.0084
23121W        W39968  15.010  11.868   3.316 -0.0114 -0.1274  0.0274
23122W        W39969   7.570   4.473   3.640 -0.0065 -0.4426 -0.2762
23123W        W39970   4.996  13.827  12.640  0.0810 -0.1998  0.0535
23124W        W39971  16.146   7.242   0.171  0.0218  0.1453  0.0119
23125W        W39972   6.773  10.160  15.467 -0.2698 -0.1205 -0.1362
23126W        W39973  10.414   6.959  15.515 -0.1479 -0.2771 -0.0479
23127W        W39974  11.975  12.111  12.309  0.0297  0.0862 -0.3065
23128W        W39975   8.467   8.036  13.682 -0.2527  0.1567 -0.0343
23129W        W39976   9.788  14.429  13.625 -0.1689  0.0760  0.2005
23130W        W39977  10.573   1.917   0.545 -0.0497  0.0972  0.2848
23131W        W39978  10.900   3.121  12.359 -0.3034 -0.0231  0.3626
23132W        W39979   1.042   1.245   1.718 -0.0743 -0.2741 -0.1740
23133W        W39980   0.005   3.931   0.423  0.3172 -0.0380  0.0641
23134W        W39981  16.302   8.286   4.535  0.1114  0.1620  0.1302
23135W        W39982   5.784   6.034   3.072  0.3284  0.3652  0.0638
23136W        W39983   6.201   9.419   1.681  0.3184 -0.0004 -0.1348
23137W        W39984   2.879  11.644   3.650  0.0662  0.1454 -0.1305
23138W        W39985   6.480  17.938   0.325 -0.0021  0.2230 -0.0880
23139W        W39986   0.134  15.977  13.169 -0.1129  0.0162 -0.2792
23140W        W39987   9.805   6.066   5.128  0.0633  0.1004  0.1846
23141W        W39988  18.160   9.637   1.381 -0.0593  0.1558  0.3929
23142W        W39989   0.151  13.054  10.829 -0.2314 -0.0598 -0.2037
23143W        W39990   5.357   3.277  12.087  0.0136 -0.1708  0.0052
23144W        W39991   1.753  17.158  16.020 -0.3033 -0.0910  0.1490
23145W        W39992  15.442  16.458   5.229 -0.1636  0.0688 -0.1338
23146W        W39993   3.136   1.133  14.483 -0.2465  0.0611 -0.1705
23147W        W39994  15.043  15.059  11.377 -0.0861  0.2185  0.0149
23148W        W39995   6.535   7.542  12.378 -0.0556 -0.0537  0.4871
23149W        W39996  11.803  11.072   3.917  0.3121  0.0652  0.0114
23150W        W39997   1.775   2.787  12.528  0.0997 -0.0866 -0.0676
23151W        W39998   3.960   8.892   2.730 -0.2700  0.0165  0.1085
23152W        W39999   9.764   1.790   2.535  0.3005 -0.0122 -0.0979
23153W        W40000  14.782   3.679  14.895  0.1096  0.1178 -0.1999
23154W        W40001   6.376  16.978   3.646 -0.0564  0.0769 -0.1490
23155W        W40002   4.663   3.600   4.369  0.0590 -0.2249 -0.2814
23156W        W40003  17.682   5.219   2.679  0.1213  0.2312 -0.2273
23157W        W40004   3.657   0.307  12.005  0.0785 -0.3226 -0.2283
23158W        W40005  13.617  15.432   4.292  0.0805 -0.2403 -0.2570
23159W        W40006  13.409  13.364   3.940  0.3645 -0.1097 -0.0278
23160W        W40007   9.170  12.170  16.187  0.0848  0.0770  0.2786
23161W        W40008   0.151  15.954   4.896  0.0535 -0.0357 -0.0586
23162W        W40009   6.658  15.623  12.015  0.2015  0.0279 -0.0276
23163W        W40010   5.408  14.586   0.893  0.0854 -0.0078 -0.1295
23164W        W40011  12.471   7.438  15.731  0.0447 -0.0198  0.2348
23165W        W40012   0.545   9.378  15.200  0.1050  0.0856  0.1544
23166W        W40013  14.529   0.265   0.821 -0.2572  0.0225 -0.2179
23167W        W40014   7.620  15.931   2.749  0.0076 -0.0410 -0.0837
23168W        W40015  15.334   9.304   3.055 -0.0909  0.3454  0.1080
23169W        W40016  14.818   5.962  15.013  0.1552  0.3571 -0.0619
23170W        W40017  14.344  15.589  16.003 -0.3860  0.1964  0.0860
23171W        W40018  13.356   5.223  16.099 -0.2186  0.0788  0.2994
23172W        W40019   9.262  17.272   3.496 -0.0499 -0.2111 -0.2317
23173W        W40020   7.950  15.107   2.177  0.0461  0.1334  0.0033
23174W        W40021   9.544  12.140  12.555 -0.2134  0.1040  0.1995
23175W        W40022  12.032   8.136   0.183  0.0916 -0.0999  0.2141
23176W        W40023   6.685  18.301   2.218 -0.0586 -0.0536  0.0102
23177W        W40024   5.554  12.258  15.144 -0.0431 -0.1492  0.2505
23178W        W40025   5.743  15.689  11.861 -0.0663  0.0734  0.2236
23179W        W40026   1.904   6.810   1.351  0.2441 -0.3008 -0.0912
23180W        W40027   1.344   6.180  13.055 -0.1599  0.1034 -0.1625
23181W        W40028   6.645  10.681   0.897 -0.1798  0.3752  0.0679
23182W        W40029  13.110  17.616   0.135  0.1424  0.1332  0.4689
23183W        W40030  12.657   6.445  15.604 -0.0629 -0.1505  0.2614
23184W        W40031  11.035   5.359   1.878  0.0156 -0.0915  0.3443
23185W        W40032   1.728   7.436  11.745  0.0614 -0.2731  0.0290
23186W        W40033   0.401   8.968   1.285 -0.3782  0.1144 -0.0994
23187W        W40034   9.505   9.269   2.418  0.2644  0.0544 -0.0698
23188W        W40035   7.082   7.463   5.048  0.1572 -0.2964 -0.1943
23189W        W40036   8.294   9.918  12.196  0.0797 -0.3182 -0.0931
23190W        W40037   6.730  14.512  12.322  0.0728  0.2893 -0.0737
23191W        W40038  15.649   1.978  13.633  0.1602  0.0458  0.0444
23192W        W40039  10.117  10.726  15.138 -0.3259 -0.1026  0.1045
23193W        W40040   2.381   2.915  15.532  0.0822  0.1668 -0.1708
23194W        W40041   5.271   5.289  11.558  0.2237  0.0412 -0.0252
23195W        W40042   4.166   4.093  15.760  0.2011 -0.2029 -0.1477
23196W        W40043   1.566  17.388   1.311  0.3467  0.1597 -0.1906
23197W        W40044  12.811  10.096  12.096 -0.1950  0.1784  0.1126
23198W        W40045  16.871  15.268   2.738  0.3003 -0.0594  0.3105
23199W        W40046   7.909   2.765   1.928 -0.1095 -0.2347 -0.0355
23200W        W40047  13.978   1.459  11.338 -0.0786 -0.1016  0.1908
23201W        W40048  11.324   6.493   4.850  0.0790  0.1035  0.1227
23202W        W40049   6.178   1.537  13.064  0.1311 -0.0103  0.4258
23203W        W40050  11.001  16.280  13.800 -0.1527  0.0938 -0.0036
23204W        W40051   0.182   8.313  11.485 -0.2472 -0.3359  0.2826
23205W        W40052   5.634  16.461   2.257  0.2575  0.0489 -0.0750
23206W        W40053  14.500   0.601  10.979 -0.0143 -0.0631  0.0938
23207W        W40054  10.857  16.364  12.868 -0.2072  0.3702 -0.0675
23208W        W40055   1.192  10.374   1.053  0.0237  0.1695  0.0535
23209W        W40056   0.732  14.702   3.961 -0.0673 -0.0593 -0.1616
23210W        W40057  13.605   6.225  13.755  0.1325  0.1015  0.3681
23211W        W40058   5.021  11.040  12.150 -0.1369 -0.3214 -0.1815
23212W        W40059  13.146  10.358  13.425 -0.0389  0.0416 -0.3320
23213W        W40060  12.509   4.307  15.754  0.1640  0.2203  0.0673
23214W        W40061   0.985   8.360   4.689  0.1573 -0.2939  0.1499
23215W        W40062   1.872   1.895   5.653  0.1709  0.0026  0.0786
23216W        W40063   2.721  11.386   6.058 -0.3267  0.6146 -0.0143
23217W        W40064  10.167   6.895   0.191 -0.2492  0.0373  0.2008
23218W        W40065   8.321   8.559   1.861  0.2250  0.1062  0.0704
23219W        W40066   7.962   0.828  11.720 -0.1394 -0.1817  0.0428
23220W        W40067  16.147  13.088   1.785 -0.0628 -0.0333  0.0978
23221W        W40068   8.417  13.602  14.375 -0.1790 -0.2200  0.3884
23222W        W40069   9.846   8.359   1.997  0.2271  0.0809  0.0505
23223W        W40070   9.872  14.776  11.479  0.1426  0.1396  0.2127
23224W        W40071   7.068   0.640   5.473  0.1821  0.0217 -0.0345
23225W        W40072   3.398   0.350   1.419 -0.1478  0.0339  0.2605
23226W        W40073  10.307  15.358   3.763  0.0258  0.0952 -0.2781
23227W        W40074   4.125   9.918  14.788  0.0784 -0.0459 -0.1869
23228W        W40075   9.175  17.451  12.652  0.0322  0.3060 -0.1767
23229W        W40076  10.253   4.247   0.065  0.0227 -0.2820  0.2330
23230W        W40077   2.199   8.326   1.347  0.3003 -0.0700  0.0420
23231W        W40078   5.645  12.036  11.552 -0.0259 -0.1307 -0.1615
23232W        W40079   8.630  15.036   2.886 -0.2336 -0.0839  0.1072
23233W        W40080   7.962   6.492   5.609 -0.0684  0.0318  0.0183
23234W        W40081   5.332   1.122  14.809  0.0497  0.0536  0.1600
23235W        W40082   8.786  12.420   1.015  0.0172  0.0933  0.0864
23236W        W40083  12.812  17.339   5.029 -0.5137  0.1824  0.0101
23237W        W40084  15.833  16.664  13.304 -0.0086  0.1579  0.4827
23238W        W40085  15.969  17.051   3.592 -0.0949 -0.0643 -0.0885
23239W        W40086  17.373  17.434   2.940  0.1385  0.2674  0.2011
23240W        W40087   2.481  13.311  11.673  0.1634 -0.2260  0.0199
23241W        W40088  15.172  13.913  14.487 -0.0955 -0.2806 -0.1844
23242W        W40089  14.468   6.555  13.789  0.4082  0.1470  0.1997
23243W        W40090  11.372   2.992  14.116 -0.0562 -0.1602  0.1359
23244W        W40091  14.495  15.506   4.004 -0.3988  0.0521 -0.2420
23245W        W40092  15.458  15.962  15.315  0.0130  0.1992 -0.2032
23246W        W40093   0.607  10.705  14.969 -0.2112 -0.1695 -0.3998
23247W        W40094   5.097   0.968   5.551  0.0435 -0.2398 -0.0817
23248W        W40095   5.937   5.645   0.412  0.0301 -0.0159 -0.0647
23249W        W40096  17.196  17.911  16.120  0.0092  0.2326 -0.2021
23250W        W40097  18.012  11.681   1.059  0.0949 -0.0276  0.0713
23251W        W40098   0.319  15.873   5.398 -0.0542 -0.0631  0.0275
23252W        W40099  16.745   9.905  15.569 -0.0960  0.0155  0.1229
23253W        W40100   6.030   2.847   1.001 -0.0993 -0.1089  0.0094
23254W        W40101   7.967  10.336  13.253 -0.2100  0.1489 -0.1948
23255W        W40102  12.001  11.079  12.461 -0.2129 -0.0916  0.2408
23256W        W40103  14.403  14.428   2.950  0.2179  0.1123 -0.2968
23257W        W40104   6.091  12.665   1.838 -0.1425 -0.0217 -0.1023
23258W        W40105   2.121  10.028   3.936  0.2385 -0.0068  0.3017
23259W        W40106  16.757   1.838   4.979 -0.0692  0.0240 -0.0096
23260W        W40107   6.136  15.897  14.397  0.2046 -0.1992  0.2627
23261W        W40108   6.970  16.737   3.768 -0.0089 -0.2563 -0.2941
23262W        W40109   5.403   4.367  15.367  0.0267 -0.1363  0.0940
23263W        W40110   1.118   0.253  14.864 -0.0975 -0.1791 -0.2403
23264W        W40111  11.838   4.345   0.143  0.0207 -0.3933  0.1624
23265W        W40112  14.313   5.354  14.397  0.0289 -0.0881  0.1439
23266W        W40113   7.905   5.077   2.788 -0.1194 -0.0514  0.3433
23267W        W40114  16.269  18.330  13.074  0.0764 -0.0935 -0.2700
23268W        W40115   2.627   3.325   4.744  0.0919  0.0927 -0.0992
23269W        W40116   7.038   1.509  13.589  0.2778 -0.0707  0.2803
23270W        W40117  13.591   7.103  11.473  0.3156 -0.1077 -0.0358
23271W        W40118  10.157   3.515  13.976  0.0281 -0.0049  0.2623
23272W        W40119  14.863  10.805  13.483  0.1171  0.0045  0.1515
23273W        W40120  10.476   2.979  12.574 -0.2126  0.1160 -0.0976
23274W        W40121   9.161  10.197  13.773  0.3174 -0.1755 -0.2577
23275W        W40122   7.531   8.562  11.627  0.0921 -0.0549  0.0771
23276W        W40123  15.529   5.160   4.299 -0.1295 -0.1715 -0.0480
23277W        W40124   2.252   0.949  13.461  0.0047 -0.3759 -0.0383
23278W        W40125  13.405   5.751  13.522 -0.0382  0.3609 -0.2807
23279W        W40126   5.941  11.077  15.160 -0.1001  0.1698  0.3494
23280W        W40127   8.734  17.167   3.733 -0.1085 -0.2197 -0.1171
23281W        W40128   8.958  11.948   2.834 -0.2792 -0.2347 -0.0371
23282W        W40129  17.043   0.902  15.392 -0.2378 -0.1397  0.0245
23283W        W40130  11.683  16.669  12.212 -0.1451  0.3685 -0.3383
23284W        W40131   5.475   1.290  16.183 -0.3762 -0.2704 -0.2000
23285W        W40132   7.598   5.374  12.339 -0.3266 -0.0096  0.2817
23286W        W40133   1.745   7.545   2.992 -0.0033  0.3043 -0.2312
23287W        W40134  11.303  13.052   3.955 -0.1525 -0.0286  0.0041
23288W        W40135  11.838  15.032  15.150 -0.2722 -0.1686  0.1104
23289W        W40136   3.908   9.470   0.801 -0.0333  0.0748 -0.1334
23290W        W40137   8.712  11.474  15.412 -0.0463  0.0532  0.0179
23291W        W40138   1.370   6.958   4.446  0.1975  0.1533 -0.1781
23292W        W40139  17.079   4.615   4.733  0.4341 -0.0434 -0.1871
23293W        W40140   5.672   7.359   2.438 -0.2607  0.0083  0.2084
23294W        W40141  16.252   1.279  13.079  0.0758  0.1325 -0.0702
23295W        W40142  12.878   6.016  11.883  0.0340 -0.0115 -0.2251
23296W        W40143   5.326   2.150  11.466 -0.2074  0.0781  0.0607
23297W        W40144   9.951   5.065  11.863 -0.0039  0.1756  0.0310
23298W        W40145  10.581   2.554  11.788  0.0228 -0.0440  0.0460
23299W        W40146   0.646   9.288   3.197 -0.2076  0.4204  0.0838
23300W        W40147  11.354   8.546   3.797  0.0000 -0.2198 -0.7338
23301W        W40148  10.345  11.237   2.207 -0.0094 -0.1610  0.1859
23302W        W40149   1.460   7.431   3.367 -0.2431 -0.1989 -0.1392
23303W        W40150   7.504   9.046  15.445  0.0724 -0.2206 -0.3603
23304W        W40151  12.292  13.763  13.635  0.1154  0.0983 -0.2961
23305W        W40152   9.728   6.282  11.081  0.0707  0.0430 -0.1336
23306W        W40153  17.513  16.487  15.382  0.0058  0.3288 -0.0795
23307W        W40154   4.196  12.578   4.944  0.1519  0.2710 -0.0781
23308W        W40155   6.634   6.419   1.432  0.0584  0.2245  0.2125
23309W        W40156   4.584  10.355  15.560 -0.4118 -0.1472 -0.1477
23310W        W40157   7.974   5.112  12.182 -0.0939 -0.0354 -0.0336
23311W        W40158  13.394  16.807  13.472  0.2484 -0.0264  0.0034
23312W        W40159   3.014  17.846   4.810 -0.1660 -0.2436  0.0009
23313W        W40160  16.630  13.200  14.539 -0.2052 -0.2058  0.1221
23314W        W40161   2.160  14.401   1.230  0.1208  0.1658 -0.0717
23315W        W40162   1.815   6.899   4.708  0.1763  0.0227  0.1067
23316W        W40163  11.710   6.635   4.616  0.4077 -0.1075  0.0489
23317W        W40164   0.185  10.290  13.638 -0.1203 -0.0936  0.1535
23318W        W40165  17.643   0.678   1.474 -0.1011 -0.2233  0.2719
23319W        W40166   5.382  10.722  12.866 -0.2040 -0.2674 -0.1319
23320W        W40167  11.645   5.783   1.176  0.2034 -0.1088 -0.4748
23321W        W40168   6.602   8.319   2.001  0.0990 -0.0824  0.1557
23322W        W40169  15.918  13.622   0.346  0.1986 -0.1079 -0.2682
23323W        W40170   1.088   2.686  15.443  0.1340 -0.0525  0.2702
23324W        W40171   1.944  15.116  15.331  0.1899 -0.2939 -0.1749
23325W        W40172  14.185   8.611   1.251 -0.2063 -0.2915 -0.0069
23326W        W40173   3.378  15.055   4.293  0.0654  0.0270 -0.1414
23327W        W40174  12.666   3.369   3.702  0.2466  0.0631  0.2132
23328W        W40175  14.256   2.027  14.035 -0.2414  0.0202  0.1329
23329W        W40176   5.976   0.351  15.561  0.0688 -0.2318 -0.3455
23330W        W40177  16.738  15.513   2.242 -0.1806  0.0215 -0.0956
23331W        W40178   3.828  11.532  15.181 -0.0268  0.0409  0.0600
23332W        W40179   0.742   7.296  15.236  0.0279  0.1703 -0.0053
23333W        W40180   6.509  13.891   2.637  0.3232  0.1528  0.2323
23334W        W40181  11.514  12.159  12.252 -0.0726 -0.0183  0.0553
23335W        W40182  10.824  13.985   4.065 -0.1915  0.4833 -0.0985
23336W        W40183  12.899   2.523   0.717  0.3084 -0.1520  0.2762
23337W        W40184  16.071  15.974   2.647 -0.2137  0.0324 -0.0686
23338W        W40185  16.254  13.913   2.758 -0.0459  0.0236  0.3442
23339W        W40186  11.651   2.273  13.295  0.2854 -0.0702  0.0885
23340W        W40187  12.611   3.921  11.811 -0.0818 -0.1121 -0.2223
23341W        W40188  11.177  13.313  13.563  0.2325  0.0862  0.0697
23342W        W40189  12.236   3.545   5.234  0.0432 -0.1096 -0.0573
23343W        W40190   9.666   4.075   2.553 -0.2434  0.1768  0.0689
23344W        W40191   1.776  14.569   2.531 -0.0465 -0.0170 -0.2366
23345W        W40192  11.195  14.161   1.813 -0.1953  0.0712  0.1506
23346W        W40193   0.255   0.648  12.710 -0.1806 -0.1061 -0.0740
23347W        W40194  12.819  14.459  12.658  0.0298 -0.0921  0.0862
23348W        W40195  12.843   0.080  11.942  0.1541  0.0030 -0.2491
23349W        W40196   0.239   3.917   3.723 -0.0519 -0.3145 -0.3746
23350W        W40197  15.686   0.292   4.456  0.0289  0.2258  0.0090
23351W        W40198   3.105  13.658  15.094 -0.0316  0.1995 -0.0603
23352W        W40199   6.970  10.952  13.139  0.1341  0.0374 -0.0618
23353W        W40200  11.646  14.565   0.398 -0.0175  0.1885  0.4299
23354W        W40201   6.115  13.413   0.423  0.3272  0.0319  0.2619
23355W        W40202  17.476  11.609   4.272  0.2092 -0.1266 -0.2118
23356W        W40203  13.169   8.521   1.083 -0.0513 -0.1024 -0.1003
23357W        W40204  16.829   4.511  10.551  0.1912 -0.2224 -0.2770
23358W        W40205   2.637   0.988   4.561 -0.0777 -0.1024  0.1408
23359W        W40206   3.832  11.696   5.180 -0.2119  0.1712 -0.4599
23360W        W40207  14.402  13.437   5.027 -0.1496 -0.4735  0.3284
23361W        W40208   9.195  11.014  14.963 -0.0564 -0.1346  0.0305
23362W        W40209  10.797  14.027   0.965 -0.4742 -0.3309 -0.2798
23363W        W40210   1.546  10.099   3.794  0.1641 -0.1047 -0.0248
23364W        W40211   4.812   3.119  12.654 -0.3900 -0.1992  0.1246
23365W        W40212  13.833   0.729   3.132 -0.0689 -0.2182  0.1446
23366W        W40213   6.433   8.688   6.761  0.1927 -0.0843  0.0180
23367W        W40214   2.859   5.499  13.009 -0.4065  0.1216 -0.0094
23368W        W40215   6.811   0.059   4.050  0.2821 -0.0292  0.2504
23369W        W40216   1.154   9.010  15.631  0.0630 -0.3944  0.0476
23370W        W40217   6.027  15.000  15.777 -0.2905  0.1938 -0.0929
23371W        W40218  14.988   7.449   1.781 -0.1973 -0.0022 -0.0467
23372W        W40219   8.482  14.502  13.121 -0.0984  0.1698 -0.0261
23373W        W40220  16.986   4.903   0.080  0.1074  0.2195 -0.1264
23374W        W40221  13.712   1.391   2.444  0.1499 -0.0107  0.1787
23375W        W40222   1.375  12.914   3.055  0.0276 -0.0761  0.1733
23376W        W40223   7.130  11.846  13.396  0.0161 -0.0073 -0.0394
23377W        W40224  16.006  13.866  11.822 -0.2255  0.1734 -0.2162
23378W        W40225   4.945   5.693  12.992  0.1371  0.0942 -0.1921
23379W        W40226  14.134  17.635   2.927 -0.0610 -0.0659  0.2694
23380W        W40227  17.704  18.016   1.353 -0.0097 -0.0710 -0.0409
23381W        W40228   7.925  14.385   1.397  0.1635  0.1420  0.0530
23382W        W40229  17.446  14.705  11.857 -0.1600  0.2951 -0.1479
23383W        W40230  17.917   1.659  12.979  0.6168 -0.2775  0.0058
23384W        W40231   9.076   4.490   1.259 -0.0663  0.0351 -0.1779
23385W        W40232  11.436   9.274  15.843 -0.4431  0.0195  0.1687
23386W        W40233   9.598  11.266  12.999 -0.1974 -0.1082  0.0230
23387W        W40234   2.599  17.907  15.719  0.0831 -0.1015  0.0032
23388W        W40235   5.504   1.505   0.432 -0.0769 -0.0383  0.0691
23389W        W40236  16.246   5.186  11.694 -0.1295  0.3194  0.0276
23390W        W40237   5.923   4.977   0.511 -0.0619  0.0736 -0.1212
23391W        W40238   1.117   0.531   1.036  0.0834 -0.1918 -0.2082
23392W        W40239  15.120   1.451  11.946 -0.0765 -0.0659 -0.1322
23393W        W40240  12.147   3.307  12.860 -0.3226  0.0262  0.1172
23394W        W40241  17.332   4.097   4.627 -0.0413  0.3322 -0.0097
23395W        W40242   7.415  14.641  15.986 -0.0654 -0.0586 -0.0011
23396W        W40243  17.845  17.074  15.846 -0.2432 -0.4002 -0.0091
23397W        W40244  12.296   0.295  12.751  0.0127  0.1376 -0.0638
23398W        W40245  11.038  14.461   1.114 -0.1801 -0.0717 -0.3279
23399W        W40246   8.778   0.429   1.187 -0.0603 -0.4100  0.1279
23400W        W40247  15.360   6.232  13.457  0.1973  0.2035  0.0755
23401W        W40248   6.057  14.572   3.160  0.1137 -0.0958 -0.0272
23402W        W40249   4.983  11.324   1.957 -0.3750  0.1310  0.2080
23403W        W40250  16.541   8.903  14.917 -0.0416  0.2958 -0.0577
23404W        W40251  13.695   8.704  15.288 -0.0264 -0.1132  0.1190
23405W        W40252  11.073  16.546  11.939  0.1682  0.0087  0.0022
23406W        W40253   4.230   8.952  16.095  0.3521  0.0252 -0.3177
23407W        W40254   5.172  17.972  13.572 -0.1627  0.2572 -0.2611
23408W        W40255   7.981   5.369   3.429  0.2260  0.1988  0.2119
23409W        W40256   4.173   7.907  14.681  0.1945 -0.0833  0.2336
23410W        W40257  16.868   4.106  13.107 -0.4636 -0.0417 -0.0217
23411W        W40258   9.146  10.316   4.929  0.0929  0.0228 -0.1799
23412W        W40259   4.294   1.121   0.990  0.3337 -0.0709 -0.1910
23413W        W40260  12.226  10.280   3.386  0.1367 -0.0756 -0.3700
23414W        W40261   8.682  14.087   2.577 -0.0652 -0.3383 -0.3044
23415W        W40262  15.950   7.731   2.714 -0.2212  0.2366  0.0425
23416W        W40263   1.449   1.470   1.951  0.0216  0.0419 -0.2520
23417W        W40264  12.023   9.019  11.468 -0.1070 -0.1578  0.2827
23418W        W40265  16.950   5.842   5.033 -0.2354  0.0260  0.0967
23419W        W40266   4.659  17.907  13.398  0.0871 -0.2091 -0.0864
23420W        W40267   5.101  10.656   5.090  0.0655  0.1448 -0.1068
23421W        W40268   8.641   2.161   2.957  0.2544  0.2426 -0.1319
23422W        W40269  17.000  16.305  12.329 -0.1785 -0.3993 -0.0365
23423W        W40270   4.806  12.296  11.240 -0.0401  0.1043 -0.1300
23424W        W40271   4.221  15.796  11.385 -0.2633 -0.0827  0.2704
23425W        W40272   6.453   1.213  14.165  0.0600  0.0102 -0.0210
23426W        W40273  10.011   8.688   3.364 -0.0846  0.2158 -0.2755
23427W        W40274   3.863  14.813  13.355  0.0339 -0.0579  0.0986
23428W        W40275   6.689  14.313  15.482  0.3218  0.1296 -0.2224
23429W        W40276   8.220   4.511  14.226  0.0659 -0.0371  0.0954
23430W        W40277   7.640  10.133   1.737  0.1532 -0.1792  0.1707
23431W        W40278   3.773   1.888   0.386  0.1866  0.0975 -0.2503
23432W        W40279   3.562  12.749   5.185 -0.1423  0.1594 -0.1325
23433W        W40280  15.355   1.561  12.802  0.1118 -0.2273 -0.3261
23434W        W40281   5.202  14.386  15.578  0.2065 -0.2859 -0.1817
23435W        W40282  11.592   7.355   1.604 -0.3561  0.0181  0.3186
23436W        W40283   2.818   4.704   4.909  0.0037 -0.1328  0.3315
23437W        W40284  17.391   0.423  11.639  0.2045  0.0266 -0.1747
23438W        W40285   5.174  13.119   0.293  0.0278  0.3559  0.2141
23439W        W40286   0.936  14.796   1.365 -0.1232 -0.1207  0.0444
23440W        W40287   9.656   2.434   0.712  0.2343 -0.1302  0.0987
23441W        W40288   4.649   7.352  15.712  0.2510  0.0001 -0.0949
23442W        W40289  13.439   0.443   0.314 -0.1465  0.0953  0.3183
23443W        W40290   9.637  10.245  13.003  0.1097 -0.2943  0.0396
23444W        W40291  10.802   8.633  13.053  0.0590 -0.2273 -0.0157
23445W        W40292   2.075  10.760   3.127  0.1869  0.1992  0.1299
23446W        W40293   5.911   8.224   1.163 -0.2210 -0.0991 -0.2260
23447W        W40294   5.496   8.417  10.427  0.5106  0.0507 -0.1646
23448W        W40295   1.341  11.473  11.248  0.2322  0.2091 -0.2138
23449W        W40296   4.157   6.524  12.951 -0.1661  0.0770  0.0450
23450W        W40297   4.862  16.220   3.349 -0.0039 -0.2245 -0.0947
23451W        W40298  10.674   5.269  10.353 -0.0933  0.0252  0.3956
23452W        W40299  11.457  16.632  15.394 -0.1106 -0.2727  0.0915
23453W        W40300   7.929   0.254   0.149 -0.0404  0.0189 -0.1414
23454W        W40301   3.669   3.144   0.065  0.2533  0.0108 -0.3126
23455W        W40302   9.985  12.346  11.905 -0.2354 -0.0642  0.3947
23456W        W40303  13.194  15.911  15.762 -0.2859 -0.0301  0.0987
23457W        W40304   9.600   8.589  12.837 -0.1541 -0.2984 -0.0533
23458W        W40305   6.134   4.995   1.237  0.2499 -0.0872 -0.0393
23459W        W40306   2.824  14.135  11.825 -0.1867  0.0818  0.3663
23460W        W40307  16.012   4.664   2.518  0.4678  0.2648 -0.0832
23461W        W40308  16.812  17.478  14.895  0.1159  0.0857 -0.0319
23462W        W40309   3.282  10.783   5.097  0.0707 -0.0891  0.1024
23463W        W40310  15.904  13.639  15.079  0.1399 -0.2106  0.0669
23464W        W40311   5.528   3.347  13.762  0.1091  0.4301  0.0497
23465W        W40312  11.301   1.093  15.752 -0.2226  0.2887 -0.1325
23466W        W40313  17.389  15.875   1.715 -0.0795 -0.0376 -0.0693
23467W        W40314  15.137   8.256  12.069 -0.0739  0.1973 -0.2149
23468W        W40315  13.026  17.409   5.936 -0.0439  0.0231 -0.2044
23469W        W40316  16.782   4.117   5.714 -0.0745  0.0866 -0.1035
23470W        W40317   9.855   7.418   4.563  0.1733 -0.1660  0.1167
23471W        W40318  17.970   7.372   2.026  0.0243 -0.1313  0.2258
23472W        W40319   2.082  15.961  13.025  0.0799 -0.0218 -0.1559
23473W        W40320  13.021  16.087   4.312 -0.3219  0.0698  0.2448
23474W        W40321  14.441   1.558   1.818 -0.1307  0.0958 -0.1541
23475W        W40322  14.452  15.562  12.686  0.1843  0.0338  0.1419
23476W        W40323   3.136   1.448  15.465  0.0473 -0.0865  0.4152
23477W        W40324   8.096  17.907   0.644 -0.2822 -0.4277 -0.1482
23478W        W40325   9.736  13.951  13.308  0.0507 -0.0235  0.0892
23479W        W40326   0.515   8.665   4.539 -0.1334 -0.1274  0.0164
23480W        W40327   3.340   9.050  11.108  0.1177  0.0032 -0.0446
23481W        W40328   4.980  13.588   1.615  0.5287  0.0678 -0.2118
23482W        W40329   9.402   3.307  11.511  0.0026  0.4082  0.0126
23483W        W40330  13.565   4.293  15.818 -0.0158 -0.0060  0.2973
23484W        W40331  18.022   1.216  11.567  0.0117 -0.2427 -0.0955
23485W        W40332  17.628   5.046   4.395 -0.0598  0.1120  0.1744
23486W        W40333  14.709   9.549   0.295 -0.1703 -0.0172 -0.0162
23487W        W40334   0.171   3.245  15.436 -0.0198 -0.0371 -0.2330
23488W        W40335  13.433   0.220  15.749  0.0279 -0.1000  0.1663
23489W        W40336  14.678   1.012   4.162  0.0130  0.3093  0.3229
23490W        W40337   9.689  14.171  11.424  0.2662 -0.1417  0.1713
23491W        W40338  15.320  13.427  14.523  0.0106  0.0417  0.2669
23492W        W40339  17.426   0.501   4.690  0.1943 -0.0455  0.0820
23493W        W40340  14.733   4.396  11.387 -0.1645 -0.0778 -0.1779
23494W        W40341  16.553  15.063  12.729 -0.1105  0.2019 -0.3822
23495W        W40342  10.438   4.882  14.050  0.1359 -0.4424 -0.1668
23496W        W40343   2.892  15.796  11.627 -0.1618 -0.5451 -0.0949
23497W        W40344   9.616   3.633  14.759  0.2265  0.1434 -0.1066
23498W        W40345  13.569  10.061  15.835 -0.2498  0.1390  0.0956
23499W        W40346  16.541   8.655   1.205  0.0330  0.1146 -0.1476
23500W        W40347  18.162   3.962   4.506  0.3056 -0.1478  0.5159
23501W        W40348   5.323  11.923   1.103 -0.0951  0.0162 -0.1094
23502W        W40349  18.033   1.337   5.446 -0.0895 -0.2209  0.2515
23503W        W40350  16.676  13.255   3.038  0.0133 -0.1126 -0.0810
23504W        W40351  17.288   4.335  11.880  0.0117 -0.0705  0.1590
23505W        W40352  11.187   8.951  14.848 -0.1868 -0.2101  0.0701
23506W        W40353  15.538  11.086   3.746  0.2124  0.1043  0.0901
23507W        W40354  11.093   4.115   0.431  0.2274 -0.3412  0.3424
23508W        W40355   5.287  11.706  15.301 -0.0967  0.2865 -0.1031
23509W        W40356   4.063  16.476  13.830 -0.3929  0.0694  0.2630
23510W        W40357  11.099   7.022  14.398 -0.1302  0.1101 -0.0769
23511W        W40358  13.789   5.661  15.419 -0.0495  0.0910 -0.0674
23512W        W40359  15.959   0.333   0.597 -0.0877 -0.1591  0.0730
23513W        W40360  13.335  11.154  14.466  0.0116 -0.4018 -0.1570
23514W        W40361   6.471   8.318  10.692 -0.1471 -0.0652 -0.0322
23515W        W40362   6.311  12.123  15.121  0.1350 -0.2190  0.1420
23516W        W40363   8.249   9.431  13.969  0.1340 -0.0335  0.4784
23517W        W40364  14.295   9.799  12.770 -0.0436  0.3164  0.0866
23518W        W40365  15.137  11.288  16.079 -0.0136  0.0156 -0.1211
23519W        W40366  15.216  18.138   0.728 -0.2534 -0.1956  0.1738
23520W        W40367   5.005  18.231  15.555  0.1517  0.1493 -0.0976
23521W        W40368   3.823   8.371  12.774 -0.1904 -0.0050 -0.0316
23522W        W40369  14.268   4.357   0.105 -0.3298 -0.0517  0.2005
23523W        W40370   2.680  14.495  12.204 -0.0004 -0.1456 -0.0786
23524W        W40371   0.131   9.734   5.174 -0.1108 -0.4993 -0.0311
23525W        W40372   1.376   0.397  15.261 -0.0571 -0.2326  0.1354
23526W        W40373   7.822  12.480  13.575  0.0014  0.1538  0.0892
23527W        W40374  11.329  17.874  12.261 -0.0380 -0.1869  0.2834
23528W        W40375   0.660   3.593  14.662  0.1453 -0.3061 -0.0407
23529W        W40376  13.251  17.190  11.882  0.1288 -0.1303 -0.1772
23530W        W40377  11.579   7.661  12.228 -0.0092 -0.0972 -0.5078
23531W        W40378   3.817  14.101  13.729 -0.2226  0.2153  0.2251
23532W        W40379   0.378  12.772  13.232  0.2790 -0.2323  0.0505
23533W        W40380  17.410   6.351   3.534  0.2752  0.1744  0.0660
23534W        W40381   8.511  15.441   0.927  0.2634  0.1248  0.1439
23535W        W40382  11.094   9.276  13.474  0.3438 -0.1325 -0.0108
23536W        W40383   9.393  13.662   3.125 -0.2016  0.1974  0.1139
23537W        W40384  12.909  16.259   0.302 -0.2593  0.3616  0.1520
23538W        W40385   1.403  12.006  15.642  0.0780 -0.2801  0.0102
23539W        W40386  10.916  12.668   1.214 -0.1666  0.0314 -0.0398
23540W        W40387   0.453   0.538  11.390  0.0614 -0.2128  0.3395
23541W        W40388   4.208   1.421  12.898  0.5443 -0.2607 -0.1267
23542W        W40389  13.025  10.474  15.382  0.1151  0.0684 -0.0308
23543W        W40390  11.864   3.156  13.322  0.1306  0.2215  0.0334
23544W        W40391   7.930  17.825  13.141  0.0595  0.3495  0.1699
23545W        W40392  11.418   7.017  15.928  0.1007  0.4825 -0.2562
23546W        W40393   1.710  13.369   3.716  0.0861 -0.0940 -0.1338
23547W        W40394   7.174   5.222   2.806 -0.3434 -0.0703  0.0275
23548W        W40395   2.990  13.009   3.512  0.0352  0.0472 -0.0120
23549W        W40396  16.403  11.597  16.145 -0.1654 -0.3772  0.1460
23550W        W40397   1.923  12.981   3.447  0.4542 -0.2177 -0.1265
23551W        W40398  12.033  14.321   2.625  0.0086 -0.4021 -0.2103
23552W        W40399  12.117   5.726   3.685 -0.4777 -0.0079  0.2586
23553W        W40400   1.676   1.583   0.312  0.2619 -0.0235  0.2238
23554W        W40401  12.703  17.976   4.043  0.1971  0.1867 -0.0838
23555W        W40402  14.067   4.754   0.982  0.0183  0.0280 -0.0070
23556W        W40403   0.612   7.503  12.734  0.4178 -0.1432  0.3122
23557W        W40404  12.232   4.814   0.194  0.0449  0.0996 -0.1340
23558W        W40405  13.128  16.304  11.832  0.1533  0.0052 -0.0962
23559W        W40406   2.920   3.681   3.520 -0.0114 -0.0354  0.0215
23560W        W40407   5.197   0.055  12.143  0.1575  0.0198 -0.1330
23561W        W40408   3.845  16.895   3.556  0.2009  0.1072 -0.3165
23562W        W40409  16.161  15.674   4.891  0.2405 -0.0577 -0.0920
23563W        W40410   0.459  18.076   0.413  0.1523  0.1169  0.0749
23564W        W40411  13.119  13.040   2.649 -0.0243  0.0715 -0.0610
23565W        W40412   7.194   2.772  14.711  0.2323  0.1242 -0.1484
23566W        W40413   5.826   8.453   2.392  0.3138 -0.4202  0.0645
23567W        W40414   8.426  17.659   3.141  0.0939 -0.2304  0.1211
23568W        W40415   1.701   9.226   4.645 -0.0014 -0.0548 -0.0391
23569W        W40416  16.205  12.324   2.218  0.0294 -0.0062  0.0543
23570W        W40417  11.635  14.644  14.008  0.0031 -0.0508 -0.1856
23571W        W40418   2.356   5.551   1.981  0.1649  0.0162  0.0014
23572W        W40419   9.783   9.052   2.882  0.0298  0.0278  0.1498
23573W        W40420   6.837  13.890  12.108  0.3150 -0.1848 -0.0849
23574W        W40421   9.854   0.620  10.985 -0.0767  0.0029 -0.2427
23575W        W40422  17.421   6.157  11.248  0.1115  0.0416 -0.3432
23576W        W40423   4.963   6.763   5.219 -0.3329 -0.0022  0.0517
23577W        W40424   8.840  16.432   3.256 -0.1426 -0.1187  0.2651
23578W        W40425   7.126  15.981   2.783 -0.1248 -0.0371  0.3522
23579W        W40426   6.442  16.751  10.906  0.2133  0.3179  0.0213
23580W        W40427   4.734  13.617  16.033  0.0051  0.0513  0.0775
23581W        W40428  11.506   5.786  13.537  0.0442 -0.0306  0.0993
23582W        W40429  14.153  10.635  15.797  0.2063  0.0281  0.1834
23583W        W40430  14.527   3.779   3.036  0.3414 -0.0473 -0.0312
23584W        W40431  15.579   2.623   0.258  0.1410  0.0598  0.3404
23585W        W40432   1.686  17.710   0.960  0.0983 -0.1739  0.0132
23586W        W40433  10.344   6.628   4.845  0.0579  0.1027  0.1399
23587W        W40434   6.765   7.592  15.437  0.0217 -0.0492  0.0477
23588W        W40435   2.796  11.329   1.626 -0.2916 -0.0723 -0.0072
23589W        W40436   3.404   6.935  11.788 -0.2103  0.0116  0.1492
23590W        W40437   3.581   6.626   0.618 -0.0778 -0.2158  0.2196
23591W        W40438   8.176   8.695  13.400 -0.3449  0.2582 -0.0387
23592W        W40439  13.315   7.032   1.019 -0.0817 -0.0665 -0.0161
23593W        W40440  16.944  16.589   5.521  0.0154 -0.3029  0.4823
23594W        W40441   7.707   8.603  12.176  0.1402  0.1161  0.1671
23595W        W40442  10.045   0.385  11.651  0.0316  0.2758  0.0656
23596W        W40443   0.777   5.614  13.296 -0.0414 -0.1470  0.2459
23597W        W40444   2.558   7.573  15.149 -0.0701  0.0221  0.2349
23598W        W40445  17.408  17.946  13.629 -0.0422 -0.1684  0.1994
23599W        W40446  16.932  15.716  14.080 -0.0245 -0.0625  0.2179
23600W        W40447   3.508   5.751   0.667 -0.0474  0.0858  0.0760
23601W        W40448  13.691  15.637  13.062  0.1049 -0.1347  0.1146
23602W        W40449  16.228   0.964   2.317 -0.1178  0.5801  0.0678
23603W        W40450   6.582  17.556   3.025  0.1490 -0.1150 -0.1944
23604W        W40451   3.801   9.092  12.796  0.0122 -0.1743  0.2374
23605W        W40452   2.790  14.770  14.550 -0.2840 -0.0652 -0.1244
23606W        W40453   4.965   1.504   5.206 -0.0589 -0.0192 -0.1473
23607W        W40454  13.046   8.076   0.363  0.1300 -0.0712 -0.0236
23608W        W40455   7.530   4.902  14.920 -0.0942  0.2016  0.0139
23609W        W40456  13.511  14.501   1.716 -0.1601  0.0873 -0.3031
23610W        W40457   0.066   8.001   2.201  0.0396  0.2290  0.1936
23611W        W40458  10.557   5.850   4.235 -0.2884  0.1621  0.2788
23612W        W40459  14.566  16.929   0.775 -0.2395 -0.0290  0.0475
23613W        W40460  12.629  13.959   3.910  0.1639  0.2004 -0.0132
23614W        W40461   7.100   4.377   4.422 -0.0743 -0.0602 -0.2324
23615W        W40462   9.586   1.730  13.717  0.0298  0.1572  0.1803
23616W        W40463  17.126   5.323   0.354  0.2231  0.1300 -0.1570
23617W        W40464  10.943   8.025   2.095 -0.2465 -0.0833 -0.1695
23618W        W40465   4.114  10.718   3.546 -0.3263  0.0898  0.0027
23619W        W40466  10.037  17.427   0.036  0.0813 -0.3301 -0.0804
23620W        W40467  13.129   9.954  13.829 -0.1645  0.0291  0.1123
23621W        W40468  16.961  13.594  14.407 -0.1912  0.0652  0.2997
23622W        W40469  16.098  12.944  12.504  0.6298 -0.1900  0.3113
23623W        W40470   0.716   2.039   1.792 -0.2385  0.4835  0.0107
23624W        W40471  17.566   4.193  14.461 -0.1799 -0.1409  0.5033
23625W        W40472   0.836   5.718   0.120 -0.0246 -0.3160 -0.1719
23626W        W40473   3.390  15.842   2.536 -0.0491  0.1459 -0.3131
23627W        W40474   9.590   9.720  15.917 -0.2669 -0.1381 -0.0311
23628W        W40475  13.617   1.422  12.283  0.1453  0.2633  0.0368
23629W        W40476  17.060   7.331   0.361 -0.0348 -0.1137 -0.0448
23630W        W40477   6.828   8.133  14.123 -0.0826 -0.0614 -0.2599
23631W        W40478  16.120   3.285  16.051 -0.0348 -0.1123  0.3077
23632W        W40479  12.549  15.617   5.105  0.0927  0.1921 -0.2168
23633W        W40480   1.701   5.489  16.076  0.0982  0.1024 -0.0771
23634W        W40481   3.411   5.457  13.810  0.0653 -0.2411  0.1239
23635W        W40482   5.576   9.099  12.369 -0.1967  0.0311 -0.0381
23636W        W40483  11.277  17.706  14.608  0.1840  0.2185 -0.1304
23637W        W40484   5.371   3.531   6.118  0.1515 -0.0604 -0.1749
23638W        W40485   0.921   2.272  14.642 -0.0278 -0.0550  0.2071
23639W        W40486   3.420  14.262  11.149  0.3011 -0.0345  0.2189
23640W        W40487  13.652  12.443   2.417  0.1850 -0.2271  0.5127
23641W        W40488  14.729  16.196  14.907 -0.1257 -0.3732 -0.1125
23642W        W40489   4.154  10.096  12.614  0.1141 -0.0672 -0.2498
23643W        W40490   9.876   1.502   1.112  0.2114  0.2855  0.4110
23644W        W40491  18.240  17.611  13.039  0.2426 -0.0193  0.2812
23645W        W40492   6.221  13.077   0.013 -0.2188 -0.0781  0.1078
23646W        W40493  14.440  12.984  13.743  0.2172 -0.2401  0.3441
23647W        W40494   7.257   5.509   4.833 -0.4417  0.1707  0.1584
23648W        W40495  15.918   7.843   1.007 -0.0743 -0.2975 -0.1330
23649W        W40496   4.536  10.796  13.338 -0.1811  0.1047 -0.4806
23650W        W40497  11.918   7.434  14.660  0.2080  0.1504 -0.0734
23651W        W40498  13.120   1.169  15.811 -0.1705  0.1900  0.1398
23652W        W40499   1.859  17.482   2.552  0.0456  0.0437  0.0662
23653W        W40500  10.340  11.826   2.770  0.2709 -0.0782 -0.2663
23654W        W40501   2.273  13.625  12.479  0.0082  0.2879  0.0213
23655W        W40502  12.593   2.989   2.492  0.0725  0.1321  0.1380
23656W        W40503  13.654  15.084   0.947  0.1799 -0.1871 -0.1440
23657W        W40504  11.297  15.608   1.365  0.0659  0.2788  0.3238
23658W        W40505   3.540   5.070   4.718  0.0444  0.0247 -0.1067
23659W        W40506   7.835   5.697  13.391  0.1667  0.0379 -0.0990
23660W        W40507  12.786  17.122  14.362 -0.2071  0.5726  0.1472
23661W        W40508   0.701  10.471  13.146 -0.2460  0.0570  0.0981
23662W        W40509  18.104  16.114   0.937 -0.0938 -0.1618  0.0516
23663W        W40510   6.857  14.651   2.707 -0.1128 -0.4104  0.0798
23664W        W40511   4.763  11.102  16.131  0.0628  0.1694  0.0759
23665W        W40512   5.657   8.487   3.863 -0.2150 -0.1892 -0.1121
23666W        W40513   8.354   0.735   1.303 -0.2856 -0.0815  0.0883
23667W        W40514   5.237   6.917  10.929 -0.0755  0.0006 -0.0613
23668W        W40515  12.091  16.343  11.475  0.0284 -0.0205  0.0202
23669W        W40516   2.733   5.190   0.000  0.1776 -0.1252 -0.4170
23670W        W40517   7.059  13.115   1.127  0.0417  0.1239 -0.1101
23671W        W40518   0.302  12.482  15.766 -0.1722  0.2675 -0.0416
23672W        W40519  11.547  14.550  14.629 -0.0957  0.2728  0.0805
23673W        W40520   4.550   8.503   3.525  0.0330 -0.0624  0.1306
23674W        W40521  15.602   2.356  13.299  0.3723  0.1325 -0.0123
23675W        W40522   5.404  15.470   3.246  0.0999  0.5962  0.3218
23676W        W40523   1.063  14.318   3.028 -0.1122  0.3003 -0.1939
23677W        W40524   5.727  10.667   3.396  0.3020 -0.4249  0.1027
23678W        W40525   6.338   7.819  15.482  0.1205 -0.1001  0.0907
23679W        W40526   2.087   0.455   0.088  0.1177 -0.0470  0.1304
23680W        W40527  12.706  17.631  11.849 -0.0177 -0.1865  0.0246
23681W        W40528  16.328  10.967  12.415  0.1060 -0.1872 -0.2160
23682W        W40529  16.958   8.234   4.547 -0.1108  0.1388  0.2169
23683W        W40530   9.792   8.403  11.716  0.1164  0.2215 -0.4044
23684W        W40531   1.675  14.207  11.436 -0.0759 -0.3794  0.0937
23685W        W40532  12.827   3.826   2.920  0.2225  0.0122  0.2755
23686W        W40533   9.329   8.318   0.003 -0.2551  0.0619  0.0748
23687W        W40534   2.390   6.848  16.105  0.0303 -0.0458  0.2475
23688W        W40535   6.109   9.906  15.116  0.2964 -0.2627 -0.0967
23689W        W40536  12.056  17.646  12.890  0.0270  0.0017 -0.0274
23690W        W40537   7.369  10.183   4.599  0.1873 -0.1429 -0.1976
23691W        W40538   5.117  12.123  15.001  0.1641  0.0579 -0.1441
23692W        W40539   8.561  12.176   4.066 -0.2443  0.1973 -0.0425
23693W        W40540   7.982   0.699  11.189 -0.3102 -0.0662 -0.0083
23694W        W40541  14.075  12.798  12.355  0.3083 -0.0814 -0.1178
23695W        W40542   1.284   6.432   4.823  0.2638 -0.0251  0.2268
23696W        W40543   5.564   0.909   1.217  0.1772 -0.2370  0.4909
23697W        W40544  16.256  13.486  14.786 -0.1277 -0.2733 -0.0745
23698W        W40545   0.555   4.919  15.873 -0.0919  0.2418 -0.1171
23699W        W40546  15.318   6.746  14.624  0.2990 -0.3590  0.1096
23700W        W40547   2.654   1.637   1.524  0.0556 -0.1260  0.5074
23701W        W40548   0.442  10.908   1.323 -0.0497 -0.0051  0.0456
23702W        W40549   9.037   7.139   4.892 -0.1106 -0.0526 -0.0124
23703W        W40550  16.114   6.322  11.524  0.2349 -0.2364  0.0989
23704W        W40551  11.202   2.554   0.393 -0.0948  0.0062 -0.3967
23705W        W40552  11.320  11.534  15.031  0.0207 -0.2902  0.1343
23706W        W40553   0.033   4.911   4.338 -0.1329 -0.1152 -0.0281
23707W        W40554   9.819  16.586  14.124 -0.3214 -0.2921  0.0551
23708W        W40555  16.862  14.868   0.667 -0.0147 -0.1709  0.1113
23709W        W40556  11.863   7.608  13.841  0.0273 -0.0645 -0.0994
23710W        W40557  16.072  10.703   2.491  0.0336  0.1893 -0.2390
23711W        W40558   1.464   4.228  13.442  0.0130 -0.1005 -0.0543
23712W        W40559   9.810  17.346   1.991 -0.0839 -0.0179  0.1066
23713W        W40560  10.857  12.006   3.687 -0.0426 -0.0336 -0.1931
23714W        W40561   9.701   4.743   1.002 -0.0296  0.1147  0.1414
23715W        W40562   1.786  12.341   6.157  0.0590  0.0713  0.0227
23716W        W40563   8.655  15.786   6.076 -0.0141 -0.0085 -0.2227
23717W        W40564  10.814   6.160   5.596 -0.0295  0.1857  0.1120
23718W        W40565   9.582  15.108  11.812 -0.1061  0.0114 -0.2673
23719W        W40566  12.501   7.381   0.742  0.0777 -0.0540  0.1554
23720W        W40567   2.812   0.533  13.939 -0.1770  0.2100  0.2316
23721W        W40568   2.393  17.781   0.049 -0.2172  0.1360  0.2811
23722W        W40569  16.284  17.261   5.557 -0.0121  0.2518 -0.2232
23723W        W40570   2.617  13.160   1.276 -0.1768 -0.1467 -0.1802
23724W        W40571   3.959   1.826  15.566  0.0559 -0.1257 -0.0625
23725W        W40572   8.038  15.962   0.076 -0.0790  0.1471  0.0338
23726W        W40573   3.815   4.053  13.397 -0.0017 -0.1151  0.1029
23727W        W40574   5.462   2.251   3.209 -0.0741  0.2078  0.0568
23728W        W40575   5.611  13.548   2.161 -0.1826 -0.1389  0.1538
23729W        W40576   8.196   1.521   0.211 -0.0710  0.1964 -0.0802
23730W        W40577  16.141   7.466   4.390  0.0668  0.0368  0.0777
23731W        W40578   9.056   3.449   5.153  0.1311 -0.2118 -0.0161
23732W        W40579  16.404   6.747   4.206  0.0883 -0.0719  0.1921
23733W        W40580   6.320   2.912   4.258  0.1588  0.0439  0.1059
23734W        W40581   9.382  15.832   5.486  0.1490 -0.3446 -0.0673
23735W        W40582  16.512   3.268   1.274 -0.2509  0.0312  0.1728
23736W        W40583  16.874   4.317  11.114 -0.1422  0.0250  0.0221
23737W        W40584   8.835   9.505   0.816 -0.2149  0.3452  0.0880
23738W        W40585   8.937  10.557   1.717 -0.1175 -0.1657  0.1868
23739W        W40586   8.908  15.894   3.313 -0.0673 -0.1900  0.2116
23740W        W40587   6.647   6.451   2.179 -0.1478  0.2329  0.2662
23741W        W40588  14.615   6.687   0.467  0.1623 -0.2263 -0.0581
23742W        W40589  13.248  13.464  14.033  0.4915 -0.0482 -0.1029
23743W        W40590  17.534  16.882  12.813  0.1318 -0.2169  0.0908
23744W        W40591   7.136  11.060   0.257  0.0555  0.2391 -0.0334
23745W        W40592  16.238   4.727  12.045  0.0183  0.1900 -0.2325
23746W        W40593   4.637   3.139   4.529 -0.1425  0.1479 -0.1398
23747W        W40594  17.248  14.133   5.094 -0.2052 -0.0453 -0.1227
23748W        W40595   9.826  18.135  14.552 -0.2141  0.4509 -0.1563
23749W        W40596   5.807   1.460  15.567  0.0427 -0.0937  0.5018
23750W        W40597  13.165   7.306  10.931  0.1450  0.0705 -0.0157
23751W        W40598   9.756   5.228  12.834  0.2002  0.2254 -0.1981
23752W        W40599   1.418   1.001  13.740 -0.4482 -0.0743 -0.2526
23753W        W40600  12.360   9.019   4.470  0.0379  0.3264 -0.0299
23754W        W40601  15.862  10.205   0.520  0.2394  0.0347  0.2196
23755W        W40602  12.419   9.955  13.201  0.0173  0.0975 -0.1895
23756W        W40603   8.753   1.253  11.234  0.0293  0.0208 -0.0231
23757W        W40604  16.842  11.824  13.655 -0.0439 -0.0688  0.1091
23758W        W40605   6.439   6.449   3.723  0.0503  0.0103  0.0245
23759W        W40606  17.798   6.947  14.028 -0.1245  0.1051  0.1024
23760W        W40607   7.797   0.548   2.524  0.0404  0.2950 -0.3514
23761W        W40608   1.217   9.272  14.729  0.1352  0.2149 -0.2601
23762W        W40609  17.129  12.749   2.079 -0.0684 -0.0424 -0.1139
23763W        W40610  10.964  11.615   3.367 -0.2466 -0.0403  0.1551
23764W        W40611  10.357   3.871  15.912 -0.0867 -0.1168  0.2189
23765W        W40612  11.416  14.051   5.477 -0.3991 -0.1033  0.0034
23766W        W40613   4.777   4.292   4.930 -0.0933  0.0189 -0.0989
23767W        W40614  14.139   8.435   3.882  0.1364 -0.0873 -0.0400
23768W        W40615  11.985  11.678  15.609 -0.3258 -0.2420  0.1237
23769W        W40616  14.467   4.446   2.172  0.0656  0.2753 -0.3093
23770W        W40617   2.077   4.642   2.534 -0.0683  0.1303 -0.1070
23771W        W40618  10.323  14.661  14.436  0.0269  0.0875 -0.0414
23772W        W40619  16.222  12.864   0.863  0.1386 -0.2107 -0.0295
23773W        W40620   8.456  16.493   4.448 -0.1796 -0.0005 -0.3032
23774W        W40621   1.889   1.260  13.789 -0.1061  0.4847  0.2351
23775W        W40622   6.813   9.984  14.542 -0.1042 -0.2884  0.0897
23776W        W40623   6.445   4.110  14.543  0.0797  0.0826  0.3482
23777W        W40624   6.158  14.415  13.769 -0.1915 -0.1906 -0.0427
23778W        W40625  15.062  17.074   3.144  0.2083  0.0209  0.1505
23779W        W40626   4.257   5.326   0.586 -0.2647  0.0768  0.0706
23780W        W40627  13.260  11.683   4.786  0.0914 -0.2923  0.1201
23781W        W40628  12.696  17.656  12.373  0.0211  0.1594 -0.1090
23782W        W40629  16.627   1.975   1.955 -0.0360 -0.0695 -0.0375
23783W        W40630   3.250  14.338   4.729  0.5229  0.0448 -0.0067
23784W        W40631   4.837  14.302  12.452 -0.0880  0.3656 -0.0636
23785W        W40632   5.952   4.041   4.269 -0.0776  0.0488  0.1559
23786W        W40633  15.824   1.027  13.924 -0.1219  0.1812 -0.1920
23787W        W40634  17.856  13.901   2.768  0.1399 -0.0091 -0.1220
23788W        W40635   2.264  13.389   3.011  0.0274  0.1997 -0.4139
23789W        W40636  13.269   6.431   1.100 -0.1758  0.0566  0.0417
23790W        W40637  14.599  11.924   0.864 -0.1325 -0.0061  0.3623
23791W        W40638  14.517   8.313   1.442  0.1225 -0.1716 -0.0178
23792W        W40639  12.867   0.991  14.477  0.0362 -0.2314  0.1407
23793W        W40640   3.529   1.439   1.619  0.0739 -0.0977  0.2525
23794W        W40641   5.457   0.926   2.901 -0.4995 -0.4250  0.2033
23795W        W40642   8.522   2.545   2.582  0.2178 -0.3870  0.2700
23796W        W40643  12.641   8.380  11.728 -0.1604  0.2324  0.1241
23797W        W40644   7.850  14.477  13.726 -0.0581 -0.1207  0.0046
23798W        W40645   5.558   7.693  13.369 -0.0385 -0.0581 -0.1911
23799W        W40646   5.788  14.652   5.140 -0.1032  0.3268 -0.0158
23800W        W40647  17.677  10.558  10.753  0.2874  0.0101 -0.1434
23801W        W40648   4.643   2.454   3.883 -0.0580  0.1470  0.3688
23802W        W40649   9.572   4.349  15.947  0.0850  0.1890 -0.0577
23803W        W40650  13.841   2.947   3.952 -0.0049  0.1023  0.3316
23804W        W40651   1.389  12.004  13.716 -0.3131  0.0883 -0.1608
23805W        W40652  15.698  12.302   5.114  0.2680 -0.2280 -0.3152
23806W        W40653   4.649   3.788  13.484  0.2096  0.1166 -0.0711
23807W        W40654   6.489   7.512   2.928  0.0601  0.0190 -0.1482
23808W        W40655   7.910  11.740  11.575 -0.0171 -0.2335 -0.1165
23809W        W40656  13.493  13.840   0.681  0.0915  0.1990 -0.2230
23810W        W40657   7.916   7.039   2.065 -0.0214  0.1734  0.1823
23811W        W40658   8.027   8.964  13.993 -0.3573  0.1333 -0.0868
23812W        W40659   3.192  17.694  12.724  0.4363  0.0039 -0.1022
23813W        W40660  16.784   5.015   0.667 -0.0936  0.1487 -0.0283
23814W        W40661  14.042  16.044  16.157 -0.4677  0.1798 -0.0217
23815W        W40662   1.423   2.768  15.853  0.0498  0.0402  0.1343
23816W        W40663  11.352   2.381  12.880  0.1630 -0.1698  0.0954
23817W        W40664  12.722   6.492   4.602  0.1984  0.0947 -0.1106
23818W        W40665  17.150   4.864   4.272 -0.1047  0.0865 -0.1946
23819W        W40666   4.666  13.210   1.769  0.1071  0.1274 -0.0455
23820W        W40667   5.138   7.888  12.160  0.0821  0.1744  0.0273
23821W        W40668  11.110   2.483  14.142 -0.1251  0.0436  0.0938
23822W        W40669  14.618   2.920  12.577 -0.0477 -0.1232  0.0945
23823W        W40670  11.649  17.467   2.074  0.1327 -0.1995 -0.0970
23824W        W40671   9.590  17.062   1.112 -0.2837  0.3640 -0.0948
23825W        W40672  11.653  14.316   4.751 -0.1655 -0.0858  0.1635
23826W        W40673  10.069   8.828  11.732  0.1514  0.2316 -0.1495
23827W        W40674  13.086   9.759  14.778 -0.2041  0.0116 -0.0883
23828W        W40675   0.983   8.757   0.288  0.0977 -0.0526  0.0615
23829W        W40676   6.292   8.945  12.122  0.0064  0.0089 -0.0258
23830W        W40677  11.915  14.140  14.136 -0.0845 -0.1298  0.2091
23831W        W40678   2.717   6.525  13.209  0.0677 -0.2043  0.2962
23832W        W40679   3.497  16.609  11.665  0.3086  0.1007 -0.0836
23833W        W40680   3.297  16.937   2.687 -0.1931  0.0588  0.0733
23834W        W40681   2.483  12.248  12.910 -0.0557 -0.3288  0.0344
23835W        W40682  16.613  10.468   0.128 -0.0860 -0.1560 -0.1967
23836W        W40683  16.813  13.982   3.930  0.1605  0.1940  0.3507
23837W        W40684  15.755   0.745  15.797 -0.3009  0.0038  0.0192
23838W        W40685  10.442  12.790   3.797  0.1081  0.2930  0.0193
23839W        W40686   1.612  14.238   3.919 -0.0459  0.1200 -0.0439
23840W        W40687   8.404   8.025   1.953  0.0722 -0.1971  0.1706
23841W        W40688   1.559   8.404  14.598  0.0441  0.1570 -0.1056
23842W        W40689   0.523   1.375  13.459  0.2221  0.2260 -0.0645
23843W        W40690  15.449  15.021   3.817 -0.1850  0.1128 -0.1433
23844W        W40691  16.244   2.352  14.636 -0.0758  0.0103  0.0026
23845W        W40692   4.217   3.128   5.311  0.2740 -0.0094  0.0102
23846W        W40693   3.904   6.771  15.847  0.1538  0.2182 -0.1151
23847W        W40694   3.794   4.368  13.806 -0.0035  0.0579  0.1600
23848W        W40695  12.699   9.528  14.971  0.1599  0.0527  0.2496
23849W        W40696  16.034   2.728   2.490  0.3911  0.0872  0.2584
23850W        W40697  14.809  11.778  14.711  0.0872 -0.0333 -0.0092
23851W        W40698  12.026  13.899  10.759 -0.2537  0.2468 -0.1495
23852W        W40699  10.169  11.653   5.362  0.0269 -0.1905  0.0077
23853W        W40700   3.006  17.322   3.806  0.0893  0.1809 -0.3158
23854W        W40701   4.380   2.863   3.455  0.1882 -0.3236 -0.0604
23855W        W40702   5.460   4.472   5.306  0.1582 -0.1080 -0.0988
23856W        W40703   6.655  17.077   0.977 -0.0871  0.3496 -0.4682
23857W        W40704  12.967  16.871  13.101 -0.0437 -0.1290 -0.2440
23858W        W40705   4.954   1.352  14.073 -0.0800  0.0463 -0.2808
23859W        W40706  18.042  15.502  14.742  0.0381  0.0049  0.0197
23860W        W40707  10.861   6.361  14.959 -0.0007 -0.1879  0.0646
23861W        W40708  12.172  11.972  13.809  0.0772  0.3731  0.2503
23862W        W40709   9.528   7.293   0.959 -0.0528  0.2641 -0.0336
23863W        W40710   3.404  14.640  12.944 -0.0820  0.0063  0.0938
23864W        W40711   4.585   8.686  13.824  0.2513 -0.0001  0.1818
23865W        W40712  14.457  16.024   0.214  0.1809 -0.0107  0.1516
23866W        W40713   7.438  15.708  13.262  0.0893 -0.0544 -0.0504
23867W        W40714   3.655  17.288   2.768  0.2063  0.0511  0.1136
23868W        W40715   9.873  16.030   5.732 -0.2191  0.2308  0.2821
23869W        W40716  14.837   2.943   3.155 -0.2272  0.0389 -0.1558
23870W        W40717   5.211  14.137  14.268 -0.0358  0.0501 -0.4488
23871W        W40718  16.200  12.485  13.903  0.0451  0.3997  0.0927
23872W        W40719   4.443   7.037   4.039  0.1359  0.1921  0.1187
23873W        W40720   6.033   4.581   2.289 -0.4177  0.1594 -0.0255
23874W        W40721   9.035  12.720  14.318 -0.0781 -0.1259  0.1963
23875W        W40722   3.112   0.023  12.048 -0.0376  0.0500 -0.2198
23876W        W40723   2.679   9.299   4.904  0.0090  0.3782  0.0785
23877W        W40724   2.893  13.770  15.550 -0.1562  0.2643 -0.1181
23878W        W40725  13.562  17.581  13.117 -0.0354 -0.1548  0.0829
23879W        W40726   6.117  10.845  12.463 -0.2061 -0.1386 -0.0518
23880W        W40727  16.054  15.215   2.899 -0.0840 -0.0131  0.1415
23881W        W40728   4.819   1.456   3.462 -0.1679 -0.2191  0.0769
23882W        W40729  17.575  11.291   4.698  0.0320 -0.0039 -0.1191
23883W        W40730   5.014   8.725  12.072 -0.2793 -0.0869 -0.1827
23884W        W40731  14.014   8.666   4.612  0.2837  0.2871  0.0957
23885W        W40732  17.081  15.902   0.493  0.1405 -0.0308  0.0195
23886W        W40733  16.678   8.284  14.060  0.0448 -0.1346 -0.0158
23887W        W40734  11.590   8.573  14.781 -0.1409  0.2101  0.1259
23888W        W40735   9.714   9.650  12.994  0.3883 -0.1966 -0.0613
23889W        W40736   0.651   1.577   1.534  0.0847  0.0708 -0.1878
23890W        W40737  14.114   5.562  11.594  0.0238  0.0568 -0.1878
23891W        W40738  13.290   8.696   2.411  0.1305 -0.0493  0.2745
23892W        W40739   2.913   2.896   4.742  0.0062 -0.0143 -0.2309
23893W        W40740   7.834  16.656   1.102 -0.1781 -0.0878 -0.2556
23894W        W40741   3.539  17.899   0.806  0.0730 -0.0902  0.1541
23895W        W40742   9.595  15.021   1.649 -0.0686 -0.1505  0.1481
23896W        W40743   4.828  16.304  14.064 -0.0757  0.0720 -0.3194
23897W        W40744  13.997   8.301   3.420  0.3701  0.0033 -0.1603
23898W        W40745   2.500  18.320   3.203 -0.0179  0.0525 -0.1994
23899W        W40746   8.324  18.213  15.760  0.2248  0.2720 -0.1328
23900W        W40747   7.440  12.668  16.127 -0.2101 -0.1340  0.0523
23901W        W40748  14.756   2.468  15.864 -0.1574  0.0250  0.2214
23902W        W40749   6.851   5.791   4.097 -0.0966 -0.0266 -0.1911
23903W        W40750   2.116   9.173  15.893 -0.0917  0.3192  0.1099
23904W        W40751   1.212   6.506  14.229 -0.4046 -0.0080 -0.0529
23905W        W40752   5.976  14.698  14.195 -0.1682  0.2299 -0.2184
23906W        W40753  13.721   7.768  11.415 -0.1894 -0.0779 -0.0739
23907W        W40754  16.795   0.688  15.736  0.1193  0.0785  0.1810
23908W        W40755   3.386   4.041   0.169 -0.3268 -0.0760 -0.1298
23909W        W40756  13.906   8.228  14.238 -0.0521  0.2580  0.2843
23910W        W40757   4.059   2.275   5.274  0.0468 -0.0522  0.2078
23911W        W40758   7.616  12.009  14.651 -0.2725 -0.0492  0.1216
23912W        W40759  13.173  10.963  13.808 -0.3159 -0.0496  0.2219
23913W        W40760  13.922   1.646  16.164 -0.0537  0.2728  0.2004
23914W        W40761  14.980   1.540  14.297 -0.0920  0.0094  0.1768
23915W        W40762   1.963  17.083   5.311 -0.2729  0.0608 -0.0992
23916W        W40763  13.199   8.271   3.400 -0.3829 -0.2213  0.2491
23917W        W40764   1.539  12.058   4.527  0.2280 -0.0061  0.1067
23918W        W40765   4.475   6.500   2.234 -0.1841 -0.0824 -0.0319
23919W        W40766  16.748   9.541   1.712  0.2487  0.2048  0.0652
23920W        W40767  10.605   8.339  13.392 -0.1133  0.0516 -0.0135
23921W        W40768  14.188  11.329   1.464 -0.1420 -0.1332 -0.2077
23922W        W40769  10.899   0.641   1.414  0.1520  0.0266  0.2161
23923W        W40770  17.760  12.934   3.835 -0.1361  0.2587  0.3546
23924W        W40771   4.577   6.478   5.052 -0.0969 -0.0318 -0.0641
23925W        W40772  12.249   5.390  15.539 -0.2890  0.2279  0.1599
23926W        W40773  16.448  15.166  11.710  0.5255 -0.0564 -0.2031
23927W        W40774  16.842   5.624  11.041 -0.0014  0.2217 -0.0486
23928W        W40775  14.369   0.182   4.415 -0.0171 -0.1248  0.0062
23929W        W40776   4.690   9.927   1.422  0.1051 -0.0109 -0.1715
23930W        W40777   4.465  14.914   1.742  0.3349 -0.4305  0.2879
23931W        W40778   2.146   4.100   4.671 -0.3284 -0.0564 -0.1487
23932W        W40779  12.860   9.177   4.295  0.1603  0.1263 -0.0919
23933W        W40780  14.447   8.957  11.544  0.2760 -0.0259  0.0932
23934W        W40781   1.033  14.187   1.180 -0.1794  0.4017 -0.0575
23935W        W40782  14.623   5.309  15.814 -0.2215 -0.1591  0.3754
23936W        W40783  12.081  15.949  13.966  0.0180 -0.1391 -0.3782
23937W        W40784  14.302   2.069   2.450 -0.2234 -0.1108 -0.0004
23938W        W40785   8.891  16.844   2.379  0.0001  0.1815  0.0347
23939W        W40786  15.644  11.146  13.458  0.2855 -0.2603 -0.0733
23940W        W40787  10.530   3.607   3.387 -0.3736 -0.3237  0.1376
23941W        W40788  18.112   3.422   0.859  0.1290  0.0050  0.1844
23942W        W40789  14.947  14.412   4.978 -0.3216 -0.1350 -0.1921
23943W        W40790   8.547   1.323  12.183 -0.1106 -0.1485 -0.0295
23944W        W40791   5.182  16.317  12.793 -0.0524 -0.1635 -0.3821
23945W        W40792   2.134   4.128   2.707 -0.0479  0.0700 -0.0366
23946W        W40793  16.291   5.913   1.644  0.0728 -0.0206  0.1850
23947W        W40794  15.516   1.616   0.011  0.0069  0.0998  0.2077
23948W        W40795  10.170   3.357   3.597 -0.2014 -0.1352 -0.0666
23949W        W40796   2.483   6.733   5.906 -0.0893  0.2489  0.1776
23950W        W40797   2.516   6.944  12.960 -0.4836  0.0775 -0.0038
23951W        W40798   6.739  13.596  14.806 -0.1494 -0.3160 -0.1012
23952W        W40799   1.726   9.612  13.900 -0.0849 -0.0234  0.1306
23953W        W40800  16.188   5.974   4.373  0.2039  0.0017 -0.3025
23954W        W40801   6.532   9.029   3.080 -0.2557 -0.1556 -0.0247
23955W        W40802  16.047  10.569  13.964  0.1695 -0.0113  0.1044
23956W        W40803   6.131   2.925  15.741  0.1623 -0.1279  0.0809
23957W        W40804   9.908  12.712  14.127  0.0423 -0.2966  0.0689
23958W        W40805   9.104  11.932   4.583 -0.0722  0.2160 -0.1229
23959W        W40806   2.160   8.181   0.887 -0.0908 -0.0591  0.1148
23960W        W40807   1.691   0.504  15.665  0.1622  0.0005  0.2647
23961W        W40808  15.429  10.690   4.216 -0.1635 -0.1539 -0.0088
23962W        W40809   0.081  13.087  13.963  0.4952 -0.0245  0.0678
23963W        W40810  10.663  15.551   2.362  0.0093 -0.0487 -0.0331
23964W        W40811   3.795   5.286  13.555  0.2824 -0.1211 -0.1165
23965W        W40812   0.248  18.258   3.217 -0.1772  0.1775 -0.1216
23966W        W40813   3.630   5.604  13.125  0.0818 -0.0448 -0.0838
23967W        W40814   3.886   8.746  12.032 -0.1185  0.1928 -0.0539
23968W        W40815   9.256  12.671   2.246  0.1353 -0.2684 -0.0115
23969W        W40816   0.755   8.932  15.321 -0.2058 -0.1526 -0.0644
23970W        W40817  17.626  14.110  13.762  0.2128 -0.0140 -0.1806
23971W        W40818   2.557  17.665   6.071  0.1086  0.2342  0.1816
23972W        W40819  12.605  18.239  12.579  0.0260 -0.0962  0.0555
23973W        W40820   4.374  13.454  15.810 -0.1192 -0.1582  0.0213
23974W        W40821   8.210   3.846   0.577  0.0702 -0.3416  0.3142
23975W        W40822   6.139  10.764   2.439 -0.0307 -0.1818  0.0794
23976W        W40823  14.922   2.992  10.742 -0.0885  0.0902 -0.2500
23977W        W40824   2.981   9.762   3.956  0.0270 -0.0893 -0.0350
23978W        W40825  13.562   6.750   4.513  0.0424  0.1253  0.1453
23979W        W40826  12.841   7.155   0.340 -0.0136 -0.1506  0.1203
23980W        W40827  17.999   8.444   2.145 -0.2195 -0.0368 -0.0258
23981W        W40828   3.970   9.398   2.033 -0.1161  0.2525 -0.1109
23982W        W40829   2.896   7.419   3.060 -0.1930  0.1026  0.0902
23983W        W40830  16.552  14.411  13.841 -0.2542  0.1951 -0.1216
23984W        W40831   9.004  15.955  15.831 -0.0712 -0.0562 -0.3166
23985W        W40832   4.225  16.064   4.145 -0.2238 -0.1328  0.2999
23986W        W40833  11.728   3.250   2.840 -0.0937  0.0631 -0.0826
23987W        W40834   2.710   1.950  13.773  0.1416 -0.1829 -0.0879
23988W        W40835  12.419  13.820  13.145  0.1808 -0.1507  0.0807
23989W        W40836  16.326  17.383  11.865 -0.0393 -0.2677 -0.0464
23990W        W40837   0.018   3.508  10.621  0.2191 -0.0933 -0.5629
23991W        W40838   3.719   6.657   1.619  0.1959 -0.1254  0.0819
23992W        W40839   3.352  13.316   0.259 -0.1288  0.3452 -0.0417
23993W        W40840   9.152  11.310   5.154 -0.0818 -0.0831 -0.0252
23994W        W40841   7.470  16.866   3.702 -0.0491  0.2493  0.0237
23995W        W40842  11.177  17.078  12.390  0.0727  0.0909 -0.1570
23996W        W40843  15.176  18.328  13.178 -0.0100 -0.1086  0.2367
23997W        W40844  12.232  12.582  15.449  0.0428 -0.1332 -0.0445
23998W        W40845  10.130   1.771   0.170 -0.0776  0.1532 -0.0402
23999W        W40846  14.184  17.090  12.537  0.1634  0.1246  0.2105
24000W        W40847  15.519  13.779   5.245 -0.3028 -0.0290  0.3273
24001W        W40848   0.337  18.138  13.737 -0.3300  0.2578  0.0273
24002W        W40849   3.981  17.663  12.417 -0.0250  0.3579  0.3120
24003W        W40850   2.358   6.555  13.579 -0.0461  0.1188 -0.1897
24004W        W40851   1.931   9.482   3.733  0.0418  0.0477 -0.0168
24005W        W40852   9.224   6.152   3.228 -0.2371  0.0208 -0.3264
24006W        W40853   5.518  10.200  13.995 -0.1979 -0.0752  0.1003
24007W        W40854   9.967  11.935  10.588 -0.1153  0.0629 -0.2619
24008W        W40855  13.022   4.895   0.107 -0.0590  0.4701  0.2168
24009W        W40856   8.487  17.372  15.387 -0.1815  0.1954 -0.0369
24010W        W40857  15.562   6.873   1.106 -0.1458 -0.1266 -0.0007
24011W        W40858  15.418  17.106  11.389 -0.2200 -0.1610  0.1209
24012W        W40859   2.616   9.603  12.586 -0.1413 -0.3839 -0.1499
24013W        W40860   3.420   9.975  13.180  0.0063  0.1285  0.0829
24014W        W40861   5.766  15.548   9.781 -0.0938  0.1042  0.1137
24015W        W40862   3.769   0.849   1.004  0.2622 -0.2559  0.5352
24016W        W40863  11.711   5.060  11.114 -0.2655 -0.1859 -0.1290
24017W        W40864  12.277  14.998   2.791  0.3096  0.3917 -0.0717
24018W        W40865   5.488   2.265   1.489  0.0927  0.0045 -0.0956
24019W        W40866  15.631   7.142   0.536 -0.3166  0.3086  0.2704
24020W        W40867   3.511   3.325  12.330 -0.1679 -0.2001  0.1724
24021W        W40868   0.863  15.752   4.136 -0.3545 -0.4282  0.1886
24022W        W40869  14.852  14.522   4.097 -0.2763  0.1748  0.0896
24023W        W40870  17.653  17.422   3.397 -0.1239 -0.0042  0.0341
24024W        W40871   3.729  10.217   2.191  0.1394 -0.2417 -0.0357
24025W        W40872   9.589   0.346   4.442  0.0715  0.0569  0.0138
24026W        W40873  17.585  18.299  11.445 -0.0945 -0.1583 -0.0560
24027W        W40874   4.977   3.807  15.994 -0.0861  0.1376 -0.1852
24028W        W40875   3.622   7.294   2.362  0.0032 -0.0514  0.1095
24029W        W40876  17.143   3.217  12.807  0.1499  0.1170 -0.3064
24030W        W40877   3.712  10.326   0.667 -0.2147 -0.2007 -0.0546
24031W        W40878  13.204  15.820  11.587 -0.0291  0.0370 -0.1197
24032W        W40879   5.508   2.482  16.039  0.0131 -0.1815  0.4637
24033W        W40880  17.228  11.477   0.669 -0.0955 -0.0461  0.3286
24034W        W40881   3.434   2.411   4.181  0.0063  0.0355  0.0425
24035W        W40882   4.439  10.061   0.301  0.0973  0.0696 -0.0108
24036W        W40883  11.480   1.906  14.735  0.0339 -0.0184  0.2136
24037W        W40884  14.266  17.504  12.055 -0.0952 -0.1110  0.1521
24038W        W40885  16.879  17.663  13.329 -0.3480  0.0226  0.1435
24039W        W40886   2.917   9.187   4.459 -0.3839 -0.4482 -0.1017
24040W        W40887  13.247  10.652   2.130  0.0468  0.1272 -0.0593
24041W        W40888  16.512  13.089  12.211  0.3500  0.1519 -0.3202
24042W        W40889   0.052  10.074   1.217 -0.3728 -0.2459  0.1772
24043W        W40890   4.908   9.945   4.115 -0.1736 -0.0548  0.1480
24044W        W40891  13.527   1.721  11.305  0.2177 -0.0917 -0.2020
24045W        W40892   5.400   1.981   3.634 -0.0354 -0.1906  0.0078
24046W        W40893   0.818  12.831   0.861  0.0941  0.0222  0.0069
24047W        W40894   5.836  11.949   0.554 -0.0277  0.2263 -0.0882
24048W        W40895  17.324  11.960  16.129 -0.1301 -0.1565 -0.2105
24049W        W40896  14.179  15.786   2.786 -0.2717 -0.0299 -0.0523
24050W        W40897   7.286  10.576   5.491 -0.2393  0.1603 -0.0074
24051W        W40898  13.429  11.578  13.097  0.3193  0.1907 -0.1566
24052W        W40899   5.949  10.465   0.236  0.1333  0.0252  0.1603
24053W        W40900   9.074  17.356  11.533 -0.0613 -0.3577 -0.3909
24054W        W40901  14.700  15.707  14.976  0.2183  0.0510 -0.1880
24055W        W40902  16.221   5.868  13.772  0.2696 -0.1556 -0.0072
24056W        W40903  11.554  11.108  12.676 -0.1750  0.0999 -0.0326
24057W        W40904  14.163   3.579  12.694 -0.1680  0.4856 -0.0329
24058W        W40905   7.673  13.387  15.992  0.1270 -0.2151 -0.3216
24059W        W40906  12.852   6.198  10.948  0.0108 -0.0632  0.0044
24060W        W40907  17.319  17.349   4.656 -0.1422  0.1872  0.0736
24061W        W40908   4.796  11.085  13.983  0.0290  0.0727  0.0795
24062W        W40909  16.645  17.734   5.368 -0.2037  0.1863  0.1514
24063W        W40910  18.020   4.712   1.407 -0.0467 -0.0439 -0.0376
24064W        W40911  12.489  14.558   3.489 -0.0385 -0.1515 -0.1473
24065W        W40912   9.213   6.373  10.959  0.0411  0.0595  0.2712
24066W        W40913   4.929  10.536  14.577 -0.0649  0.2523 -0.0405
24067W        W40914  16.311   4.379  13.489 -0.0371 -0.0964  0.2289
24068W        W40915   2.035   7.554   1.653  0.1199 -0.0447  0.0134
24069W        W40916   4.102   1.993  12.584  0.0547 -0.1129  0.1945
24070W        W40917  14.602  10.336   4.367 -0.2750  0.3550 -0.1606
24071W        W40918  12.411  13.508  14.427  0.2431 -0.0413  0.1445
24072W        W40919   1.141   6.081   0.379  0.1932 -0.1982 -0.1524
24073W        W40920  15.224   9.407   1.691  0.2122  0.0335 -0.0095
24074W        W40921  18.282   8.699   0.347 -0.0655  0.1874 -0.3969
24075W        W40922   7.995  17.789   1.664  0.0406  0.3698  0.4710
24076W        W40923  11.892   0.838  13.355  0.1476  0.2574 -0.1289
24077W        W40924  15.526   5.690   1.522 -0.1635 -0.0434 -0.1193
24078W        W40925   1.213   7.011  14.481 -0.1361  0.1246  0.4256
24079W        W40926  15.500   0.697  14.775  0.2091  0.0921  0.1050
24080W        W40927  10.480   0.333   2.667 -0.2091  0.0429 -0.0371
24081W        W40928  14.905  11.192  15.677 -0.0621 -0.0084  0.1505
24082W        W40929   1.735  13.538  13.393 -0.1704 -0.2246  0.1152
24083W        W40930   9.913   2.343   1.498 -0.0692  0.0242  0.0123
24084W        W40931  13.630  12.910  11.955 -0.0808 -0.1267 -0.2600
24085W        W40932   0.797  10.504   2.695 -0.2774 -0.0539  0.2569
24086W        W40933   3.622  15.355   0.936 -0.0972  0.1553 -0.0710
24087W        W40934  13.100   4.029   4.631  0.1375  0.2500  0.1553
24088W        W40935   7.940   7.381  16.035 -0.2396 -0.1328 -0.1474
24089W        W40936   8.801   8.896   4.057  0.2122  0.1534 -0.0307
24090W        W40937   6.035   3.339   0.239  0.0086  0.0114 -0.1271
24091W        W40938   2.840   9.866  11.631 -0.0606  0.2842  0.0579
24092W        W40939   1.636   2.654  15.400  0.0302 -0.1074  0.0270
24093W        W40940   5.818   1.323   4.598  0.1883  0.2553 -0.1152
24094W        W40941  16.079  16.994  11.695 -0.4197 -0.1274 -0.2290
24095W        W40942  10.445   9.942  11.256 -0.2007 -0.1012 -0.0406
24096W        W40943  14.156  15.499  13.115 -0.0831 -0.1516  0.2171
24097W        W40944   9.615   4.187   0.754  0.2852 -0.1768  0.1920
24098W        W40945   1.774   0.177  16.027  0.1230  0.3573 -0.1532
24099W        W40946   6.102  12.194   2.537 -0.0599  0.1431  0.3057
24100W        W40947  11.388   3.365   5.139 -0.0865  0.1394  0.2410
24101W        W40948   8.963   2.484   4.288 -0.1739  0.4195 -0.1221
24102W        W40949   3.010  11.730  14.973  0.1058  0.1884  0.0103
24103W        W40950  14.188  13.676   2.985  0.0111 -0.0804  0.1025
24104W        W40951   5.673   5.410   4.230 -0.0500 -0.1608  0.0680
24105W        W40952  10.393  15.335  15.682  0.1447  0.1893  0.3248
24106W        W40953   1.121   1.927   1.165 -0.2147  0.0642  0.0869
24107W        W40954   1.315  15.563   1.558  0.1929  0.0669 -0.0548
24108W        W40955  11.608   5.893   2.764  0.3097  0.0283  0.2651
24109W        W40956   2.489   8.473  13.014 -0.2504 -0.0956 -0.0750
24110W        W40957  10.682   5.651   0.720 -0.0103  0.0091  0.2687
24111W        W40958  11.653   3.539   1.822 -0.1636 -0.0294 -0.0667
24112W        W40959  17.379   2.780   3.360  0.1519 -0.1410  0.1765
24113W        W40960   0.302   9.959  13.274  0.0179  0.1689  0.0086
24114W        W40961   2.244   9.527  14.836  0.0759 -0.0054 -0.0383
24115W        W40962  14.502  16.733  12.384  0.0509  0.0748  0.2368
24116W        W40963   9.823  16.457   2.862  0.0812 -0.1748  0.0295
24117W        W40964   2.024  11.992   1.961 -0.2753  0.1868 -0.0485
24118W        W40965   1.714  11.264   1.680 -0.1814 -0.1323 -0.3238
24119W        W40966  14.510   4.561  14.791 -0.0886 -0.3297 -0.0849
24120W        W40967  15.161   5.534   1.047  0.0294 -0.1719 -0.0915
24121W        W40968  10.756  13.149   4.948  0.0524 -0.0982 -0.1448
24122W        W40969  12.963  13.684   1.943 -0.0576 -0.1300  0.3958
24123W        W40970   4.773  12.040   2.833  0.1930  0.0991  0.1604
24124W        W40971   4.662   6.197   3.823 -0.1569 -0.2621 -0.1993
24125W        W40972  14.898   4.802  15.045  0.0292  0.4026  0.0941
24126W        W40973   4.547  13.568  12.951 -0.3591  0.1158  0.2572
24127W        W40974  11.542   2.192   2.465  0.0339 -0.2121  0.1354
24128W        W40975  16.262  14.225   0.204  0.1141  0.1591  0.2243
24129W        W40976   4.636  14.609   1.382  0.1764 -0.1531 -0.1116
24130W        W40977  10.894   2.690   4.096  0.0928  0.0956 -0.0148
24131W        W40978   5.292  10.572   3.627 -0.1340  0.3550 -0.1822
24132W        W40979   2.351  10.734  15.711 -0.0676 -0.0357 -0.0675
24133W        W40980  15.960  12.860   4.371 -0.0098  0.2643  0.1160
24134W        W40981   3.955   7.693   5.176 -0.2217 -0.1137 -0.0145
24135W        W40982  13.937   1.947   4.899  0.2428  0.1600 -0.2094
24136W        W40983  10.665   2.395  15.393  0.3660 -0.0365 -0.2074
24137W        W40984   6.913   6.171  13.672  0.0154  0.0027  0.2117
24138W        W40985  11.532  17.911   1.949  0.4508 -0.0703  0.3634
24139W        W40986  16.692   7.351   3.626  0.0844  0.1027 -0.1404
24140W        W40987   9.125   2.793  12.599  0.0364 -0.3485 -0.1600
24141W        W40988   5.083   8.990  13.130  0.0555  0.2639  0.0968
24142W        W40989  12.265  11.726   1.247  0.1503  0.3733 -0.2636
24143W        W40990   1.912  14.888   0.987 -0.0509  0.0312  0.0628
24144W        W40991  10.014   0.964  11.414  0.1766  0.3213 -0.0716
24145W        W40992   2.373   6.731   1.290  0.0640 -0.0385 -0.2085
24146W        W40993   6.975  14.822  14.701 -0.0117  0.2094  0.0056
24147W        W40994  12.158   7.477  10.787  0.1147  0.2884 -0.2385
24148W        W40995  10.240  16.985   4.437 -0.1284  0.1423  0.0649
24149W        W40996  14.091  14.094   5.772 -0.0877  0.1616  0.1142
24150W        W40997   8.672  17.876  12.907 -0.0114 -0.0935  0.0930
24151W        W40998   9.565  18.249   2.481  0.0962  0.0339 -0.2619
24152W        W40999  10.497  13.106   4.454 -0.0458 -0.1188 -0.0288
24153W        W41000   4.337   6.954  15.619  0.1688  0.0357 -0.1921
24154W        W41001  14.926  14.130   1.953 -0.2871  0.1478  0.0467
24155W        W41002   5.047   6.581  15.878 -0.0311  0.0551 -0.1267
24156W        W41003  17.593   4.470   0.745 -0.0272 -0.0144 -0.0200
24157W        W41004  17.221  10.705  15.152  0.2233  0.1362  0.1414
24158W        W41005   7.371  16.017   2.256 -0.1060  0.4150 -0.0171
24159W        W41006   7.352   2.420  14.166  0.1135  0.0472  0.0437
24160W        W41007  13.800  15.212   2.979 -0.0269  0.0341 -0.0271
24161W        W41008   0.189   8.229  14.022  0.0511  0.0582 -0.0589
24162W        W41009  13.359  13.468   4.533  0.2165 -0.2255 -0.1306
24163W        W41010   4.942  14.209   2.695 -0.0983  0.2099  0.0789
24164W        W41011  13.105   5.343  15.152 -0.0595 -0.0929  0.2549
24165W        W41012   6.064   7.914   3.638 -0.1714  0.0562  0.0332
24166W        W41013  17.982   8.805  16.036  0.0169 -0.1395  0.0340
24167W        W41014   9.805   8.015   2.773 -0.1699 -0.0076 -0.0512
24168W        W41015  10.210  12.813  10.395 -0.2543 -0.0885  0.0028
24169W        W41016  10.305  17.027   2.231 -0.0464 -0.0725  0.0690
24170W        W41017  13.928   7.308  11.749 -0.1921 -0.2819  0.0566
24171W        W41018   0.887  18.156  13.743 -0.2616 -0.2679 -0.0333
24172W        W41019   4.422  14.433  15.080 -0.1465  0.0545  0.0427
24173W        W41020   9.995   8.761  14.167  0.0416 -0.0215  0.0457
24174W        W41021  17.256   5.001  14.193  0.0969  0.0643 -0.0898
24175W        W41022  10.453   2.219   3.184  0.5467  0.2295  0.0164
24176W        W41023   7.757   6.911   3.495 -0.1567 -0.2221  0.0358
24177W        W41024   9.094   1.901  16.041 -0.1238  0.0492  0.0588
24178W        W41025  13.745  17.476  12.650 -0.0577  0.3920  0.0166
24179W        W41026   8.422  15.789  12.647 -0.0788  0.0665  0.1263
24180W        W41027   9.173   5.751   2.922  0.0380 -0.0981 -0.0375
24181W        W41028  13.542   3.168   2.573 -0.0889 -0.2994 -0.0189
24182W        W41029   7.306   8.317   0.370 -0.1256 -0.2144  0.1731
24183W        W41030   2.198   8.003   3.427 -0.4995 -0.0027 -0.1399
24184W        W41031  16.613   8.485  15.609  0.2998  0.1440 -0.0730
24185W        W41032  14.428   5.310  12.869 -0.2083  0.0764  0.1818
24186W        W41033   5.901  16.973   1.014 -0.1227  0.0243  0.0458
24187W        W41034  11.636  12.137  13.788  0.0948  0.2732  0.0328
24188W        W41035   7.619  13.905  13.720 -0.0773 -0.1514  0.1230
24189W        W41036  11.287  15.921   2.093 -0.1427  0.0371  0.1758
24190W        W41037   1.160  15.058  13.006  0.1743  0.0903  0.3876
24191W        W41038  14.083   4.753  13.771  0.2054 -0.0556 -0.0844
24192W        W41039  15.754  13.174   2.266 -0.1986 -0.0528  0.3120
24193W        W41040   4.132  11.839   1.646 -0.1823 -0.1222 -0.1863
24194W        W41041  16.961  11.210  12.260 -0.2616 -0.0282  0.1056
24195W        W41042  14.044   8.223  13.291  0.0885  0.1762 -0.5996
24196W        W41043   5.128   8.955  15.859 -0.2378 -0.1314  0.3464
24197W        W41044   4.663   6.319  14.106  0.0168 -0.2185  0.1252
24198W        W41045  15.130   6.547  10.997  0.0623 -0.1691 -0.2838
24199W        W41046   5.549   3.006  15.747 -0.1938 -0.1213  0.1912
24200W        W41047  17.630   1.556  11.555 -0.1784 -0.0150  0.0264
24201W        W41048  13.116  13.674  11.504 -0.1868 -0.2847  0.0536
24202W        W41049  12.176  15.409  14.760 -0.1933  0.0818 -0.0596
24203W        W41050   1.814   3.284  13.953 -0.0676  0.1602  0.0339
24204W        W41051  15.167  17.403   1.247  0.2166  0.0839 -0.2966
24205W        W41052  11.485  11.533   5.299 -0.1001  0.0187 -0.1326
24206W        W41053  11.802  14.310  13.051  0.2252  0.1050  0.0067
24207W        W41054   4.084   8.689   0.366  0.2641  0.0415 -0.0412
24208W        W41055   7.042   3.620   3.304 -0.3450 -0.1002 -0.2161
24209W        W41056  15.314   3.231   3.203  0.1586  0.1774  0.1812
24210W        W41057   1.055   6.024  13.446  0.2575  0.2302  0.0469
24211W        W41058  16.650   5.469  11.520 -0.2173  0.4523  0.2294
24212W        W41059  17.845  11.369   2.427  0.1230  0.1379 -0.0354
24213W        W41060   6.656  10.192  12.638 -0.1921  0.4065 -0.3471
24214W        W41061   8.172   9.972   0.458 -0.2011 -0.1475 -0.0832
24215W        W41062  12.020   2.240   5.134 -0.1505  0.1638  0.0880
24216W        W41063  16.693   5.706  12.066  0.0810  0.2722 -0.0525
24217W        W41064  16.853  13.945  12.187 -0.0757  0.0142  0.0200
24218W        W41065   6.789  10.397  13.785  0.0776 -0.0420 -0.2328
24219W        W41066   9.550   0.235   1.550  0.2989  0.0878  0.0259
24220W        W41067   9.159   3.310   4.130  0.0093 -0.0269  0.1317
24221W        W41068   0.707  16.869   0.623  0.1325  0.2801 -0.0483
24222W        W41069   0.774  10.436   1.315  0.0035 -0.2236  0.1599
24223W        W41070  13.192  15.843   2.455  0.0126  0.0199 -0.2292
24224W        W41071   7.966   5.866  13.865 -0.1300  0.2016  0.0256
24225W        W41072  11.000   7.203  11.210  0.1914 -0.1456  0.0669
24226W        W41073   6.272  16.653   0.985 -0.1043  0.0644  0.0529
24227W        W41074  11.462  16.386  13.500 -0.0819 -0.1702 -0.3029
24228W        W41075   4.816   2.506   0.711  0.1000 -0.1295 -0.2300
24229W        W41076  16.871   3.609   2.524  0.0212 -0.2776 -0.0020
24230W        W41077   5.394   7.011  15.201  0.2709  0.2419  0.0970
24231W        W41078   9.300  16.497   1.529 -0.1260 -0.0879 -0.1207
24232W        W41079   3.997   2.179  15.936  0.2983  0.1331 -0.1806
24233W        W41080  12.353   1.075  14.155 -0.0962  0.0595  0.0811
24234W        W41081  11.722   5.228   4.480  0.2739 -0.3342  0.1683
24235W        W41082   5.546  16.692  13.613  0.2720  0.1396  0.1470
24236W        W41083  12.666   4.439  11.510  0.2159  0.2640 -0.1154
24237W        W41084  10.193  16.526   5.178  0.0033 -0.4008 -0.0144
24238W        W41085  14.703   3.101  11.355 -0.1240 -0.0481 -0.3441
24239W        W41086  10.290   2.722   4.938  0.1661  0.1582  0.0653
24240W        W41087  12.424   8.862  12.371 -0.0414  0.0442 -0.0143
24241W        W41088   8.703   8.726  14.772 -0.1966 -0.0851  0.0962
24242W        W41089   3.166  17.282  11.638 -0.0164 -0.0370  0.0950
24243W        W41090  17.337   1.414   0.150  0.1091  0.6549  0.0148
24244W        W41091   4.400   3.577   2.154 -0.2664 -0.1799  0.0085
24245W        W41092  12.820   1.027   1.902  0.0288 -0.0262 -0.0818
24246W        W41093  16.388  17.275  10.395 -0.1891 -0.2397 -0.1067
24247W        W41094   5.557   1.020   6.415  0.0387  0.1472 -0.0693
24248W        W41095   5.554   0.114   2.868  0.2039 -0.1322 -0.1466
24249W        W41096  11.182   6.652   1.639 -0.0959  0.3906  0.1097
24250W        W41097   2.178   3.848  13.997 -0.0463 -0.0698 -0.2846
24251W        W41098  12.793  17.876   1.484  0.0704 -0.1130  0.1911
24252W        W41099  14.148   0.724   1.993  0.0627 -0.0259  0.2605
24253W        W41100   0.158   0.157  11.603 -0.2573  0.1050  0.2648
24254W        W41101  12.258   6.002   1.212  0.2173 -0.0372 -0.0639
24255W        W41102   9.016   3.956   1.246 -0.3841  0.0037 -0.0610
24256W        W41103   8.899  13.336   1.943 -0.0286 -0.1407  0.2091
24257W        W41104   5.884   4.580  13.045 -0.1924  0.2657 -0.1201
24258W        W41105  14.884   0.214  15.102  0.0767  0.1302 -0.0653
24259W        W41106   3.956   9.547  15.671  0.0888 -0.4594  0.2774
24260W        W41107   1.499  15.639   3.398  0.0637  0.2307  0.1050
24261W        W41108  10.093   8.160   0.225 -0.0096  0.0641  0.0855
24262W        W41109   4.183  17.812  13.299 -0.3735 -0.0059 -0.0870
24263W        W41110  11.432   4.574   2.901  0.1088 -0.2093  0.2897
24264W        W41111  12.971   2.417  14.499  0.1467 -0.4997 -0.0886
24265W        W41112   7.620   9.652  15.295  0.2446 -0.1930  0.4452
24266W        W41113   0.447  13.735   1.405  0.0728  0.3367  0.2750
24267W        W41114  18.046  17.368   0.951  0.2387 -0.0503  0.3485
24268W        W41115   0.054   6.807   1.101 -0.4262  0.1650  0.1717
24269W        W41116  12.896  14.126  12.266 -0.2875 -0.0316  0.0999
24270W        W41117   4.115   6.537   0.781 -0.1068  0.1223 -0.0517
24271W        W41118   4.294  11.899  15.208  0.3671 -0.2090  0.3351
24272W        W41119   5.613  15.934   1.514  0.0874 -0.2166 -0.1502
24273W        W41120   5.965  18.220  14.462  0.1610 -0.0871  0.1707
24274W        W41121  11.722  12.513  12.505 -0.0481  0.2745 -0.1727
24275W        W41122   5.001   7.369  12.413 -0.4478  0.2054  0.0726
24276W        W41123   2.099   8.303  12.581  0.0127 -0.1351 -0.0137
24277W        W41124   7.770   9.002  13.109  0.0077  0.3257  0.1745
24278W        W41125   5.903   0.105  14.955 -0.0269  0.0594 -0.0597
24279W        W41126   0.004  11.685   4.324  0.1826  0.1562 -0.1760
24280W        W41127   3.892  10.502  12.839 -0.0436 -0.2758 -0.1083
24281W        W41128   6.083   0.402   4.419  0.2462  0.0852  0.0791
24282W        W41129  11.954   4.005   0.572 -0.1017  0.0894  0.0481
24283W        W41130   6.529   9.152  14.544  0.0140  0.0560  0.1290
24284W        W41131   4.716   9.247   5.927 -0.0045  0.0245 -0.3537
24285W        W41132  13.628   9.998  14.124  0.1266  0.0129 -0.1800
24286W        W41133   3.544  11.739  14.072 -0.2399  0.0424 -0.1041
24287W        W41134   4.766   3.580  12.832  0.1326  0.1373 -0.3266
24288W        W41135   0.803  17.922  14.578  0.0118 -0.1693  0.0737
24289W        W41136   3.624  17.604  13.855 -0.2095 -0.2385  0.0315
24290W        W41137   2.671  15.182   0.632 -0.0222  0.2967 -0.4276
24291W        W41138   9.366  12.414  14.868 -0.3499 -0.0672  0.0503
24292W        W41139   8.941   1.458  13.508 -0.1555  0.1191  0.0746
24293W        W41140  14.278   7.953  14.635 -0.1996 -0.0006 -0.0168
24294W        W41141   0.841   5.667  14.281  0.0678  0.1782  0.0802
24295W        W41142   4.780   5.248  15.412 -0.1991  0.2498  0.2461
24296W        W41143  15.050  13.680  15.459  0.0258  0.1286 -0.0662
24297W        W41144  10.520  13.009   1.683  0.1816  0.0247 -0.0926
24298W        W41145  17.373   2.307   0.807 -0.1928  0.1279 -0.0891
24299W        W41146  18.258  14.953   2.647  0.1779  0.3999  0.2445
24300W        W41147   7.331  13.025  15.831  0.0794  0.1659  0.0857
24301W        W41148  16.354  13.854   3.838  0.0810 -0.1587  0.2374
24302W        W41149   6.668  14.448  13.811 -0.0667 -0.2925 -0.1159
24303W        W41150  16.160  14.675   4.785 -0.1288 -0.0735  0.2132
24304W        W41151  12.927   7.496  11.787  0.2868  0.0650 -0.0361
24305W        W41152  15.275   7.192   3.508  0.2271 -0.3308  0.0986
24306W        W41153   8.572   8.558  16.083  0.2657  0.2221 -0.1836
24307W        W41154  15.906   1.040   5.634 -0.4188  0.2292 -0.2298
24308W        W41155   6.138  12.491  13.908 -0.0622  0.0015 -0.0266
24309W        W41156  14.201   8.566  11.415  0.1084  0.0567 -0.5269
24310W        W41157   1.898   7.797   4.709  0.2593 -0.1002  0.1624
24311W        W41158  15.211  12.305   3.098 -0.1590  0.1138 -0.1749
24312W        W41159  15.771  13.556  14.620 -0.0076  0.1305 -0.2668
24313W        W41160   9.819   2.257  11.546 -0.0902 -0.0522 -0.5334
24314W        W41161  10.529   4.491  15.865 -0.1190  0.0290 -0.1027
24315W        W41162  12.862  10.042   3.940 -0.3768 -0.0432 -0.1146
24316W        W41163   5.875   6.997   0.829  0.1167 -0.0788 -0.0170
24317W        W41164   7.891   8.809   1.052  0.2283  0.0081  0.1665
24318W        W41165   9.721   1.827  11.787 -0.3509 -0.0409 -0.2048
24319W        W41166   4.721  18.199   2.282 -0.0938  0.2232 -0.0647
24320W        W41167  16.264  14.256   3.171 -0.2512 -0.1211 -0.1428
24321W        W41168   2.059   7.651   0.219  0.1144  0.0985 -0.1948
24322W        W41169   2.593  12.974   4.525 -0.4631  0.2481  0.0458
24323W        W41170  10.962  12.656  11.754 -0.1795 -0.1481  0.3676
24324W        W41171  10.155  11.101  15.518  0.1287 -0.1623 -0.0952
24325W        W41172   5.094  11.805   1.559 -0.3190  0.2725  0.3365
24326W        W41173  13.854   1.318  13.690 -0.0268 -0.2860  0.0986
24327W        W41174   9.160   6.353  11.912 -0.0160  0.1943  0.0505
24328W        W41175   4.390   2.468   4.294 -0.0578  0.0158  0.0937
24329W        W41176  11.656   6.726  13.506  0.0802 -0.2613  0.0815
24330W        W41177   2.020   4.749  11.714 -0.0847  0.0664  0.0894
24331W        W41178  16.633   0.290   4.053  0.1715 -0.1632  0.1567
24332W        W41179   2.805   6.919  12.037 -0.1891 -0.0128  0.2464
24333W        W41180   8.817  17.728  11.719 -0.2331 -0.4446  0.1987
24334W        W41181  15.572   9.929  11.987 -0.0843  0.0753  0.0006
24335W        W41182   7.475  12.828   1.316  0.0218 -0.2613 -0.1200
24336W        W41183  14.628  15.581   4.809 -0.3059  0.1121 -0.0407
24337W        W41184   8.678  11.450   3.035 -0.0328 -0.0758 -0.5124
24338W        W41185  10.295  14.269  13.707 -0.0632  0.0278 -0.1674
24339W        W41186   2.710   0.869  13.560 -0.1370 -0.0700 -0.1624
24340W        W41187   8.563  16.454   0.730  0.2014 -0.0575 -0.1575
24341W        W41188   9.554   6.067   1.132  0.1138  0.3309 -0.0032
24342W        W41189  17.849   6.027   4.536 -0.1824 -0.4116 -0.0627
24343W        W41190  13.254   8.471  15.277 -0.0019  0.1045 -0.3416
24344W        W41191   7.200   2.222   3.178  0.0544  0.1859 -0.0318
24345W        W41192   0.753   7.812  11.891  0.0672 -0.2073  0.3082
24346W        W41193   5.419  14.058   2.794  0.1728 -0.1413  0.0261
24347W        W41194  14.979  11.865   4.933  0.2223 -0.2006  0.2896
24348W        W41195  13.248  16.018  12.242  0.3211  0.1192 -0.1011
24349W        W41196   7.729   7.603   0.916 -0.2733  0.0146 -0.1657
24350W        W41197   7.811  16.931  10.391  0.1236  0.0767 -0.1340
24351W        W41198  14.493   3.647   0.080  0.0491  0.0320 -0.0571
24352W        W41199  11.027  13.552  11.618 -0.1266 -0.0732 -0.2897
24353W        W41200   2.445  11.372   4.223 -0.1180  0.0737  0.2165
24354W        W41201  17.463   6.118  15.088 -0.0561 -0.0967  0.0730
24355W        W41202   0.179   8.763   3.550  0.0453  0.1519 -0.0462
24356W        W41203   0.808  11.696   4.226  0.1840  0.1063 -0.1660
24357W        W41204   2.671   5.136   3.885 -0.1000  0.1957  0.3140
24358W        W41205  15.712   8.520   3.893 -0.1719 -0.1563 -0.1097
24359W        W41206   3.903   8.874   4.734  0.0056  0.2592 -0.1424
24360W        W41207  11.383  17.163   3.332 -0.0182 -0.1529 -0.1921
24361W        W41208   9.443  16.617  13.231  0.0461 -0.1341 -0.1313
24362W        W41209  15.163  17.072  14.468 -0.0206  0.2693 -0.1849
24363W        W41210   8.414   2.808  11.434  0.0415 -0.0286 -0.1192
24364W        W41211  13.407  13.743   1.616  0.2178  0.1056 -0.2217
24365W        W41212   9.589  17.863   3.722 -0.1008  0.2711 -0.0801
24366W        W41213   2.422   2.309   3.381  0.0707  0.0325  0.1587
24367W        W41214  13.918   4.827   3.893 -0.2697 -0.0430  0.4293
24368W        W41215   4.586   0.292   5.054  0.2653 -0.0307  0.1155
24369W        W41216  11.398  12.281  14.280  0.0861  0.0819 -0.0815
24370W        W41217   1.559   3.870   1.244  0.1863  0.3479 -0.1629
24371W        W41218  13.455  18.095   4.779 -0.1048  0.0439  0.2137
24372W        W41219  13.478   7.717   4.341  0.1066  0.0084 -0.0476
24373W        W41220   0.648   8.981   4.133 -0.0530 -0.1487 -0.1014
24374W        W41221  10.905   9.516   4.128 -0.0195  0.0069 -0.0976
24375W        W41222  11.801   8.135   3.780  0.1554 -0.2361  0.0184
24376W        W41223  17.547  14.230   6.293  0.3942  0.0171  0.0027
24377W        W41224  13.801   0.861  12.156 -0.3143  0.0668  0.3517
24378W        W41225   0.073  14.386   3.544 -0.4898  0.1823  0.0452
24379W        W41226  12.903   5.597   0.173 -0.0483  0.0518  0.1095
24380W        W41227   7.219  11.634   1.250  0.3226 -0.0432  0.2912
24381W        W41228   2.185  13.203   5.216  0.0350 -0.1645 -0.0490
24382W        W41229   0.044  12.770   1.419 -0.0360 -0.1927 -0.2970
24383W        W41230   6.501   2.414  13.944 -0.1586 -0.1614 -0.1183
24384W        W41231  14.601   2.626  14.943  0.1274  0.2655  0.0214
24385W        W41232   2.111   7.773  15.404 -0.0635  0.0243 -0.0961
24386W        W41233  12.341   1.681   2.826 -0.1868  0.0065 -0.2960
24387W        W41234   4.192   4.820   3.111 -0.0717 -0.1382  0.0391
24388W        W41235   7.892   9.857   4.489 -0.0410 -0.0802  0.0834
24389W        W41236   0.342  11.972   4.147  0.1637  0.1121  0.3309
24390W        W41237  15.496  18.231  12.732  0.1560  0.0971 -0.1006
24391W        W41238   4.648   2.663   1.206  0.1450  0.0094 -0.1614
24392W        W41239   0.580   3.175   2.556 -0.0219  0.0142  0.1463
24393W        W41240  15.367   6.880   0.199  0.1507  0.1779  0.0853
24394W        W41241  17.700  16.584   5.945 -0.1130 -0.1759  0.2520
24395W        W41242   0.191  15.751  11.431  0.1665  0.1356  0.0846
24396W        W41243   0.263   5.333  15.621 -0.1183  0.0176  0.0164
24397W        W41244   4.460   8.148  15.109  0.0009  0.3810  0.1738
24398W        W41245  12.545  13.469   3.821 -0.0095  0.1452 -0.1325
24399W        W41246  16.013  17.199   2.613  0.0220 -0.0739  0.0237
24400W        W41247   2.892  17.703   3.510 -0.0684 -0.3467 -0.1977
24401W        W41248   9.587  16.083  12.566 -0.1238 -0.2774  0.2986
24402W        W41249  17.904  15.159   1.815 -0.2333  0.0363  0.0445
24403W        W41250  15.219  12.788   2.907 -0.0086 -0.1269 -0.2100
24404W        W41251   4.978   9.146  11.697  0.1405 -0.0777  0.2076
24405W        W41252   4.825   3.652  14.404 -0.1985 -0.2084  0.1133
24406W        W41253   5.504   7.017   5.007 -0.3975 -0.0798  0.0567
24407W        W41254   6.201   1.957  13.902 -0.0582  0.0485  0.0744
24408W        W41255   2.560  16.370  15.878 -0.0203  0.1002 -0.1143
24409W        W41256   8.262   7.641   3.986 -0.1373 -0.0241 -0.1113
24410W        W41257   4.692  18.178  12.985 -0.0916 -0.0696  0.1723
24411W        W41258   6.598  14.215   0.923 -0.1063  0.1291  0.1619
24412W        W41259  15.916   6.107  12.537  0.0188  0.0334  0.0882
24413W        W41260  13.743   6.488  10.896  0.1291 -0.1434 -0.1734
24414W        W41261  14.153  10.010  15.837 -0.1251 -0.0556 -0.0022
24415W        W41262   5.716  13.718  14.898  0.1091 -0.0615 -0.2051
24416W        W41263   0.589   3.949  13.366 -0.0609 -0.0149  0.0319
24417W        W41264   6.215   1.087  13.243  0.1262 -0.0071  0.1112
24418W        W41265   3.005   5.932  15.724 -0.0563  0.2749  0.2150
24419W        W41266   9.848  16.524   5.889  0.0422 -0.1115 -0.1965
24420W        W41267   5.175   6.791  11.462 -0.0814  0.0076  0.0386
24421W        W41268  10.789   4.824  12.031  0.1808  0.1083  0.0505
24422W        W41269   9.422   2.225  13.828 -0.0273  0.1919 -0.1202
24423W        W41270   5.069   4.245  15.032 -0.3100  0.1180  0.1961
24424W        W41271  10.311  14.308   3.897  0.0723 -0.0314 -0.1439
24425W        W41272   7.075   2.729   6.372 -0.2131 -0.1583 -0.0197
24426W        W41273   7.884  15.944  11.755 -0.1464 -0.3266 -0.0133
24427W        W41274   6.830   2.984  11.565 -0.2663 -0.0105  0.0505
24428W        W41275   6.134   5.427  13.698 -0.0634 -0.0630 -0.1277
24429W        W41276   2.201   2.735  13.113 -0.2010  0.1576 -0.1024
24430W        W41277  16.287  13.743   4.685  0.2615  0.0622 -0.3092
24431W        W41278   6.660   5.153  11.876 -0.0092  0.1572  0.1158
24432W        W41279   5.010   9.186   2.767 -0.2327 -0.2473 -0.1074
24433W        W41280   6.302  17.445  12.188  0.2754 -0.0925 -0.1329
24434W        W41281  11.185   5.548   0.874  0.0758  0.0979  0.0673
24435W        W41282   4.332   2.716  13.804  0.0891 -0.0169  0.1229
24436W        W41283   8.270   2.295  13.967 -0.3025 -0.0970  0.0215
24437W        W41284   7.485   7.919   5.127  0.1770  0.1456  0.1067
24438W        W41285   9.662  13.491  12.335  0.1016 -0.2950 -0.0350
24439W        W41286   0.501   8.619  15.018 -0.2645 -0.1666  0.3000
24440W        W41287  11.008   5.583   0.188 -0.2165 -0.1816  0.1324
24441W        W41288  12.048   5.733   0.835  0.1541  0.1791  0.2425
24442W        W41289  15.866  12.875  14.036  0.0781 -0.1257 -0.0302
24443W        W41290  14.413   3.944  12.896 -0.1820  0.3030  0.1502
24444W        W41291  11.107  10.688   3.573 -0.1029 -0.1012  0.0193
24445W        W41292   7.352   4.731   1.103 -0.0435 -0.1910 -0.3001
24446W        W41293  13.467  16.275  13.723 -0.0975  0.1099  0.2106
24447W        W41294   1.726   3.094   3.448  0.1729 -0.0475  0.0455
24448W        W41295  13.692   0.235  13.337 -0.1782 -0.0995 -0.0658
24449W        W41296  16.537  10.455  12.510  0.1857 -0.0821  0.0296
24450W        W41297   5.006   4.841   0.093 -0.1988 -0.5194 -0.2441
24451W        W41298  17.989   9.713  15.209  0.2430 -0.3148  0.1448
24452W        W41299   8.355  10.970  14.593 -0.2707 -0.2348 -0.0111
24453W        W41300  11.788  17.234  12.761 -0.1406 -0.3376 -0.5198
24454W        W41301  12.178  17.862  14.029 -0.0452 -0.0720  0.6010
24455W        W41302  10.445   1.850  15.893 -0.0640  0.1748 -0.1323
24456W        W41303  17.573   7.007   4.756 -0.1438 -0.0478 -0.1979
24457W        W41304  12.620  15.860   2.519 -0.3372  0.0885  0.0768
24458W        W41305   4.460  16.233   5.132  0.1054  0.0564 -0.1365
24459W        W41306   9.621  16.323   2.323  0.2868 -0.2811 -0.0572
24460W        W41307  17.905  17.883   0.120  0.1127  0.1143  0.0525
24461W        W41308   6.212   5.421  12.067 -0.1696  0.1704 -0.1165
24462W        W41309  14.246   4.454  11.618 -0.2233  0.1391 -0.0245
24463W        W41310   5.520  15.052   0.752  0.1581  0.0945  0.1222
24464W        W41311   8.854   1.467   1.132 -0.0436  0.3136 -0.0173
24465W        W41312  12.673  13.831  15.305 -0.0970  0.2350  0.3774
24466W        W41313   3.590   4.418   2.603 -0.0498 -0.0410  0.0188
24467W        W41314   8.310  10.171  16.074  0.5497  0.1724 -0.0991
24468W        W41315  12.023   9.430   3.091  0.0069  0.3100  0.1314
24469W        W41316  14.735  10.214  14.042 -0.2463 -0.1245  0.0927
24470W        W41317   2.613  13.514   0.630 -0.1052  0.0427 -0.1198
24471W        W41318  14.721  13.363  15.058  0.0271  0.2435 -0.2215
24472W        W41319   8.984  15.459  15.911  0.0479 -0.2445 -0.0917
24473W        W41320   1.197   9.869  12.247  0.0285  0.1612 -0.2588
24474W        W41321   0.994  14.813   3.096  0.0044  0.2452 -0.0464
24475W        W41322   6.146  17.612   2.713  0.1625 -0.4386  0.2358
24476W        W41323  15.556   9.733  10.821 -0.1553 -0.3144 -0.2323
24477W        W41324  18.314  13.032   1.004  0.4192  0.2121  0.0572
24478W        W41325  17.648  18.030  14.476  0.1545  0.0373 -0.0424
24479W        W41326   1.445  13.337   0.654  0.2226 -0.0197  0.0629
24480W        W41327   2.508   6.239  12.847  0.0303 -0.1474  0.0803
24481W        W41328  11.711  10.849  15.932 -0.1129  0.0978  0.1111
24482W        W41329  11.613  18.255   6.166 -0.1590  0.2311  0.0664
24483W        W41330   7.179  17.910  12.860  0.3219 -0.3334  0.2289
24484W        W41331   6.844  13.825  15.799  0.0349 -0.1709 -0.0851
24485W        W41332   1.848   4.555   4.761 -0.1990  0.1615 -0.0118
24486W        W41333  10.650  16.861  15.723  0.0750 -0.0898 -0.0035
24487W        W41334  14.739  14.067  11.756 -0.1948 -0.0261  0.1859
24488W        W41335   2.393   4.308  12.542  0.0500  0.2537 -0.0898
24489W        W41336   7.134  10.511  15.652 -0.2900 -0.2227  0.1619
24490W        W41337   9.383   2.838   0.723  0.1466 -0.0168 -0.1952
24491W        W41338  12.829   6.006   1.974 -0.3197  0.1497 -0.1148
24492W        W41339  16.211  12.864   2.266  0.1368 -0.1655 -0.3270
24493W        W41340  17.088  15.243  10.800  0.3205  0.0253  0.2045
24494W        W41341   6.935   6.159   6.468 -0.0634  0.0123 -0.1761
24495W        W41342   7.606  11.317  15.116 -0.0840  0.1563 -0.1443
24496W        W41343   5.153   8.079  10.610  0.0653  0.2206 -0.1606
24497W        W41344  10.313   2.735  13.421  0.0725 -0.2750 -0.0171
24498W        W41345   0.556   3.726  11.363 -0.0447  0.0210  0.1092
24499W        W41346   3.378  17.981   5.752 -0.0176 -0.0750  0.1953
24500W        W41347   4.145   6.283  15.510 -0.3753 -0.0481 -0.1718
24501W        W41348   5.851   7.975  12.781 -0.2009  0.2936  0.1967
24502W        W41349   8.462  12.519  12.457 -0.0976  0.2166 -0.4192
24503W        W41350   7.988   4.106  15.868  0.0157 -0.1824 -0.1634
24504W        W41351   2.146   8.807  15.507 -0.1773  0.1138 -0.3568
24505W        W41352   7.047  17.383  14.145 -0.0739  0.2905  0.0551
24506W        W41353  17.055  12.716   5.305 -0.0198 -0.1556  0.1109
24507W        W41354  13.904   5.283  12.889 -0.2429 -0.1373 -0.1260
24508W        W41355   6.410   3.486  15.919  0.0597 -0.0027 -0.3387
24509W        W41356   2.422   5.198   6.123 -0.0785 -0.1408  0.0205
24510W        W41357  17.591   7.622   1.768 -0.2492 -0.0985  0.2087
24511W        W41358  13.754  10.461   1.338 -0.1255 -0.1842 -0.0507
24512W        W41359  10.601   9.210  15.086  0.3066 -0.0659  0.2141
24513W        W41360   1.820  12.714  13.133  0.0814 -0.2782  0.3483
24514W        W41361   6.602   5.961   3.383  0.0958  0.1772  0.1192
24515W        W41362   4.381   2.383  12.385  0.0571  0.2124 -0.0013
24516W        W41363   1.683  13.304   4.192  0.0114 -0.0231  0.2344
24517W        W41364  11.885   4.389   0.926  0.3399  0.1240  0.1397
24518W        W41365   7.928   3.954  11.551 -0.1077 -0.2559  0.0228
24519W        W41366  16.640   8.169  13.147  0.0586  0.0091  0.1966
24520W        W41367  14.367  11.031   0.482 -0.0258  0.1362  0.0131
24521W        W41368  13.597   0.351   3.883  0.2774 -0.1104 -0.1623
24522W        W41369   4.397  13.010  11.614 -0.1869  0.0558  0.0228
24523W        W41370  10.460   8.746   4.919  0.1577  0.0185  0.0357
24524W        W41371   3.744  14.068   6.088  0.1449 -0.1258 -0.1987
24525W        W41372  17.640   6.833   2.806 -0.0409 -0.2112  0.2669
24526W        W41373   3.729   7.247  15.744  0.0176  0.2641  0.0041
24527W        W41374  13.867   6.155   2.018 -0.4929  0.0805 -0.1464
24528W        W41375  11.796   6.900  12.182  0.5794  0.2587  0.2563
24529W        W41376   0.355   8.186   3.166  0.1976 -0.1778 -0.0665
24530W        W41377  14.004  16.001  13.303 -0.0016  0.1395  0.0502
24531W        W41378   5.630  12.248  11.972  0.0165 -0.0839 -0.0064
24532W        W41379   9.180  11.509  15.156  0.2624  0.0298 -0.0262
24533W        W41380  17.322   2.105  14.762 -0.1456  0.0669 -0.2928
24534W        W41381  10.311   6.276  12.678  0.0690 -0.1895  0.1389
24535W        W41382   9.504  15.088  12.313  0.3547 -0.0352 -0.3288
24536W        W41383  12.396   6.836  14.239 -0.0648  0.0373 -0.0469
24537W        W41384   9.854  11.043  11.624 -0.0375 -0.3084  0.1093
24538W        W41385   2.900   7.885   2.542  0.0083 -0.0522  0.2902
24539W        W41386   1.689  14.625  13.437 -0.1897 -0.1273 -0.0895
24540W        W41387  12.231  12.054   3.188  0.2525 -0.0819  0.2219
24541W        W41388   2.784   8.403  12.107  0.0510 -0.0866  0.1538
24542W        W41389  15.883  13.068   2.775 -0.4217 -0.2486 -0.2097
24543W        W41390   6.293   5.698  10.747  0.3660  0.0562 -0.0148
24544W        W41391   7.039  12.294   5.136 -0.0743 -0.2261 -0.2746
24545W        W41392   3.055   2.562  14.706  0.4369 -0.3001 -0.2615
24546W        W41393  14.576  11.528  11.367  0.0638 -0.0666  0.1575
24547W        W41394   1.195  15.688   5.983 -0.1693 -0.1457  0.1095
24548W        W41395   2.658  17.476  10.315 -0.0118  0.3282  0.1550
24549W        W41396   9.195   4.126   3.284 -0.1626 -0.2985  0.1449
24550W        W41397  11.477  12.070   4.355 -0.3564  0.0213  0.1729
24551W        W41398  10.083   8.276   2.429  0.0246  0.0630  0.0169
24552W        W41399   3.544   9.934   4.723 -0.0636  0.1582 -0.1132
24553W        W41400   6.173   4.965   5.907  0.1494 -0.0595 -0.0300
24554W        W41401  14.622   1.286  13.339 -0.2339 -0.3055  0.1031
24555W        W41402   4.415  17.891  13.833  0.0046 -0.0500  0.0182
24556W        W41403  12.417  12.553  14.955  0.1081 -0.0047 -0.1318
24557W        W41404  13.063  14.618   3.212 -0.0228 -0.2220  0.0934
24558W        W41405   0.081  16.236  14.637  0.4090  0.1489  0.1199
24559W        W41406   7.258   6.130  14.417  0.2136 -0.1397 -0.1554
24560W        W41407   1.317  15.376  14.257 -0.0191 -0.0421 -0.1523
24561W        W41408  14.275  15.605   1.285 -0.0226 -0.0281  0.1568
24562W        W41409   3.624   7.256   4.541  0.0127  0.1143 -0.1300
24563W        W41410   6.502  15.240   3.713  0.2075 -0.1155 -0.1558
24564W        W41411   0.796  17.683   0.623 -0.0344  0.3017 -0.0918
24565W        W41412  13.690  11.041  11.420 -0.0830  0.2308  0.1085
24566W        W41413  14.364   7.423   5.253  0.4463 -0.0102 -0.2633
24567W        W41414   9.650   0.215  13.552  0.1414  0.3382 -0.0886
24568W        W41415  10.949   1.244  14.608  0.1428 -0.0998 -0.0182
24569W        W41416   9.499  17.262   0.232  0.0058 -0.1351  0.0952
24570W        W41417   9.664  17.002  15.506 -0.0197 -0.0861 -0.1259
24571W        W41418   2.505  16.878  15.942 -0.0363 -0.2582 -0.0299
24572W        W41419   9.980   4.625  13.723  0.0894  0.1602  0.3860
24573W        W41420   5.581  11.407  13.653 -0.0848  0.2654  0.3489
24574W        W41421  15.038  13.163  11.993 -0.1145  0.2939  0.1466
24575W        W41422   5.982  11.555   1.947 -0.1253 -0.2168  0.0597
24576W        W41423  14.869  12.961   3.303  0.2315  0.1538  0.0244
24577W        W41424   6.836  12.352   4.097  0.1589  0.2881 -0.0565
24578W        W41425  16.838  12.188   3.507 -0.1416  0.1768  0.1481
24579W        W41426  14.228  14.576  14.236 -0.1813 -0.0369 -0.1444
24580W        W41427  10.131   9.016   0.983 -0.0879 -0.1302 -0.0050
24581W        W41428  10.532   3.921  12.390 -0.0437  0.0684  0.1032
24582W        W41429   6.717   0.658   5.064  0.2337 -0.1323  0.1815
24583W        W41430  12.474  13.069   4.227 -0.2162  0.0980 -0.0422
24584W        W41431  15.664  13.319  15.532 -0.3547  0.0962  0.0822
24585W        W41432  10.978   8.505   1.736  0.0034 -0.0314  0.1848
24586W        W41433   3.159   3.038   3.734 -0.2876  0.2246  0.0754
24587W        W41434   3.725   3.210   2.562 -0.0429 -0.0766  0.2582
24588W        W41435   1.242  13.495  11.440  0.2707  0.1113 -0.2939
24589W        W41436   6.623  10.688  12.378  0.0056 -0.1608 -0.1169
24590W        W41437   5.424   1.871  13.421  0.1586  0.2446 -0.2186
24591W        W41438   3.316  13.368  11.567 -0.0343 -0.1783  0.0363
24592W        W41439   9.363   8.398   4.049  0.0974  0.1445  0.1653
24593W        W41440  13.179  11.893  12.804  0.0685 -0.0155 -0.2795
24594W        W41441   1.318  18.168  14.688  0.2463  0.0544 -0.0290
24595W        W41442   6.393  15.527  14.691  0.3418  0.0966  0.0426
24596W        W41443  17.274  13.225   1.957 -0.3316  0.1734  0.0641
24597W        W41444  11.897  14.822  11.732  0.0930  0.3760 -0.1246
24598W        W41445  15.690   3.032   1.913 -0.1510 -0.2241  0.0970
24599W        W41446   1.221  16.409  12.113 -0.0259 -0.0594  0.1834
24600W        W41447  11.410   9.937  14.075 -0.2350 -0.1634 -0.0828
24601W        W41448   3.128  11.266  14.937 -0.1025  0.2402  0.0152
24602W        W41449   8.850  10.298   0.174  0.1426 -0.1997 -0.0176
24603W        W41450  12.156   3.706   2.294  0.5859  0.1086 -0.0210
24604W        W41451  16.429  11.744   3.017  0.1975 -0.0142  0.1129
24605W        W41452  15.354   0.760   3.703  0.0116  0.0521 -0.0979
24606W        W41453   1.397   2.252   1.519  0.0634 -0.1173  0.0570
24607W        W41454   3.152  16.350  13.162  0.1894  0.0131  0.0682
24608W        W41455  16.983   8.109   2.019  0.3170  0.2615  0.3808
24609W        W41456  14.696  17.659  15.000  0.1711 -0.0733 -0.2504
24610W        W41457   5.358  13.491   1.126  0.0251  0.3078 -0.3014
24611W        W41458   2.242   3.737  13.268 -0.2730 -0.4026 -0.3607
24612W        W41459   5.303   9.808   0.111  0.3418 -0.1658  0.0513
24613W        W41460   1.666  13.390   3.198 -0.3057  0.0261  0.1372
24614W        W41461   0.127  13.669  10.797  0.0905 -0.1237  0.1721
24615W        W41462   1.607   3.351  12.387 -0.0724 -0.0682  0.2155
24616W        W41463  10.089   1.031  13.317 -0.1003 -0.3862  0.1273
24617W        W41464   2.722   2.082   4.522  0.0784  0.0982 -0.1975
24618W        W41465   5.442   5.902   4.117  0.0932 -0.4415 -0.0289
24619W        W41466   4.716  11.635  11.949 -0.5289  0.0942 -0.1229
24620W        W41467  11.636   5.924  11.765 -0.2105 -0.1316  0.0790
24621W        W41468  12.439   4.508   2.478  0.0327 -0.2121 -0.2151
24622W        W41469   5.103   4.383   3.275  0.0236 -0.0948  0.2007
24623W        W41470  16.599   8.123  10.937 -0.1032  0.4086 -0.1555
24624W        W41471   5.448   9.904   1.094 -0.0886  0.0068  0.0558
24625W        W41472  12.610  17.941  13.697 -0.0825 -0.4059 -0.0735
24626W        W41473   2.468  13.147  16.129  0.1553 -0.0309 -0.3407
24627W        W41474  14.806   0.601   4.467  0.0220  0.1304 -0.0880
24628W        W41475   5.871   0.441   3.547 -0.0220  0.0020 -0.0577
24629W        W41476   1.546  13.379  11.920 -0.0135  0.2444  0.2045
24630W        W41477   5.721   6.187  11.292  0.0000  0.0693 -0.4143
24631W        W41478   5.205   1.833  13.988  0.0499 -0.2718  0.3754
24632W        W41479  18.239  13.852   1.342 -0.0501 -0.1439 -0.1130
24633W        W41480  14.605   3.183  15.046  0.0087 -0.2938  0.1561
24634W        W41481   3.009  15.153   0.258 -0.0070 -0.0942  0.0767
24635W        W41482  11.440  17.978  13.337 -0.1209 -0.0509 -0.0373
24636W        W41483   0.721   6.939   0.467  0.2933 -0.3864  0.3626
24637W        W41484  16.809  10.191  12.161  0.0281  0.1017  0.2093
24638W        W41485  16.562  14.037   4.338 -0.2619 -0.1052  0.0718
24639W        W41486  11.193   5.680  11.678  0.0102 -0.0048 -0.3197
24640W        W41487  12.920  16.831  13.625 -0.0982 -0.5165 -0.2775
24641W        W41488   3.533   0.156  15.757  0.0171 -0.0270  0.1111
24642W        W41489   7.579   6.770   1.596 -0.0491 -0.1099 -0.0277
24643W        W41490  10.374  10.274  12.497 -0.1766 -0.0856 -0.0643
24644W        W41491  11.420   6.120   3.893  0.0808  0.4308 -0.2516
24645W        W41492   2.627   8.378   2.143 -0.1440 -0.1473  0.0701
24646W        W41493  17.481   8.489  15.136  0.6902  0.3938 -0.2326
24647W        W41494   4.118   9.145  14.350 -0.2687  0.2257  0.3565
24648W        W41495  12.296  18.298   3.172 -0.2351  0.1755 -0.0246
24649W        W41496   3.647   1.003  13.501  0.0811 -0.0602 -0.0495
24650W        W41497   2.066   7.051   3.314  0.2531  0.3725 -0.0399
24651W        W41498  13.411   3.276  12.753  0.3437 -0.0333 -0.1500
24652W        W41499  12.913   5.251  15.848  0.2248 -0.2931 -0.1314
24653W        W41500  14.124  17.140   1.670 -0.0432 -0.0711 -0.0354
24654W        W41501   6.924  18.048  12.016  0.0669 -0.1618 -0.0895
24655W        W41502   0.135  14.555   2.250  0.0248 -0.1951 -0.1115
24656W        W41503   8.408   1.742   4.769 -0.2718  0.0538  0.3701
24657W        W41504  17.247   4.145  15.737 -0.0886 -0.1545  0.0350
24658W        W41505   5.902   2.572   2.496 -0.3548 -0.0648 -0.1344
24659W        W41506   5.340   3.459  12.886 -0.0647 -0.1549 -0.2320
24660W        W41507   5.719   2.714   1.414  0.1579 -0.1295 -0.0980
24661W        W41508   2.744  15.568  15.249 -0.0866  0.0771  0.1573
24662W        W41509   1.550  10.290  13.532  0.1591  0.0760 -0.1724
24663W        W41510  13.128   6.436   2.107  0.2120  0.0261  0.3179
24664W        W41511   5.845  16.390   0.140 -0.0258  0.4161  0.2829
24665W        W41512  10.835  11.124  13.355  0.0662  0.0304  0.3020
24666W        W41513   2.495   6.819  14.427 -0.2774 -0.1182 -0.1805
24667W        W41514   3.376   5.439   1.713  0.1115  0.0784  0.2454
24668W        W41515  17.019   6.709  13.234  0.1221  0.2324  0.3960
24669W        W41516   7.363   3.744  12.393  0.0454 -0.2256 -0.2673
24670W        W41517  10.736  16.701   3.101 -0.0696 -0.3626  0.3696
24671W        W41518   6.191   9.106   4.826 -0.0108  0.1065  0.1508
24672W        W41519   4.466   5.945   4.878  0.0877  0.0901  0.0747
24673W        W41520  10.596   0.327   5.171 -0.0408 -0.2154 -0.1829
24674W        W41521   1.290   0.672   0.416 -0.0801  0.0803  0.0842
24675W        W41522  10.656  13.106  13.742 -0.0586  0.2413 -0.3725
24676W        W41523  11.951   5.565  11.825  0.1825  0.1736 -0.0704
24677W        W41524  10.041   4.755   5.067  0.0917 -0.1166  0.2611
24678W        W41525   2.601   7.378  11.950 -0.3091  0.0956 -0.0618
24679W        W41526  16.525   8.181   4.946  0.0544  0.2264 -0.1610
24680W        W41527  14.123  14.244   5.266  0.2029  0.2211 -0.0095
24681W        W41528  13.577  14.986  14.217  0.2567  0.1994  0.2389
24682W        W41529   1.607  11.782   1.645  0.2978 -0.0444 -0.0695
24683W        W41530  14.688  13.374  14.035  0.0945  0.0844  0.2403
24684W        W41531  16.924  12.207   3.025  0.0396  0.1901  0.1438
24685W        W41532   0.928  17.203   4.401  0.0471  0.0873 -0.2040
24686W        W41533   5.071  14.084   0.172 -0.0748  0.1608  0.2633
24687W        W41534   2.440  10.836   1.292  0.0431 -0.2521 -0.0511
24688W        W41535  16.529   3.449  15.777 -0.0644 -0.3846 -0.0959
24689W        W41536   5.781   3.041   0.555  0.1242 -0.0703  0.0133
24690W        W41537   8.181  14.861  15.766  0.0045 -0.0547  0.0064
24691W        W41538  13.258  15.125   2.598 -0.0158  0.2231  0.1220
24692W        W41539   1.934  13.969  12.564  0.0434  0.1538 -0.2232
24693W        W41540   7.339  12.211   4.756  0.0131 -0.2440 -0.1579
24694W        W41541   9.251  15.181  12.814  0.0198  0.1340  0.2607
24695W        W41542  17.810   8.329  14.804  0.1456 -0.1517  0.0760
24696W        W41543   6.243  14.662  11.557 -0.1215 -0.0087 -0.1195
24697W        W41544   4.197   5.804   4.010 -0.0301 -0.2162 -0.3370
24698W        W41545  16.733  12.341   4.456  0.1671  0.0213 -0.1262
24699W        W41546   6.192   9.334   2.236 -0.3087  0.0931  0.1600
24700W        W41547   8.220   4.803  11.754 -0.1790  0.3282  0.0998
24701W        W41548   9.452   3.636  15.662  0.1141 -0.0582 -0.4005
24702W        W41549  13.771  12.445   2.874  0.1444 -0.0680  0.3298
24703W        W41550   0.627   0.957   0.234  0.0188 -0.2533 -0.1724
24704W        W41551   0.239  15.396  12.328  0.1531 -0.0598 -0.1681
24705W        W41552  15.882   2.235  11.992 -0.3059  0.2094  0.1789
24706W        W41553  18.060  16.895   4.151  0.0797 -0.0704  0.0784
24707W        W41554   3.741  12.256  15.892  0.0043  0.0475 -0.4162
24708W        W41555   5.692  15.982   4.579 -0.0784 -0.3201  0.2087
24709W        W41556  17.925   2.438   0.813 -0.0244 -0.1518 -0.2194
24710W        W41557   2.417   8.580  11.217 -0.1287  0.0702  0.1243
24711W        W41558   6.547   4.631   1.984 -0.3634 -0.0992 -0.2017
24712W        W41559   5.400   3.543  10.999 -0.0853  0.2996 -0.0362
24713W        W41560  15.965   0.252   1.650 -0.0078  0.2035  0.0391
24714W        W41561   7.959   0.939  14.266 -0.1736  0.0396  0.1581
24715W        W41562   7.113  15.018   1.366 -0.1298 -0.1341  0.2585
24716W        W41563   1.942   0.675  13.033 -0.0569 -0.0058  0.0879
24717W        W41564  17.006  14.244  13.802  0.1562  0.1149  0.0603
24718W        W41565   8.875   9.830   1.264  0.0938  0.0894 -0.2512
24719W        W41566  15.983  18.191  14.541 -0.0041  0.4183  0.2359
24720W        W41567   3.385  13.920   2.472 -0.0936  0.1506 -0.0703
24721W        W41568   8.272   1.471   5.148 -0.2723  0.0473  0.1512
24722W        W41569  17.250   6.737   2.004 -0.1213  0.2234  0.2985
24723W        W41570   3.988   9.695   6.241 -0.1584 -0.0161 -0.0933
24724W        W41571   1.366  15.527  10.449 -0.2850  0.1341  0.1175
24725W        W41572   9.152   6.802  11.180 -0.1327 -0.2213  0.0061
24726W        W41573   8.760  14.831  12.185  0.2461 -0.0423 -0.0826
24727W        W41574  14.350  16.658   1.502 -0.0083  0.0741  0.1638
24728W        W41575  14.918  15.166   3.963 -0.2842 -0.0739  0.4179
24729W        W41576  14.685  17.054   4.015  0.0317  0.1224  0.1486
24730W        W41577  14.710   0.191   3.215  0.1169  0.1380  0.0041
24731W        W41578   3.962  16.184   1.869  0.3045  0.0581 -0.2341
24732W        W41579  16.337   5.074   4.340  0.0960  0.0965 -0.0539
24733W        W41580   6.105  14.210   2.725  0.2127  0.2075 -0.2095
24734W        W41581  11.059   9.002   0.919  0.1435  0.3249 -0.0142
24735W        W41582   4.328   4.532   3.613  0.0231  0.0061 -0.0648
24736W        W41583  16.378  18.290   3.094  0.1214  0.1220  0.0881
24737W        W41584  15.658   0.416  13.974 -0.0183 -0.0489 -0.2713
24738W        W41585   8.051   7.950   1.173 -0.3517  0.0618 -0.0645
24739W        W41586   4.825  12.759   0.502 -0.0291  0.2183 -0.0307
24740W        W41587  14.397   7.382   1.990  0.1797  0.5654  0.0942
24741W        W41588  12.743  15.176   4.172 -0.0891 -0.0308  0.1432
24742W        W41589   0.353  12.684  14.046 -0.3015  0.2489  0.0550
24743W        W41590  16.894   3.858   0.358  0.0119  0.0292  0.0074
24744W        W41591  16.539  11.097   0.112  0.1369  0.1301 -0.3347
24745W        W41592  11.835   5.683   4.622  0.0268  0.3871 -0.3406
24746W        W41593   9.244   1.140  14.879  0.2359  0.0021  0.0392
24747W        W41594  12.008  16.703  14.649  0.0046 -0.0191  0.0040
24748W        W41595  12.218  17.839  12.469  0.0179 -0.1592 -0.0795
24749W        W41596   0.958   6.592  11.774 -0.0445  0.1838  0.0528
24750W        W41597  15.688   7.201   3.137  0.0416  0.3533 -0.1129
24751W        W41598   2.544   6.337   4.438  0.0056  0.1867  0.1518
24752W        W41599  17.905  17.907   4.477 -0.1584  0.3018 -0.1829
24753W        W41600  14.656   4.673   5.064 -0.0737  0.0102 -0.2088
24754W        W41601  16.482   6.971  10.816 -0.0949  0.0680 -0.0365
24755W        W41602  10.858   0.154   2.221 -0.2320  0.1590  0.0624
24756W        W41603  10.424   2.388   1.983 -0.0836  0.1298 -0.1623
24757W        W41604  16.203   8.617   4.146 -0.0037  0.0315  0.1620
24758W        W41605   8.742  16.214  14.573  0.1121 -0.0257  0.1240
24759W        W41606  15.308  15.567  13.194  0.0757  0.0136  0.1290
24760W        W41607   3.673   5.792   2.190  0.3361 -0.0317 -0.1609
24761W        W41608  15.564  11.221  14.357 -0.1995  0.1715  0.1253
24762W        W41609   4.730   6.838  14.330  0.0020  0.1887 -0.0098
24763W        W41610  12.919  15.172  13.034  0.2799  0.0803  0.1263
24764W        W41611   6.888   5.550   1.083  0.0234  0.0451 -0.0167
24765W        W41612   1.503   5.526  12.225 -0.2568  0.1952 -0.0573
24766W        W41613  15.051  17.971   2.593  0.0989  0.5069  0.0796
24767W        W41614  16.088   4.390   5.088 -0.0184  0.1628 -0.2575
24768W        W41615   7.953   0.945  14.804 -0.0300  0.1008 -0.2785
24769W        W41616  12.190   6.795   2.580 -0.2376  0.2392  0.1874
24770W        W41617  14.681  13.932   2.953 -0.0410  0.1978 -0.4018
24771W        W41618   5.790  17.981  11.074 -0.0493  0.0383 -0.0085
24772W        W41619   8.221   6.075  13.296  0.2746 -0.0151  0.2619
24773W        W41620  16.639   3.480  11.435 -0.3004 -0.1659 -0.1444
24774W        W41621   5.941   8.160   2.777  0.0799  0.1203 -0.0436
24775W        W41622  15.088   6.477   4.724  0.3817  0.1073  0.0783
24776W        W41623   2.753   1.634  15.127  0.1369  0.2788 -0.2855
24777W        W41624  10.470   2.954   3.687  0.0460 -0.0456  0.0140
24778W        W41625  11.845   4.935  12.008  0.0600  0.3522 -0.3949
24779W        W41626  13.560   8.712  12.767  0.0720  0.0714  0.1040
24780W        W41627  16.389  10.258  12.950  0.1007  0.3731  0.0072
24781W        W41628  10.053  13.040   3.573  0.0410 -0.2165  0.1801
24782W        W41629  18.317  11.151   2.496  0.3459  0.1991  0.0912
24783W        W41630  16.883   9.601   4.996  0.2457  0.1393 -0.1246
24784W        W41631  12.490  16.384   2.483  0.0010 -0.0969  0.0323
24785W        W41632   1.213  12.451  15.832 -0.3277 -0.2502  0.0957
24786W        W41633   1.377  17.916  13.581  0.2634 -0.2589 -0.0440
24787W        W41634   4.556   1.304  15.239 -0.1630 -0.0668 -0.0709
24788W        W41635  11.952   9.565  15.833  0.1295 -0.0898  0.1844
24789W        W41636   5.945  10.254   3.752  0.2426  0.2001 -0.0743
24790W        W41637   2.447   2.071  12.543 -0.1521 -0.1975 -0.0944
24791W        W41638   8.250  13.692   1.180 -0.4467 -0.0695 -0.1788
24792W        W41639   7.246   4.772   0.439  0.0751 -0.2398 -0.1064
24793W        W41640  14.063   6.899  14.031 -0.0824 -0.1828 -0.0644
24794W        W41641  10.064   1.383   2.706  0.3954  0.1814 -0.2637
24795W        W41642   6.894   5.808   4.620  0.1723  0.0593 -0.0286
24796W        W41643  10.360  16.332  13.005 -0.0810  0.1310 -0.0755
24797W        W41644   5.506   8.684  11.458 -0.0757  0.3565  0.1805
24798W        W41645  14.032  11.334  14.374 -0.1299 -0.2148 -0.3480
24799W        W41646   7.527  16.383  11.513 -0.1108 -0.2381 -0.1811
24800W        W41647   1.089  10.190  13.201 -0.0124  0.2573  0.3101
24801W        W41648   9.487  17.194  11.862 -0.3407  0.0254  0.1469
24802W        W41649   3.700   1.426   2.620 -0.0138  0.1332  0.1564
24803W        W41650   6.662  15.664   0.937 -0.1012 -0.1175 -0.0750
24804W        W41651  16.414   4.021  11.322  0.0604 -0.2182 -0.1830
24805W        W41652  10.035   8.885  16.115 -0.2861 -0.1074 -0.2469
24806W        W41653  15.183  13.987   3.023  0.1086 -0.0949  0.0115
24807W        W41654  12.350  11.677  11.627  0.2610 -0.1687 -0.4651
24808W        W41655  16.285   3.522   4.903  0.2397  0.0475 -0.0762
24809W        W41656  15.386  10.657   4.984 -0.0842  0.0194  0.1678
24810W        W41657   7.813  18.238   3.188 -0.2399 -0.1636  0.0833
24811W        W41658   9.666  16.507  12.788  0.0277 -0.1460 -0.0236
24812W        W41659  12.208   6.990  10.885  0.3214  0.4143 -0.0869
24813W        W41660   7.034  11.635   5.475  0.1918  0.2565 -0.0396
24814W        W41661   8.800   5.416   0.153  0.2333  0.1089  0.0080
24815W        W41662  18.156   0.051   1.290 -0.1246  0.2764 -0.0637
24816W        W41663  12.185   5.091  10.926  0.0606  0.3380  0.1069
24817W        W41664   1.817   0.997  11.893  0.2294  0.1629 -0.0880
24818W        W41665  17.018  10.206   2.606 -0.3055 -0.2691 -0.2446
24819W        W41666  14.480   3.681  15.681  0.2237 -0.0338  0.2221
24820W        W41667   6.668   5.363   4.402 -0.0495 -0.0569 -0.1695
24821W        W41668  14.513  10.310  15.802  0.1929 -0.1485 -0.0424
24822W        W41669  15.467  15.517  15.008 -0.1289 -0.0338  0.1927
24823W        W41670  16.490   1.388  11.753 -0.3047  0.2916 -0.0930
24824W        W41671   3.311  17.924   4.434 -0.0577 -0.0454  0.2176
24825W        W41672  13.718   4.566  14.226  0.2058  0.0238 -0.1044
24826W        W41673  10.226  16.612  15.931  0.2584 -0.1402  0.1573
24827W        W41674  11.459  18.312   5.587 -0.0242 -0.1549 -0.2616
24828W        W41675   4.256   7.342  13.072  0.0833 -0.0900 -0.0206
24829W        W41676  16.305   7.536  15.335 -0.1656 -0.0667  0.0871
24830W        W41677   1.698  12.904   0.784 -0.2070  0.1659 -0.2151
24831W        W41678   1.360  13.098  12.358  0.2807  0.1793 -0.0385
24832W        W41679  13.323   9.149  12.298 -0.0681  0.3167 -0.1960
24833W        W41680   6.752   4.571   0.225 -0.0769  0.4275  0.0375
24834W        W41681   5.158   9.596  13.256 -0.1786 -0.2440 -0.2106
24835W        W41682  18.116   4.212  14.606  0.0534 -0.1516  0.1382
24836W        W41683   1.656  15.425  16.099 -0.2519 -0.0928 -0.1158
24837W        W41684   7.548   0.167  14.929  0.0103 -0.2325  0.2246
24838W        W41685   0.354   9.640   3.292  0.2320  0.0132 -0.2268
24839W        W41686  13.451   7.758   0.456 -0.0295 -0.1290 -0.3660
24840W        W41687   6.009   2.478   0.692  0.1233 -0.0450 -0.0534
24841W        W41688  10.167  13.460   4.339 -0.2640 -0.0495 -0.0707
24842W        W41689  10.675   8.417  13.889 -0.0901  0.0283  0.1148
24843W        W41690   8.183  11.603   6.534 -0.1071 -0.1210 -0.1021
24844W        W41691   3.479   3.622   4.949  0.3706  0.4123 -0.1186
24845W        W41692  15.446  13.615   2.295 -0.0101  0.0534 -0.1584
24846W        W41693   6.591   1.349   0.050 -0.1675 -0.1967  0.3142
24847W        W41694   4.650   2.022   0.551  0.0853  0.1018 -0.1317
24848W        W41695  16.362  11.845  13.585 -0.2147  0.0264 -0.1197
24849W        W41696   6.336   6.556  14.868 -0.2864  0.0576 -0.0483
24850W        W41697   3.232   6.055  14.654  0.1879  0.2998 -0.2971
24851W        W41698   9.244   2.748   3.939 -0.0730  0.0595 -0.3683
24852W        W41699   9.200  18.192  11.642  0.4038 -0.2491  0.0903
24853W        W41700   6.657   4.005   4.587 -0.2947  0.4102 -0.0285
24854W        W41701  11.636   0.246   4.823  0.2472  0.1154 -0.0847
24855W        W41702  12.703   9.741  12.643 -0.1137 -0.2200 -0.2841
24856W        W41703  13.036   0.640  15.765 -0.2253 -0.0243 -0.0695
24857W        W41704   4.451   4.090   0.003  0.0566 -0.1532  0.0517
24858W        W41705   8.494  10.700  11.605 -0.0179 -0.0279 -0.1768
24859W        W41706   9.186  16.090   1.833  0.0475  0.0525  0.1000
24860W        W41707  17.893   8.810  15.048 -0.4243  0.2687 -0.1476
24861W        W41708   4.548  15.257   0.756 -0.1070  0.1071 -0.2641
24862W        W41709   4.914  14.298   4.896  0.0673 -0.2459 -0.0713
24863W        W41710   8.883  17.973  13.367 -0.0243 -0.0894 -0.2120
24864W        W41711  17.984   7.729  11.833 -0.1349  0.0517 -0.4240
24865W        W41712   3.329  10.926  13.549 -0.1425 -0.0227 -0.0415
24866W        W41713   0.653   2.016  14.928  0.3694 -0.0694 -0.1421
24867W        W41714  16.569   0.242   2.403  0.3609 -0.4019  0.0902
24868W        W41715   9.172   4.413   2.596 -0.0913  0.1224  0.1277
24869W        W41716  14.945   3.646  13.760  0.0449  0.1470  0.0284
24870W        W41717   3.252   9.823  12.354 -0.1330 -0.1240 -0.0184
24871W        W41718   8.768  16.645   1.678  0.0203 -0.1803 -0.2577
24872W        W41719   6.688   7.768   3.375 -0.2400 -0.0284  0.2100
24873W        W41720  15.469  18.074   5.763  0.0102 -0.0536 -0.2052
24874W        W41721   2.509   1.860   4.099  0.0526  0.1058 -0.4182
24875W        W41722  17.807   2.598  15.374  0.1029 -0.2232 -0.4217
24876W        W41723   7.700   2.592  13.196  0.0054 -0.1203 -0.2295
24877W        W41724  12.950  13.763   6.300  0.2306  0.0160 -0.0870
24878W        W41725   0.102   9.251   0.421 -0.1770 -0.3497 -0.1153
24879W        W41726  12.451  10.718   5.140 -0.0957  0.2212 -0.1596
24880W        W41727  16.881  10.495   1.857 -0.0242  0.1575 -0.0056
24881W        W41728   7.411   9.584   0.951 -0.0154  0.0074  0.3419
24882W        W41729   2.461   4.404  13.121  0.0162 -0.1420 -0.0752
24883W        W41730   7.811   3.343  15.856  0.3427  0.0350 -0.1152
24884W        W41731  15.082   5.460  11.604 -0.0906 -0.0270 -0.1830
24885W        W41732   5.034  10.320   3.312 -0.1098 -0.2480 -0.0283
24886W        W41733   2.601  14.076   5.366 -0.1764  0.0920  0.0058
24887W        W41734  11.522  10.699  14.142 -0.0028 -0.3177  0.1424
24888W        W41735   9.738  10.509   5.043 -0.1045  0.1498 -0.1110
24889W        W41736  16.158   6.195  14.977  0.0466 -0.0531  0.2403
24890W        W41737   3.971  16.303   1.294  0.2495  0.0517  0.2461
24891W        W41738   0.067   2.569  16.031 -0.1283 -0.1448  0.2901
24892W        W41739  11.881  16.893  11.746 -0.1043  0.0711 -0.1386
24893W        W41740   7.686   8.510  13.999  0.1449  0.0296 -0.0613
24894W        W41741   9.689   0.862   4.376 -0.1084  0.2252  0.2234
24895W        W41742  12.731  17.337   4.522 -0.1189 -0.0282  0.1139
24896W        W41743   1.199   7.537  16.022  0.1241 -0.2496 -0.0818
24897W        W41744  17.011   1.889  12.954  0.1939  0.2496 -0.0128
24898W        W41745  12.541  18.130   4.495  0.0742 -0.1640  0.4019
24899W        W41746  12.250   9.869   5.666 -0.0946  0.0195  0.0534
24900W        W41747   2.821   7.790  12.948 -0.1910  0.1433 -0.1129
24901W        W41748  12.338   8.945   1.440 -0.0084  0.0677 -0.4129
24902W        W41749  16.404  12.056   2.607 -0.0526 -0.0435  0.1523
24903W        W41750   7.346   0.027   0.605  0.3996  0.2679  0.2055
24904W        W41751   8.946   0.129  15.286  0.0758 -0.1492  0.2948
24905W        W41752  13.284   7.835   2.698  0.3420 -0.0757 -0.0888
24906W        W41753  15.114   5.986  10.738 -0.1480 -0.3098  0.1223
24907W        W41754  16.265   7.580   3.721 -0.2475 -0.1641 -0.2380
24908W        W41755  11.819   6.210   1.386  0.1705  0.1732  0.0197
24909W        W41756  14.202  14.166   0.837 -0.0514  0.0155  0.0062
24910W        W41757   7.078   6.216  16.127 -0.0420 -0.3618 -0.2598
24911W        W41758  17.180   3.012   1.927 -0.1503  0.1772 -0.2339
24912W        W41759   4.869   7.581  11.881  0.0784 -0.1212  0.1174
24913W        W41760  18.261   6.507  12.334 -0.1383  0.2041 -0.0170
24914W        W41761   8.454  16.702   3.060 -0.1407  0.0091  0.0902
24915W        W41762   9.360   1.816   5.315  0.2797 -0.0381  0.2025
24916W        W41763  17.006  11.177   2.588 -0.1739 -0.5234 -0.1112
24917W        W41764  14.587  16.615   5.262  0.0877 -0.1968  0.0262
24918W        W41765   3.294   4.643   4.832 -0.0283 -0.0621  0.0213
24919W        W41766   9.895   8.333  15.453  0.0396 -0.1452 -0.0857
24920W        W41767   6.258   3.717  15.194  0.0605  0.2809 -0.0649
24921W        W41768  17.647   4.458   0.231 -0.1265 -0.0702 -0.2206
24922W        W41769   8.125   6.110   5.393  0.0180  0.0456 -0.0579
24923W        W41770  15.284   4.185  12.267  0.1282  0.1793 -0.0410
24924W        W41771   2.793   0.826  11.600 -0.1049 -0.2337 -0.3358
24925W        W41772   7.790   4.099   4.743  0.2945  0.0464 -0.2009
24926W        W41773   3.777   8.882   2.027  0.1555  0.0838 -0.1730
24927W        W41774  16.937  17.954  14.601 -0.0113 -0.1025  0.2249
24928W        W41775   9.841   8.149   4.149 -0.1608  0.2964  0.1313
24929W        W41776   0.537   0.238  12.912 -0.1218 -0.0609 -0.1084
24930W        W41777  12.607  17.863   3.173  0.4129  0.0197 -0.1239
24931W        W41778  11.244   3.332  13.269  0.1446  0.1291  0.1982
24932W        W41779  13.173  11.805  11.705 -0.1301  0.0952 -0.0421
24933W        W41780   0.210   4.245  13.178  0.0352 -0.0435  0.1606
24934W        W41781  11.249  10.430  13.848  0.1496 -0.0478 -0.0253
24935W        W41782  10.571  17.542  14.073 -0.4809 -0.0973  0.2783
24936W        W41783   0.191  12.338  14.396 -0.2279 -0.0155  0.0826
24937W        W41784   2.886   5.769   3.952  0.2272  0.2714 -0.1129
24938W        W41785   0.109   6.558  12.932 -0.5801 -0.0416 -0.2479
24939W        W41786  11.205   1.854  13.281  0.1317 -0.0456  0.0272
24940W        W41787   6.100   7.425  14.497  0.0266  0.1497  0.1294
24941W        W41788   6.032   4.005  14.837  0.0205 -0.1533  0.2438
24942W        W41789  15.760   2.697  11.840  0.1397 -0.4728  0.0408
24943W        W41790   1.771   6.114  14.684  0.2209 -0.1519  0.0199
24944W        W41791  14.704   9.126  13.963 -0.1254  0.0556  0.1731
24945W        W41792   8.706  18.257  14.849  0.0631 -0.0414  0.0357
24946W        W41793  14.147   6.580   0.345  0.1742 -0.1274 -0.0483
24947W        W41794  14.788  15.052   2.431  0.0382  0.1871  0.2893
24948W        W41795  11.334  17.250   1.703  0.1458  0.1962  0.1890
24949W        W41796  11.366  11.728   3.051  0.0663  0.1184  0.0742
24950W        W41797   5.544  16.381   2.780 -0.5787 -0.1383  0.1812
24951W        W41798   7.810   0.095  15.439  0.1598 -0.1123 -0.0038
24952W        W41799  11.688   4.730   0.564 -0.0579 -0.1882  0.1658
24953W        W41800  15.099  15.546   4.750 -0.4626  0.1104 -0.1351
24954W        W41801   5.586  10.044   2.042  0.0569 -0.3666  0.1730
24955W        W41802   4.233   6.442   4.647  0.4081  0.1916 -0.0846
24956W        W41803  18.050   4.833  11.204  0.2200  0.1533  0.0094
24957W        W41804   5.679  15.938  15.885  0.3587 -0.0051 -0.0498
24958W        W41805   7.000   3.852  11.648  0.2659  0.1818 -0.0284
24959W        W41806   3.206  14.991  15.807 -0.1760 -0.3330 -0.0815
24960W        W41807  12.353   8.953  15.557  0.4302 -0.2217 -0.1901
24961W        W41808   2.432  15.435  13.462  0.0083 -0.2291  0.0853
24962W        W41809  12.857   3.307  13.532  0.2088 -0.1086  0.0953
24963W        W41810   6.398  16.099   3.993  0.1230  0.0928  0.3722
24964W        W41811   3.807   4.399   3.078 -0.2830 -0.0155  0.0315
24965W        W41812   9.701  10.270  13.967  0.0601 -0.2229 -0.0771
24966W        W41813  12.691  11.996   3.527  0.1413  0.1778  0.1818
24967W        W41814  11.143  11.783  15.566  0.0068 -0.0508  0.4341
24968W        W41815  18.120   7.282   1.076 -0.6573  0.1261 -0.2232
24969W        W41816  14.895   8.368  16.072  0.0869 -0.2251 -0.2938
24970W        W41817  10.473  10.002  13.956  0.1042  0.2346  0.0522
24971W        W41818  11.577  11.353  13.572 -0.1313 -0.2665 -0.1346
24972W        W41819   4.432  10.404   1.360  0.0405 -0.0175 -0.1682
24973W        W41820  13.535   8.188  10.832  0.1117 -0.3103 -0.2942
24974W        W41821   9.401   7.065  15.593  0.2452 -0.0538 -0.0479
24975W        W41822  17.581   4.832  15.181  0.1408 -0.0131 -0.1853
24976W        W41823  13.262  11.723  13.590  0.0115 -0.1779 -0.2722
24977W        W41824   7.650   1.057  11.269  0.0099 -0.0330 -0.0861
24978W        W41825  18.331   4.295  13.699 -0.1652 -0.3429 -0.1184
24979W        W41826  14.412  15.653  15.449 -0.1574  0.1211  0.0715
24980W        W41827   2.679   3.554   2.510 -0.3625 -0.0626  0.0328
24981W        W41828  12.050   5.905  13.595  0.1114 -0.2676  0.0308
24982W        W41829   8.931   8.861  16.061 -0.0679 -0.4902 -0.3221
24983W        W41830   0.442  17.534  11.332  0.1786 -0.1298  0.0285
24984W        W41831  13.877   3.586   1.747 -0.3489 -0.4200  0.1072
24985W        W41832  13.756  12.943   5.019 -0.1779  0.2519  0.1223
24986W        W41833  17.886  10.375   3.397  0.1721  0.0586 -0.0033
24987W        W41834  18.154  17.471  10.760  0.0160  0.1761 -0.1034
24988W        W41835  16.629   2.730  14.797  0.3940 -0.1559 -0.1015
24989W        W41836  13.978  15.710  12.316  0.0414 -0.0024 -0.0135
24990W        W41837  12.528  12.636   1.046 -0.1674  0.3035 -0.1770
24991W        W41838   3.712  16.154  11.182  0.0554  0.0268 -0.0564
24992W        W41839   6.794   1.997  13.614 -0.1933  0.0334 -0.1570
24993W        W41840  16.859   9.861   0.440 -0.0278  0.2825 -0.2582
24994W        W41841   3.040   3.089  12.373 -0.1311  0.1742  0.0099
24995W        W41842   2.249   6.872  15.302 -0.2125  0.0643 -0.2189
24996W        W41843   4.120  10.908  12.349 -0.3225 -0.0323 -0.0866
24997W        W41844  10.424   3.787  14.600 -0.1697 -0.0200 -0.1873
24998W        W41845  13.880   4.282  11.305 -0.3080  0.1027  0.0707
24999W        W41846   0.814  18.182   1.769 -0.0325 -0.0236  0.2283
25000W        W41847  10.045  18.306   1.624  0.0060  0.1101  0.1530
25001W        W41848  17.023   8.832   1.291  0.1402 -0.0239 -0.1391
25002W        W41849   9.553   0.188  11.829  0.1164  0.0317 -0.0646
25003W        W41850   5.343   5.616  13.583 -0.3767 -0.0461  0.1021
25004W        W41851  12.272  12.335  14.190 -0.1096 -0.2677  0.0671
25005W        W41852  13.108   9.901   4.400 -0.0672 -0.0268  0.4094
25006W        W41853  12.204   6.163   3.336  0.1940  0.1352  0.3547
25007W        W41854  12.395   8.765   3.193 -0.0258  0.1639 -0.0205
25008W        W41855   5.845   4.846   5.531 -0.2788 -0.4599 -0.0341
25009W        W41856   0.753   4.011  14.960 -0.0724 -0.1620 -0.1849
25010W        W41857  15.715   1.323   1.701  0.1992  0.0104 -0.0573
25011W        W41858  16.153   3.374  15.388 -0.0101 -0.4851  0.1400
25012W        W41859   0.822   9.562   1.166 -0.0806 -0.2108 -0.1544
25013W        W41860  10.076  12.061   1.947 -0.0696  0.1786 -0.1142
25014W        W41861   6.440  17.140   2.668  0.2638  0.0726  0.2012
25015W        W41862   0.423   3.950   5.114  0.3209  0.0057 -0.2364
25016W        W41863   4.072   3.013   0.976  0.3845  0.0826 -0.0214
25017W        W41864  13.074  11.627  15.869  0.2047 -0.1547 -0.0764
25018W        W41865   2.898  13.663  11.714  0.1318  0.1511 -0.4460
25019W        W41866  15.710  15.546  10.614 -0.1812 -0.1262 -0.0002
25020W        W41867  16.373   4.580  12.514  0.2636  0.0544 -0.2227
25021W        W41868   7.916  18.325   2.590 -0.1393 -0.0905 -0.1949
25022W        W41869   7.655   0.616  15.044 -0.0406 -0.2783  0.1764
25023W        W41870   1.763   9.988   0.479  0.2607 -0.1566 -0.2108
25024W        W41871   9.749   0.426   5.764  0.1685 -0.1132 -0.1426
25025W        W41872   5.907  17.083  12.072 -0.0195 -0.2018 -0.1742
25026W        W41873   6.882   1.755  14.519 -0.1525  0.0530 -0.1263
25027W        W41874   3.801   5.025   4.347  0.0115  0.0876 -0.1388
25028W        W41875  14.291  11.933  11.464  0.1044 -0.2771 -0.0255
25029W        W41876  14.684  10.255   0.693 -0.0604  0.1390 -0.0128
25030W        W41877  15.614   0.207   5.660  0.0382  0.0157 -0.0411
25031W        W41878  13.368  14.748  15.623  0.2036  0.0194 -0.0767
25032W        W41879  15.552  17.188   2.912  0.0694 -0.0124 -0.0161
25033W        W41880  15.184  11.021   1.537 -0.1215  0.1563 -0.0367
25034W        W41881   5.006   7.781  15.591  0.2237 -0.2338  0.0289
25035W        W41882  11.707  14.034  16.034  0.0549  0.1135 -0.3856
25036W        W41883  10.749   5.294  13.421  0.1565  0.1343 -0.0898
25037W        W41884  14.533   9.886  11.201 -0.0538 -0.0788  0.4650
25038W        W41885   8.434   5.079   0.012  0.2803 -0.0721 -0.1041
25039W        W41886   6.437   1.853   3.791  0.1972  0.0331  0.1938
25040W        W41887   8.284   1.600   1.708 -0.0630  0.2082 -0.0720
25041W        W41888  13.364  13.290  11.705 -0.0745 -0.3523 -0.1146
25042W        W41889  12.791  12.905  13.265  0.1557 -0.0322 -0.1122
25043W        W41890   7.036  15.844  16.033  0.2944  0.0319  0.4119
25044W        W41891   0.329  13.860  16.155 -0.1105 -0.0117 -0.2846
25045W        W41892   0.110   3.102   4.511 -0.2393 -0.0796 -0.0324
25046W        W41893   8.693   9.352   0.022 -0.0795  0.0316 -0.0552
25047W        W41894  14.003   6.530   1.661 -0.2071 -0.1572 -0.1795
25048W        W41895  15.848  11.973  13.911  0.2269  0.0728 -0.2928
25049W        W41896  12.478  11.604   2.578  0.0961  0.1822  0.0697
25050W        W41897  15.468  12.334  15.315 -0.1860 -0.2323  0.0286
25051W        W41898   1.103   7.359  12.785  0.2511 -0.1112 -0.4030
25052W        W41899  17.101   4.058   2.906 -0.2462  0.2281  0.3614
25053W        W41900  14.818   8.861   2.526 -0.1744 -0.2163  0.0356
25054W        W41901  12.909   1.988   1.994  0.0051 -0.2615 -0.1249
25055W        W41902  16.606  15.015  15.957 -0.1435 -0.3023 -0.0496
25056W        W41903  12.203  16.617   2.861 -0.0193  0.0170  0.2615
25057W        W41904   0.429   4.825   2.567  0.0129 -0.0953  0.3196
25058W        W41905   3.244  10.556  12.704  0.2481  0.0036  0.1367
25059W        W41906   2.397   0.740   0.431  0.2090  0.0522  0.1596
25060W        W41907   5.493   5.204   2.490  0.2547 -0.0492 -0.2290
25061W        W41908  14.223   5.119   9.376 -0.1674  0.1307 -0.0651
25062W        W41909   7.987   2.380  11.467  0.0060 -0.0623  0.0022
25063W        W41910   4.827  13.403  11.880  0.1567 -0.0457 -0.2654
25064W        W41911  11.549  16.435  11.770 -0.0519  0.0510 -0.1369
25065W        W41912  17.757  14.463  15.245  0.1057  0.0126  0.0576
25066W        W41913  15.329  16.940  12.913 -0.3345  0.1130  0.0898
25067W        W41914  12.370  14.517   1.110  0.0736  0.3117 -0.0621
25068W        W41915  10.860   2.657  12.204 -0.1397 -0.3368  0.0276
25069W        W41916   5.535  17.523  15.457 -0.0902 -0.0860 -0.1497
25070W        W41917   4.678  12.485   4.849 -0.0396 -0.0251  0.1921
25071W        W41918   1.543  15.831   2.933  0.0386  0.1500 -0.2528
25072W        W41919  15.814  13.968  13.380 -0.0816  0.0918 -0.0386
25073W        W41920  18.228   9.275   5.789 -0.1391 -0.0408  0.2709
25074W        W41921  11.846   5.134  12.997 -0.2443  0.0799 -0.0441
25075W        W41922  17.145   2.711   1.057  0.1350 -0.0363  0.0189
25076W        W41923   4.293  15.459   1.613  0.2486  0.0352 -0.1093
25077W        W41924  13.531   7.511   1.808 -0.0655 -0.0423  0.1297
25078W        W41925  13.138   1.706   0.679  0.3713 -0.1864  0.0787
25079W        W41926  11.552   9.995   2.790  0.0004  0.0919 -0.0679
25080W        W41927  13.476  16.829   0.087  0.1918 -0.0693 -0.1429
25081W        W41928  14.199  14.191   4.567  0.0016 -0.1162 -0.0295
25082W        W41929   7.665  18.041   0.817  0.2202  0.0111 -0.0475
25083W        W41930   3.311   9.344  13.842  0.1308 -0.0142 -0.2737
25084W        W41931   9.698   7.590  14.158 -0.0704 -0.0146 -0.0897
25085W        W41932  18.313   5.165  13.393  0.0837  0.1384  0.0486
25086W        W41933   0.702   9.625   0.008  0.3049  0.2751 -0.0848
25087W        W41934   8.513  11.883  15.602 -0.1950 -0.1190 -0.1172
25088W        W41935   9.845  16.593   1.487  0.0176  0.1268 -0.0194
25089W        W41936   6.107  16.180  11.037  0.1174 -0.0824 -0.0612
25090W        W41937   8.116  12.686   4.689  0.0372 -0.1054 -0.0648
25091W        W41938  13.646  17.668  11.887  0.0567  0.2141 -0.0274
25092W        W41939  11.102   4.279   2.703 -0.3085  0.3042 -0.1013
25093W        W41940  15.898   2.255   2.399 -0.0528 -0.5037 -0.2781
25094W        W41941  13.945  15.831   4.250  0.0026  0.2357 -0.1937
25095W        W41942  10.900   5.828   1.148  0.2696 -0.0358  0.1530
25096W        W41943  11.992  13.547   3.538 -0.1196  0.0040  0.1110
25097W        W41944  10.094   3.125  13.671 -0.1705  0.1267 -0.0286
25098W        W41945   5.576  18.229   2.235 -0.0403 -0.1385  0.1908
25099W        W41946  16.840   1.063   3.498  0.2124 -0.0404  0.3375
25100W        W41947  15.650  17.006   5.318  0.3296  0.0903  0.2181
25101W        W41948  13.516  11.413  11.691 -0.1234 -0.0142  0.2350
25102W        W41949   3.088   2.447   0.469  0.2910 -0.2878 -0.2093
25103W        W41950   2.912  10.842  14.066  0.1065 -0.0849 -0.1621
25104W        W41951  10.399   5.391   4.382  0.0751  0.0990  0.0971
25105W        W41952   6.171   5.809  14.010 -0.2894  0.0800  0.2408
25106W        W41953  17.096  14.478  14.779  0.1527  0.0955 -0.1851
25107W        W41954   8.691   1.255   5.011  0.1312 -0.2951  0.2137
25108W        W41955   3.222  11.751   1.655 -0.2112 -0.0623 -0.3185
25109W        W41956  17.947  10.890   4.322  0.0259 -0.5448 -0.0711
25110W        W41957   9.626   0.082  12.328 -0.0136 -0.1210  0.1465
25111W        W41958  14.736  13.807  14.328 -0.2633 -0.0015 -0.2026
25112W        W41959  11.660  11.493  13.063 -0.0888  0.2750 -0.3929
25113W        W41960  11.509   3.957   3.469 -0.0656  0.1680 -0.1627
25114W        W41961   4.473   9.752  12.444 -0.1686  0.0880 -0.0122
25115W        W41962  13.735   3.468  14.226  0.1510 -0.2878  0.1270
25116W        W41963   0.004   2.486  11.961  0.1697  0.3459  0.0018
25117W        W41964  17.867  15.652   5.597  0.2011 -0.1034  0.1688
25118W        W41965   7.159  16.868  15.300 -0.1115 -0.0802  0.0462
25119W        W41966   7.158   8.169   1.325  0.0597 -0.0438  0.0341
25120W        W41967   0.433  11.401  12.328  0.1298  0.0798  0.0889
25121W        W41968  16.488  11.284  14.912 -0.1332  0.1999 -0.0443
25122W        W41969  17.179   7.206  15.064 -0.4260  0.1071  0.1860
25123W        W41970  11.618  10.478  13.389 -0.1337 -0.3977  0.1385
25124W        W41971   7.506   3.317  11.188  0.0594 -0.1083 -0.2898
25125W        W41972   4.826  15.131   2.016 -0.0693 -0.0261 -0.1079
25126W        W41973  18.044  13.468  15.038  0.0390  0.0377  0.3253
25127W        W41974   0.105   1.614  13.563 -0.1868  0.0051 -0.2178
25128W        W41975   4.887  11.930   0.540  0.0076 -0.1904 -0.2555
25129W        W41976   1.531  13.024  11.508 -0.1278  0.2356 -0.1883
25130W        W41977   5.548   4.888   1.618 -0.3432 -0.0138 -0.1856
25131W        W41978   0.867  10.153  14.895  0.0175  0.1511 -0.0795
25132W        W41979   3.759  11.433  14.373  0.0931 -0.1002  0.4185
25133W        W41980   4.478   1.218   0.556 -0.1528  0.1896  0.0514
25134W        W41981  17.822   7.019  11.479  0.0221 -0.0306 -0.1050
25135W        W41982   7.006   9.425  14.552  0.3063  0.0019 -0.1548
25136W        W41983   3.082   4.865  16.150  0.0142 -0.1517 -0.2716
25137W        W41984   8.902  10.971   5.433  0.2354 -0.1730 -0.1128
25138W        W41985  13.031   1.192   0.607 -0.2334  0.1254 -0.0090
25139W        W41986   4.931   6.956  12.662 -0.4165  0.0438 -0.0120
25140W        W41987  16.416   0.397  13.461  0.1753  0.0865 -0.0182
25141W        W41988   9.796   1.126  10.852 -0.0008  0.1493  0.1678
25142W        W41989   9.767   4.031   3.976  0.2717  0.1560 -0.2497
25143W        W41990  10.732   4.416   0.229 -0.0235 -0.3210  0.0165
25144W        W41991   3.875  18.028   6.000  0.0149 -0.2462 -0.0858
25145W        W41992   0.256  16.286  13.570 -0.0601 -0.1228 -0.1483
25146W        W41993   1.863   7.179  15.354 -0.2652  0.1479  0.1120
25147W        W41994   9.768   2.274   0.250  0.0669  0.2627  0.0860
25148W        W41995   4.675  13.117   0.145  0.2222  0.1484 -0.1742
25149W        W41996  17.734   2.611  13.255  0.0861 -0.2056  0.1244
25150W        W41997  16.696  10.096   2.043  0.1841  0.0947  0.1380
25151W        W41998   1.964  13.272  16.140 -0.0462 -0.2126 -0.0188
25152W        W41999   0.037  12.875   4.339 -0.0335 -0.1114 -0.0966
25153W        W42000   1.096   3.673  11.439  0.2321  0.0550 -0.0523
25154W        W42001   7.098  10.426  15.024 -0.0133  0.1822 -0.0175
25155W        W42002   7.885  16.595  13.500 -0.0456  0.2619 -0.0492
25156W        W42003   8.285   4.865   1.760 -0.2116 -0.1547 -0.1741
25157W        W42004  16.896   6.110  12.413  0.1385 -0.1066 -0.0734
25158W        W42005   4.599  18.178   2.808 -0.0514  0.0063 -0.0282
25159W        W42006   2.122   1.107  10.585 -0.0661 -0.1108 -0.0004
25160W        W42007  10.468   0.155  11.424  0.0111  0.2345  0.0945
25161W        W42008  16.204   5.547   0.400  0.2965  0.0359  0.1743
25162W        W42009   4.987   4.710  13.997  0.1365 -0.4506  0.1487
25163W        W42010   3.443  14.283  12.012  0.0471  0.0986 -0.1192
25164W        W42011  15.683  14.825  12.187 -0.2660 -0.0608 -0.0377
25165W        W42012  12.271   9.469  11.418 -0.2322  0.1931  0.0691
25166W        W42013  11.860  12.597  15.988  0.1048  0.1460  0.1394
25167W        W42014   1.950  11.436  12.900 -0.1564 -0.2375  0.1252
25168W        W42015   1.640  15.957   5.896  0.2329  0.1413 -0.0101
25169W        W42016   7.333  17.249  13.678  0.0210  0.1324  0.2000
25170W        W42017  11.311  14.646   2.973 -0.0446 -0.0850  0.2260
25171W        W42018  14.593  11.462  13.501  0.1788  0.0272  0.1034
25172W        W42019  11.019  10.106   0.042 -0.1314 -0.0848 -0.0107
25173W        W42020   9.916   8.494   2.862 -0.1605  0.1541 -0.2957
25174W        W42021  14.185   8.272  13.834  0.0560 -0.1918 -0.0477
25175W        W42022  12.483  10.241   0.656 -0.0084  0.0730  0.0349
25176W        W42023   5.482   9.142  15.124  0.2685 -0.1169 -0.0201
25177W        W42024  16.276   8.332   0.886 -0.0843  0.0471 -0.2458
25178W        W42025   9.601  13.361   4.888  0.0100 -0.3230 -0.0271
25179W        W42026   0.334   4.340  15.861  0.1377 -0.0646  0.1158
25180W        W42027  10.502   0.935   1.483  0.0369 -0.1368 -0.3897
25181W        W42028   1.131   1.172  14.546  0.0414  0.4724  0.1603
25182W        W42029  16.147   4.991  14.222 -0.1130  0.1238 -0.0929
25183W        W42030  11.661  17.874  11.808 -0.0119 -0.2886  0.0379
25184W        W42031   0.358  13.597   4.054  0.2457 -0.0203  0.0880
25185W        W42032  16.174   2.491   0.938  0.0566 -0.0881  0.1394
25186W        W42033  14.907  10.496  15.561 -0.1565  0.1610  0.1197
25187W        W42034   2.917  12.944  14.371  0.2790  0.0045  0.2983
25188W        W42035   6.070   1.299  13.764  0.2056 -0.0744 -0.2440
25189W        W42036   7.281   5.640   5.729  0.1541 -0.0528 -0.0879
25190W        W42037   3.819  13.122   0.279 -0.1576  0.1038  0.2062
25191W        W42038  11.208  14.166   4.462  0.1348  0.2195 -0.0989
25192W        W42039   8.651  13.454   1.057  0.3689  0.0313  0.0193
25193W        W42040  14.453  15.538  12.176  0.0630 -0.1511  0.0313
25194W        W42041   7.941   3.477   0.971  0.2573  0.0778  0.2625
25195W        W42042   3.965  12.923   3.678 -0.0549 -0.1123  0.1042
25196W        W42043  14.216   6.479   4.876  0.1338 -0.1680  0.0026
25197W        W42044  16.984  17.170  12.543  0.0473 -0.1100  0.2318
25198W        W42045  17.050   0.068   5.921  0.0752 -0.1001  0.2094
25199W        W42046   3.846   0.406  16.049  0.4170 -0.0388 -0.0531
25200W        W42047   6.431  17.341   5.229 -0.0375 -0.1990  0.2229
25201W        W42048  17.840   9.773   2.711  0.1380  0.1388  0.0728
25202W        W42049   0.520   8.274   4.967 -0.0909  0.0909 -0.0395
25203W        W42050  15.309   6.425  12.915 -0.0047  0.2262 -0.1422
25204W        W42051  11.070  17.714  11.111  0.0449  0.0517 -0.2311
25205W        W42052   1.551   7.672  15.680  0.0250  0.0016 -0.2503
25206W        W42053  15.866  15.735   4.325 -0.1879  0.0843 -0.0631
25207W        W42054  16.880   2.755  15.751  0.3178  0.1770  0.1460
25208W        W42055   6.725   5.160  14.552  0.1273 -0.0928  0.1698
25209W        W42056  15.974   1.455  12.134  0.0743 -0.0380 -0.1901
25210W        W42057  13.800   0.116   3.387  0.1045 -0.0563 -0.1965
25211W        W42058   3.312  11.405   3.638 -0.3139  0.3024 -0.0176
25212W        W42059   4.428   8.706   2.742  0.1715 -0.2416 -0.1613
25213W        W42060  13.484   0.999  13.927  0.0600  0.0698  0.0700
25214W        W42061   9.860   7.594  11.868  0.1391 -0.2468  0.2020
25215W        W42062   4.758  10.740   0.927 -0.2934  0.0238  0.1362
25216W        W42063   8.866   8.309  14.557 -0.1741  0.1553  0.1682
25217W        W42064   3.351   4.260  12.696  0.0661  0.1571  0.0417
25218W        W42065  16.698   3.276   9.820 -0.0463 -0.2257 -0.2743
25219W        W42066   3.460  13.792   3.115 -0.0396  0.0527  0.1418
25220W        W42067  18.324   1.750   2.414  0.0080 -0.2208 -0.0713
25221W        W42068  13.492  17.095  14.882  0.2281  0.0818 -0.0850
25222W        W42069  13.196   8.075   4.539 -0.1488 -0.4431  0.0164
25223W        W42070  14.046   5.789  11.160  0.3207  0.1079 -0.0722
25224W        W42071  12.870  16.178   5.194  0.3179  0.2811  0.0152
25225W        W42072  11.069  13.235  15.054  0.0253 -0.1541 -0.3831
25226W        W42073   2.844   5.604   2.605  0.0760 -0.1309 -0.0185
25227W        W42074   7.427   7.449  12.150  0.2048  0.1800  0.0581
25228W        W42075  18.234   0.397   4.134 -0.0618  0.3073 -0.2142
25229W        W42076   7.120   8.573  14.025 -0.1784  0.2148 -0.2684
25230W        W42077   2.543  14.442   4.021  0.0894 -0.1020 -0.2834
25231W        W42078  12.242  17.754   4.456  0.3559 -0.1464  0.0617
25232W        W42079  17.594   8.634  14.024  0.1417  0.0781  0.0117
25233W        W42080   3.025   9.287  14.283 -0.3443  0.1802  0.0165
25234W        W42081  18.281   3.305   1.322  0.0749  0.1221 -0.0429
25235W        W42082   7.514   6.623  12.267 -0.0675  0.1416  0.1989
25236W        W42083   8.379  15.712   3.351 -0.1018 -0.0063 -0.0179
25237W        W42084  16.985  14.934  11.718  0.2470  0.0474  0.3943
25238W        W42085  15.425  13.826   0.217  0.0034  0.1040 -0.2007
25239W        W42086  15.618   2.476  14.971 -0.2010 -0.0229 -0.0465
25240W        W42087  15.225  17.263  11.988 -0.3240 -0.0930 -0.2187
25241W        W42088   9.502   8.441  14.638 -0.1998  0.2786 -0.0888
25242W        W42089   1.081   8.639  12.404  0.0251  0.0420 -0.2371
25243W        W42090   5.196  14.657  12.972  0.1463 -0.0286 -0.0117
25244W        W42091   2.226  18.277   4.514  0.0253  0.1696 -0.3191
25245W        W42092   4.467   4.976  16.088  0.0098  0.0687  0.0445
25246W        W42093   7.403   1.005  15.311 -0.0735  0.0210 -0.1187
25247W        W42094  10.859   5.773  15.890 -0.1263 -0.1217 -0.0782
25248W        W42095   5.151  11.151  11.124  0.0805 -0.4542  0.0145
25249W        W42096  11.949   7.030   3.902  0.1372  0.0353  0.0407
25250W        W42097   5.954  18.288  15.891 -0.0133 -0.0542  0.1729
25251W        W42098  18.322   2.538   3.723 -0.0617 -0.1267  0.2224
25252W        W42099   7.641   7.167   2.486  0.0115  0.0279 -0.0714
25253W        W42100  14.265   9.440  15.707  0.1396  0.1980 -0.3332
25254W        W42101  14.362   5.230   1.906 -0.1320  0.0178  0.0566
25255W        W42102   4.657   3.252   3.350  0.1279  0.0380  0.1986
25256W        W42103  15.041   5.144  13.651 -0.4363 -0.2335 -0.0196
25257W        W42104   4.253   8.095  15.718  0.2104  0.3163  0.1865
25258W        W42105   2.100   9.887  12.664 -0.1965  0.1366  0.2272
25259W        W42106   1.007  11.373   0.866 -0.0703 -0.0389 -0.1075
25260W        W42107   3.147  14.082  14.762 -0.5015 -0.1263 -0.3398
25261W        W42108   8.354  13.130   5.487 -0.1396 -0.0679 -0.1840
25262W        W42109  18.098   8.366  12.396 -0.0563  0.1283  0.1382
25263W        W42110   2.973  13.245  14.815 -0.0627 -0.1605  0.0571
25264W        W42111  16.418  12.158   0.136 -0.0984 -0.1668  0.1544
25265W        W42112  11.694   5.414   1.490  0.1029 -0.0042  0.0749
25266W        W42113  16.524   2.243   4.649  0.0851  0.0310  0.2309
25267W        W42114   0.963   0.299  13.200 -0.1392 -0.0247 -0.1841
25268W        W42115  12.816  12.540  15.747  0.0015 -0.2281 -0.1464
25269W        W42116  14.038   5.020  15.213 -0.2589  0.0736  0.1107
25270W        W42117  11.032   1.240   0.854 -0.1547  0.0764 -0.0067
25271W        W42118  15.055  14.266  13.511  0.0649 -0.1851  0.3459
25272W        W42119   0.704   7.341  15.757  0.2912  0.0789  0.1144
25273W        W42120  10.949   3.243  15.131 -0.3336 -0.2333 -0.0220
25274W        W42121   0.928   8.469   3.061 -0.0966  0.1312 -0.0410
25275W        W42122  13.729  16.655  13.811  0.0609 -0.1401 -0.2728
25276W        W42123   0.576  11.701   5.539 -0.1012 -0.2735 -0.1112
25277W        W42124   0.373   1.864  10.177 -0.1428  0.0008  0.2780
25278W        W42125  16.276  16.702   1.672 -0.2170 -0.3023  0.0176
25279W        W42126   4.014  16.464  14.679  0.0912 -0.1197 -0.2800
25280W        W42127   4.710   7.849  14.365 -0.1410 -0.1604 -0.1845
25281W        W42128  15.385  10.157  11.598  0.0399  0.0511  0.3534
25282W        W42129  17.341  14.549  12.371  0.2074 -0.1581  0.1938
25283W        W42130   3.036   1.224   4.783  0.1746 -0.1426 -0.2371
25284W        W42131  15.637   3.961  11.293  0.0517 -0.2328 -0.0164
25285W        W42132  17.125   8.051  13.411  0.2157  0.1945 -0.0698
25286W        W42133   2.430   5.519   4.032 -0.0774 -0.1117  0.0020
25287W        W42134  17.680  13.900   0.714 -0.1220  0.0694 -0.1937
25288W        W42135   0.345  11.898  13.618 -0.1424 -0.0334 -0.2476
25289W        W42136  12.744   0.194  14.423 -0.0762  0.1622 -0.0803
25290W        W42137  12.409  16.422  15.428 -0.1230 -0.1455  0.1511
25291W        W42138  14.724   5.792  10.536 -0.1772  0.1813 -0.0909
25292W        W42139   0.127   5.746   2.862  0.0847  0.2110 -0.0603
25293W        W42140  11.826   7.052  11.236 -0.1027  0.1258  0.0175
25294W        W42141   5.270   6.080   1.173 -0.0405  0.0191  0.0071
25295W        W42142   7.714  17.672  15.658 -0.1578  0.0259  0.1753
25296W        W42143   0.991   1.626  12.823  0.2126 -0.0976 -0.2916
25297W        W42144  17.058   3.925   1.531  0.2593 -0.0488 -0.2651
25298W        W42145  12.575   1.770   2.268 -0.0884  0.1292  0.2008
25299W        W42146   0.790   3.493  11.799  0.2625 -0.0605  0.0904
25300W        W42147   8.342   1.990  12.819 -0.0905  0.0750  0.0087
25301W        W42148   9.711   8.569  12.357  0.2041 -0.0556 -0.1542
25302W        W42149   5.835  11.363   6.052  0.3881  0.4190  0.2850
25303W        W42150   8.049   1.826  14.607 -0.1422  0.1547  0.0810
25304W        W42151  11.068   0.298  12.194 -0.0694 -0.1207 -0.1012
25305W        W42152  17.419  14.052   4.014  0.4638 -0.1047 -0.0481
25306W        W42153   4.180   2.538   2.996 -0.0311  0.0206  0.0394
25307W        W42154  15.024  12.412  11.588 -0.0017  0.1227 -0.3640
25308W        W42155   9.094   6.039  15.176  0.1920 -0.0075 -0.6032
25309W        W42156   9.402   0.166  10.571  0.0303 -0.0676  0.1200
25310W        W42157   6.065  15.230   4.078 -0.3538  0.0808  0.0605
25311W        W42158  11.756   1.364   2.098  0.0367  0.2212 -0.4478
25312W        W42159  11.357  12.595   2.503  0.0550  0.1061 -0.0853
25313W        W42160   9.598  16.757  13.700 -0.0799  0.0770 -0.0702
25314W        W42161  15.729   9.445  15.135  0.1031  0.0166 -0.1452
25315W        W42162  15.009   3.798  12.314 -0.1242  0.0055  0.0521
25316W        W42163  16.160   6.331  12.922  0.0618  0.0347 -0.0040
25317W        W42164  16.145   3.528  13.425  0.2830 -0.4814 -0.3282
25318W        W42165   0.936  13.121   3.186 -0.2738  0.0507  0.3644
25319W        W42166   5.765  15.818   3.443 -0.0862  0.1386 -0.1004
25320W        W42167  11.844   8.687   3.707 -0.1377 -0.0898  0.2335
25321W        W42168   6.554   3.367   4.332  0.0648  0.0738 -0.0712
25322W        W42169  17.254  12.305   0.960 -0.0336 -0.1156 -0.0673
25323W        W42170  11.546  13.227  13.886  0.0855 -0.1057 -0.0241
25324W        W42171  11.636  15.451   5.303 -0.3368 -0.1136 -0.0224
25325W        W42172   7.201   0.995  12.699 -0.0464 -0.0685  0.0973
25326W        W42173   0.286   5.041  13.776  0.0764  0.0616 -0.0283
25327W        W42174   3.472  15.625   2.020 -0.0055  0.1196  0.0055
25328W        W42175   8.884  12.363  15.023 -0.0859  0.0564 -0.2787
25329W        W42176   3.647   9.628   2.788 -0.0223  0.2058  0.0653
25330W        W42177   8.101  12.866  14.436  0.1599 -0.0302 -0.1543
25331W        W42178  15.767  15.589   0.634 -0.0040  0.2378  0.2132
25332W        W42179   6.778   8.208  14.597  0.2294 -0.0735 -0.1663
25333W        W42180   1.594   6.500   4.477 -0.0125  0.2900  0.0666
25334W        W42181   6.169   6.282  15.886 -0.2086  0.0244 -0.1985
25335W        W42182   4.684   6.469   3.265  0.0256 -0.3411  0.3637
25336W        W42183   5.327   5.199  15.959  0.2851  0.0171  0.0293
25337W        W42184   9.458  11.017   2.800  0.0969 -0.0906  0.2750
25338W        W42185  15.968   4.016   2.080  0.0320  0.3883 -0.2117
25339W        W42186   7.363   7.304  13.994  0.2261 -0.1687 -0.1166
25340W        W42187  16.148  11.753   3.888 -0.1334  0.1922 -0.0076
25341W        W42188   9.181  16.026  12.261 -0.0242  0.0750 -0.5246
25342W        W42189  11.607  17.120  11.360  0.0317 -0.0366  0.0955
25343W        W42190  12.190   5.786  14.305  0.1097 -0.0354 -0.1927
25344W        W42191  12.861   7.117  12.495  0.1524  0.0066 -0.2134
25345W        W42192  14.361  18.078  12.216 -0.1381  0.0571  0.0917
25346W        W42193   1.183  10.665   0.232  0.0667 -0.1269 -0.1021
25347W        W42194   1.860   7.756  13.989 -0.0204  0.4134 -0.1522
25348W        W42195  17.585  15.751  14.834  0.0856  0.2002  0.1217
25349W        W42196   0.785   1.226  16.022 -0.1648 -0.0577 -0.3138
25350W        W42197   5.540   8.954   1.380  0.2601 -0.3222 -0.1370
25351W        W42198   3.499   6.361  15.005  0.5775 -0.1213  0.0151
25352W        W42199   5.070   2.272   2.122  0.1418 -0.0264  0.1093
25353W        W42200   0.729  12.885   0.315  0.0389  0.0199  0.1610
25354W        W42201   4.109   6.710   5.130 -0.2115  0.1719 -0.0123
25355W        W42202  16.937   3.201  10.220  0.1339 -0.0504 -0.3486
25356W        W42203  15.329   8.302  12.585 -0.1196 -0.0326  0.1056
25357W        W42204   5.883  14.564  11.129  0.5107 -0.0727  0.0732
25358W        W42205  11.892   7.014   4.878 -0.1114 -0.0837  0.0588
25359W        W42206  16.590  17.895   1.763  0.0207  0.4568  0.0576
25360W        W42207  12.569  11.186  11.241 -0.0940 -0.3158  0.0316
25361W        W42208   6.607  10.974  12.762 -0.0781 -0.2778  0.0185
25362W        W42209   9.091   5.740   3.462 -0.1209  0.0770  0.0214
25363W        W42210  15.731  16.812   3.273  0.3239  0.1421 -0.1047
25364W        W42211   3.319   3.454   1.177 -0.0546 -0.1513  0.1965
25365W        W42212  10.923  13.820   0.484 -0.3032 -0.0191 -0.1831
25366W        W42213   1.161   0.286  12.312  0.0755 -0.1091 -0.1919
25367W        W42214   4.648  11.223  11.147  0.0366  0.1928 -0.0000
25368W        W42215   5.479  11.979  12.498  0.0848 -0.2055  0.1323
25369W        W42216  11.062  11.369   4.198  0.1836 -0.2153  0.5813
25370W        W42217   6.877  11.408  14.698  0.0435  0.0168  0.4947
25371W        W42218  18.154   2.966  15.080  0.1076  0.0810  0.0386
25372W        W42219   9.275   4.530  15.418 -0.0206  0.1717 -0.0523
25373W        W42220   4.505   2.906  12.357 -0.1554  0.1090  0.1008
25374W        W42221   6.490   0.270  15.788  0.0819  0.1173 -0.1021
25375W        W42222  16.198   4.197   2.671  0.1148 -0.0078  0.1780
25376W        W42223   0.424   1.055  15.574  0.2603 -0.0403  0.0078
25377W        W42224   7.538   0.022   1.788 -0.2156 -0.0222  0.1331
25378W        W42225   5.855  15.680   5.313 -0.0369  0.1066 -0.1325
25379W        W42226   9.801   7.914  13.776 -0.2899 -0.1823  0.3356
25380W        W42227   7.789  13.127  13.001  0.3555 -0.1743 -0.1177
25381W        W42228   0.250  12.621   0.923  0.0562  0.3599 -0.0815
25382W        W42229   6.500   2.955   5.299 -0.0812 -0.1124 -0.3781
25383W        W42230  10.071  13.904  12.603 -0.1578 -0.0038 -0.0863
25384W        W42231   3.590  15.075  13.061  0.0208 -0.0528  0.0059
25385W        W42232   0.558   7.749   1.020  0.0852 -0.0313  0.1506
25386W        W42233   9.829  11.150   2.452 -0.0342 -0.0863  0.3056
25387W        W42234   6.744   8.446  12.813 -0.0732 -0.2385  0.0778
25388W        W42235  16.946   8.910   3.382 -0.1416  0.2878  0.1118
25389W        W42236   3.119   8.318   1.160 -0.0687  0.1394  0.1757
25390W        W42237  15.266  16.093  14.337 -0.0337  0.0324  0.1323
25391W        W42238   1.051  10.068   3.643  0.2592 -0.1737  0.2170
25392W        W42239  16.550   7.004  12.146  0.1112  0.0525 -0.4192
25393W        W42240   7.301   5.806  12.343  0.2630  0.0550 -0.4599
25394W        W42241  14.216  16.523   1.048  0.1270 -0.1074 -0.0024
25395W        W42242   2.513   2.631   4.564 -0.4061  0.0058 -0.1903
25396W        W42243   8.654   9.838   0.226  0.2267 -0.1028  0.1284
25397W        W42244  17.975   9.674  14.581 -0.1851 -0.0607  0.1585
25398W        W42245   4.636   8.236   0.959  0.1201  0.2857  0.0056
25399W        W42246   1.408  11.652   0.722  0.0197 -0.0094 -0.1343
25400W        W42247   8.136   1.403  12.417  0.2526  0.0030 -0.1302
25401W        W42248  13.578   1.804   0.483 -0.0966 -0.1241  0.1766
25402W        W42249  18.128  17.596  15.009 -0.0093 -0.1690  0.2289
25403W        W42250   0.170  11.682   1.606  0.0296 -0.0102  0.3036
25404W        W42251  14.191   4.880   2.293 -0.1736  0.0715 -0.1874
25405W        W42252  13.796   2.860  15.119 -0.1225  0.0558  0.0234
25406W        W42253  11.095  12.126  13.853 -0.1031 -0.0868  0.0897
25407W        W42254   9.733  13.255  15.674  0.1631  0.0632 -0.1838
25408W        W42255  13.957  16.006   1.067 -0.2135 -0.3723 -0.0693
25409W        W42256  12.544  10.876   1.739  0.0441  0.1826 -0.1110
25410W        W42257  10.179   8.249   3.213 -0.0894  0.2469 -0.2892
25411W        W42258  13.557  12.020   4.497  0.1152 -0.0331 -0.0422
25412W        W42259  15.403  11.422  15.669 -0.3469  0.2212  0.1593
25413W        W42260   5.799   1.881  11.470 -0.2299 -0.2751  0.0551
25414W        W42261   3.357  16.689  14.361 -0.1562 -0.0200 -0.4251
25415W        W42262  17.635  16.026  11.625  0.1140 -0.1510 -0.0650
25416W        W42263  17.175   1.941   1.088  0.0052  0.3218 -0.0115
25417W        W42264   5.087   3.511  12.451  0.1429  0.1164  0.0752
25418W        W42265  16.194   2.824  12.691  0.1356 -0.0871 -0.0467
25419W        W42266   1.714   7.921   3.305 -0.0063 -0.0338  0.1315
25420W        W42267   4.032   2.651  15.565  0.1545 -0.2748  0.0567
25421W        W42268   9.366   1.800  12.415  0.0943  0.0105  0.3711
25422W        W42269   8.764  14.766  15.785  0.3125  0.1780  0.1253
25423W        W42270   5.501  14.265  11.371  0.3841  0.1844 -0.1351
25424W        W42271   2.313   7.122   0.410 -0.1461 -0.2799 -0.2255
25425W        W42272  10.008   5.827   3.375  0.0714  0.0977  0.2071
25426W        W42273  15.997  18.281   0.319 -0.4464 -0.0188  0.1083
25427W        W42274  12.967   3.586  11.696 -0.1820  0.0043  0.0447
25428W        W42275  16.415   9.882  12.409 -0.3740  0.2115  0.1930
25429W        W42276  10.919   3.337   2.291  0.3264 -0.2023 -0.1496
25430W        W42277  15.062  13.301   5.355 -0.2818 -0.2174 -0.2641
25431W        W42278   9.998   3.855  14.407 -0.1736  0.1464  0.2593
25432W        W42279  15.743  11.061   0.408  0.4072 -0.1772 -0.0369
25433W        W42280   6.437   7.883  16.084 -0.0985 -0.0389  0.2944
25434W        W42281  17.264   5.285   1.296 -0.1697 -0.2865 -0.0948
25435W        W42282  16.589   1.487   2.199  0.2202  0.1264 -0.2063
25436W        W42283   0.360  10.794   5.697  0.1381  0.1028 -0.0876
25437W        W42284  13.154   8.789  15.626 -0.1172 -0.5246  0.1254
25438W        W42285   1.759  17.967  11.940  0.0526  0.0357 -0.0316
25439W        W42286  14.691  11.572  12.964  0.0297  0.3434 -0.1770
25440W        W42287  17.377   3.368   2.255  0.0899 -0.4820 -0.0655
25441W        W42288  17.173  13.091   3.821  0.1488 -0.3010 -0.3151
25442W        W42289  12.719   1.461  14.532 -0.0542 -0.1740 -0.3048
25443W        W42290  10.482  10.324  11.694  0.4874 -0.1769 -0.1588
25444W        W42291   0.839  14.721  10.521 -0.2803  0.0535  0.1422
25445W        W42292   5.519   4.870   5.043  0.1029 -0.1745 -0.0468
25446W        W42293   1.323   2.936   3.737 -0.3824 -0.1589  0.2459
25447W        W42294  16.741  16.862   3.081  0.0946  0.0935 -0.0734
25448W        W42295  16.231  14.486   1.600  0.0912  0.1969 -0.1489
25449W        W42296   2.089  11.700   3.395 -0.1609 -0.2084 -0.1350
25450W        W42297   9.645  13.456   6.357  0.1631  0.3499 -0.2242
25451W        W42298   4.466  15.774   3.548 -0.2181 -0.3319  0.1317
25452W        W42299  17.603   9.857   1.507  0.1272  0.1305  0.0188
25453W        W42300  10.680   8.233  11.567 -0.3280 -0.3120  0.2281
25454W        W42301   4.358  16.565  12.990 -0.2891  0.1775 -0.1021
25455W        W42302  13.340   7.193  15.483  0.0680  0.2554 -0.1108
25456W        W42303   6.747   1.772   1.611 -0.1866  0.0374  0.2302
25457W        W42304  13.165   5.040   0.977 -0.1239 -0.0272 -0.0821
25458W        W42305   9.503   8.376   1.133  0.1184  0.1681  0.1145
25459W        W42306   1.159   8.633  15.200 -0.0173  0.1233  0.2351
25460W        W42307   7.467   0.185   5.603 -0.2864  0.0932  0.1099
25461W        W42308   2.124   7.249  10.807  0.1393  0.1694 -0.1480
25462W        W42309  15.977  10.776  12.124 -0.2537 -0.2312 -0.0496
25463W        W42310   9.642  15.354   3.803 -0.0449 -0.0035 -0.3781
25464W        W42311  10.885  14.984  15.048 -0.2159  0.0625 -0.1152
25465W        W42312  12.230   4.388  13.566 -0.1599 -0.2249  0.0873
25466W        W42313  15.494   4.482   3.296 -0.0923  0.0239 -0.1464
25467W        W42314  17.765   4.713   2.408 -0.1069 -0.2139  0.1261
25468W        W42315  15.238  12.165   1.437  0.1025 -0.0323 -0.2186
25469W        W42316   6.872   5.546   2.112 -0.1698  0.1426  0.1344
25470W        W42317   1.074   5.730   1.852 -0.0187  0.1170  0.0345
25471W        W42318  14.617   8.843  14.841  0.0600  0.0843 -0.0057
25472W        W42319  10.045  12.820   1.561 -0.0447  0.0730 -0.0610
25473W        W42320  15.191  15.641   3.857  0.2611 -0.0327  0.0885
25474W        W42321  10.052   9.214  14.361  0.2094  0.0295 -0.0362
25475W        W42322  15.549   5.769   2.348 -0.2826 -0.0175 -0.1165
25476W        W42323   0.926   0.614  11.495 -0.3113 -0.1243 -0.0508
25477W        W42324   4.137   6.664  14.587  0.0799  0.1847  0.1471
25478W        W42325   2.373   8.224  11.586 -0.0374 -0.3309 -0.2555
25479W        W42326   0.211  12.785  10.371 -0.2605  0.1834  0.0576
25480W        W42327  11.791   3.863  10.343 -0.0631  0.2487 -0.1900
25481W        W42328   9.961  11.189   3.256  0.1029  0.1813 -0.2333
25482W        W42329   4.270  13.780   1.251 -0.0114  0.2637  0.3003
25483W        W42330   5.791  16.297   3.332  0.1415 -0.1701  0.2228
25484W        W42331   0.471  17.013   4.266 -0.1656  0.0053 -0.4510
25485W        W42332   9.476   6.084  15.992  0.0360  0.1949  0.0632
25486W        W42333  12.525   2.328   5.157  0.1321  0.2433  0.0477
25487W        W42334  10.594  14.361  11.984  0.1338 -0.0242  0.0181
25488W        W42335   8.116  16.786   4.311 -0.0815 -0.1637  0.0078
25489W        W42336   1.316   6.404   0.716 -0.0719  0.0928 -0.3099
25490W        W42337   7.405   4.611  13.547 -0.0851 -0.0981  0.1593
25491W        W42338   0.011   9.300  13.870 -0.1669 -0.2528  0.0825
25492W        W42339   4.283   8.556  15.424 -0.3877 -0.3032  0.1602
25493W        W42340  13.811   9.689  12.730 -0.0623 -0.2493  0.1143
25494W        W42341   6.631  16.756   0.535  0.1274  0.3892  0.1396
25495W        W42342   1.461   1.619   4.910  0.1381  0.0603 -0.2220
25496W        W42343   7.335   3.532  16.052  0.3539  0.0850  0.0195
25497W        W42344  10.055  13.742   5.174  0.0428 -0.1643  0.1136
25498W        W42345   5.253  16.370   1.480 -0.1893  0.2874 -0.0857
25499W        W42346  14.298  11.320   4.709  0.3705 -0.1212 -0.0093
25500W        W42347   4.461  13.059   3.726 -0.1193 -0.0138 -0.0001
25501W        W42348  12.981  11.951  14.972 -0.4708 -0.2078  0.2196
25502W        W42349   4.690   0.787   1.226  0.2312  0.3557 -0.0815
25503W        W42350   6.359  10.262  13.437  0.0632 -0.3260  0.1050
25504W        W42351   6.889  17.641  14.963  0.0304  0.0616  0.0229
25505W        W42352   9.523   6.106  15.435  0.1263  0.0146  0.0328
25506W        W42353   0.276   6.053  12.096  0.0010 -0.0265  0.0899
25507W        W42354   4.997   7.341   4.972  0.3446  0.3006  0.0430
25508W        W42355   9.774  14.022   6.191  0.0338  0.0682 -0.2078
25509W        W42356   0.129  15.929  15.463  0.1970  0.0182  0.1104
25510W        W42357   5.514   4.043   3.994  0.0117 -0.1038 -0.2301
25511W        W42358   0.544   5.699   3.140  0.0083 -0.2864  0.0356
25512W        W42359   0.084   6.621  15.511  0.1057 -0.2963  0.1686
25513W        W42360   9.359  14.080  13.596  0.1307  0.1461 -0.2724
25514W        W42361   3.920  16.065  14.346 -0.2944  0.3082  0.0682
25515W        W42362  17.063  10.898  15.578  0.0764 -0.2112  0.0032
25516W        W42363   3.277  17.260  14.770 -0.1548  0.0076 -0.1816
25517W        W42364  10.333  12.396   1.609 -0.3635 -0.0066  0.0836
25518W        W42365   4.485   6.948   0.396  0.0591 -0.1250 -0.2173
25519W        W42366   1.920  10.669  12.237  0.2670  0.2887  0.0143
25520W        W42367   8.081  15.535  13.854  0.4756 -0.1666 -0.3727
25521W        W42368  10.431  11.477  15.520 -0.1627 -0.1909 -0.1151
25522W        W42369   5.657   9.951  14.369 -0.1590 -0.0043 -0.0501
25523W        W42370  15.963  10.062  11.637 -0.0817  0.1359  0.3817
25524W        W42371  17.358   7.682   0.120  0.1349 -0.2854 -0.1315
25525W        W42372  10.245   5.853   0.622  0.1504  0.2738 -0.2021
25526W        W42373  14.910   4.652  12.906 -0.0222 -0.1938  0.0006
25527W        W42374   5.695   4.003   5.106  0.1692  0.3225  0.0310
25528W        W42375   5.877  16.447  15.717  0.2157  0.0160 -0.0160
25529W        W42376   1.010  12.480  11.984 -0.1270  0.0040 -0.0176
25530W        W42377   8.900   2.257  12.122 -0.0169  0.1416 -0.2436
25531W        W42378  13.996  13.758  12.986  0.0128  0.0319  0.1179
25532W        W42379  10.797   7.069  12.587 -0.0292 -0.1049  0.1873
25533W        W42380  16.934   3.586  10.538  0.0283  0.1658  0.2070
25534W        W42381   2.404   6.046  14.907  0.0759  0.0688  0.1433
25535W        W42382   3.619  17.321  11.854 -0.1288  0.0763 -0.1027
25536W        W42383   8.846  10.209   4.558 -0.3005 -0.0303 -0.1457
25537W        W42384  13.804   1.084   0.027  0.2168 -0.0222 -0.0340
25538W        W42385   3.604   9.755  14.008  0.1168 -0.0829 -0.1087
25539W        W42386  13.806   9.242   0.740 -0.1514 -0.2028 -0.1395
25540W        W42387   6.777  16.894  15.020  0.3117 -0.0076 -0.0823
25541W        W42388   9.173   1.900   3.691  0.1103 -0.0552 -0.1201
25542W        W42389  13.839   9.658   2.460 -0.1316 -0.1108 -0.1426
25543W        W42390  13.243   7.819   1.364  0.1575 -0.2071  0.0026
25544W        W42391  17.483   7.732  14.241 -0.3846 -0.0518  0.2383
25545W        W42392   7.663   8.754  13.571 -0.0606  0.0828  0.0762
25546W        W42393   8.445   0.109   1.361  0.3239 -0.3154 -0.1314
25547W        W42394   1.530   7.604   1.589  0.0055  0.0524 -0.2422
25548W        W42395  14.122  16.788  13.273 -0.1321  0.2431 -0.0598
25549W        W42396  12.550   0.811  15.581 -0.1512  0.2576 -0.3006
25550W        W42397  13.895   8.290  12.768 -0.1826 -0.0850  0.0246
25551W        W42398   5.824   8.684   0.480 -0.3027 -0.2213 -0.0668
25552W        W42399  13.353   0.731   5.055  0.0505 -0.0315  0.1209
25553W        W42400   0.402  15.660   1.561  0.4816 -0.0335 -0.1250
25554W        W42401   7.429  10.635  12.494 -0.0087 -0.0986  0.1800
25555W        W42402   3.076   4.604  14.875  0.1336  0.0212  0.0147
25556W        W42403   1.366  12.459   0.712 -0.0412  0.0517 -0.0006
25557W        W42404  18.133   7.825  12.381 -0.1591  0.3045  0.0475
25558W        W42405   8.172   3.574  15.115  0.1082 -0.0300  0.1012
25559W        W42406  11.688   0.962  15.993  0.2014 -0.2278 -0.1109
25560W        W42407  11.834   1.146  13.005  0.1862  0.0382  0.0760
25561W        W42408   2.901   6.260   1.349 -0.1816 -0.1038  0.2382
25562W        W42409   4.313   4.954  15.620  0.2265  0.1237 -0.4187
25563W        W42410  15.817  10.646   4.680  0.2113  0.0289 -0.0958
25564W        W42411  11.729   6.035   3.554  0.0862 -0.1363  0.0669
25565W        W42412   5.278   8.608   0.525 -0.0774  0.0432 -0.0604
25566W        W42413   1.710   4.559   3.380 -0.0393  0.2138  0.0411
25567W        W42414  13.527   4.830  13.828  0.0665 -0.1377 -0.0835
25568W        W42415  17.427  12.536   2.650 -0.1770  0.0891 -0.0156
25569W        W42416   2.886  16.166  11.163  0.0054 -0.2423  0.1337
25570W        W42417  12.680  15.203  14.103 -0.2507 -0.0791  0.0962
25571W        W42418   0.330   9.339  12.927 -0.0178  0.0858  0.3439
25572W        W42419  10.624  16.290   3.345 -0.1479  0.1567 -0.4162
25573W        W42420  14.550  16.445   0.725 -0.0411  0.2898  0.2645
25574W        W42421  18.037  14.269   4.918 -0.0370  0.2770 -0.0255
25575W        W42422  11.598   2.613   1.308 -0.4106 -0.1986 -0.1101
25576W        W42423   2.616  14.385   3.054 -0.0768  0.1388 -0.1209
25577W        W42424  15.741   5.537  12.407 -0.3008  0.1757  0.0460
25578W        W42425  11.472   4.336  14.648  0.0492 -0.2155 -0.3541
25579W        W42426  15.773   1.742  12.593  0.1668 -0.0240 -0.0844
25580W        W42427   1.675  16.537   4.977  0.0192  0.0934 -0.0746
25581W        W42428  12.500  17.830  12.870 -0.1791 -0.0754 -0.2175
25582W        W42429   7.911   5.672  11.413 -0.1666 -0.0386 -0.1642
25583W        W42430  10.392  11.778   3.785 -0.0630  0.1743  0.0379
25584W        W42431   8.625  14.644  13.923  0.0089 -0.0627  0.0317
25585W        W42432  16.058   2.458  14.140  0.0321  0.0710 -0.2422
25586W        W42433  11.836  12.603  14.182 -0.1258  0.0399 -0.2459
25587W        W42434  14.619   1.780   3.709 -0.1140 -0.0695  0.1072
25588W        W42435   5.842   9.704   3.286  0.1918 -0.0379  0.0504
25589W        W42436   8.517  15.297  12.331 -0.2538 -0.3296 -0.1823
25590W        W42437   6.432   5.121   2.871  0.0372  0.0379 -0.4892
25591W        W42438   1.709  12.504  11.381  0.1187  0.0011 -0.0132
25592W        W42439  10.409  10.845   1.647 -0.1722  0.4226 -0.1869
25593W        W42440   9.049   9.984   0.544 -0.1216 -0.0964 -0.2053
25594W        W42441  15.999   9.279  13.258  0.1100 -0.1328 -0.0692
25595W        W42442   7.720  15.359  14.123  0.3760  0.0121 -0.1225
25596W        W42443  14.068   6.997   4.003  0.4364  0.0688 -0.1202
25597W        W42444  11.703   0.165   1.161  0.1252 -0.0341 -0.0267
25598W        W42445  12.198  14.275   1.708  0.0250 -0.2883 -0.1364
25599W        W42446  14.399   4.781   3.638 -0.1176  0.1593 -0.0562
25600W        W42447   3.787  13.733   4.335 -0.0115  0.0903  0.0728
25601W        W42448  16.536  13.777  14.550 -0.0439 -0.2498  0.2977
25602W        W42449   7.952  11.139   5.544  0.1742 -0.0004 -0.1704
25603W        W42450  16.491  17.310   2.905 -0.0791 -0.2114 -0.0411
25604W        W42451   9.421  13.713  14.152 -0.2190 -0.0078 -0.1302
25605W        W42452  10.774   2.034  14.929  0.3425  0.3249 -0.0096
25606W        W42453   5.441   5.823  11.438  0.0246  0.1827 -0.0111
25607W        W42454  13.360   1.782  12.537 -0.0747  0.1330 -0.2791
25608W        W42455   6.598  11.233   3.025  0.1442 -0.0531  0.0654
25609W        W42456   0.318   8.192  15.817  0.2899 -0.1516 -0.3373
25610W        W42457   0.238  17.668  14.792  0.3446 -0.3674  0.0545
25611W        W42458   0.363  13.891   4.457 -0.2155 -0.2168 -0.0127
25612W        W42459   4.174  10.109  11.474  0.0232  0.0007  0.2474
25613W        W42460   1.058   5.759   3.850 -0.1086 -0.2091 -0.2739
25614W        W42461   1.660  11.558  12.039  0.0728 -0.0245  0.0547
25615W        W42462   9.994  16.812   0.973 -0.1056  0.1763  0.4098
25616W        W42463   5.134  16.307  11.316  0.1167  0.1619  0.1626
25617W        W42464   1.373  17.336   3.654  0.0397  0.0986 -0.4305
25618W        W42465   3.684  11.675   3.373  0.3011 -0.4074  0.1573
25619W        W42466   9.953   7.188  13.179  0.2748 -0.1226  0.0485
25620W        W42467   2.948  16.362  14.042 -0.0853  0.0404 -0.1307
25621W        W42468  12.398   8.823  13.485 -0.0927 -0.1495  0.0141
25622W        W42469  16.681   9.996  15.115  0.0377 -0.0162  0.0544
25623W        W42470   4.981   2.487   0.241 -0.2644 -0.1200 -0.0855
25624W        W42471  13.655  14.831  12.581 -0.0571 -0.0479  0.1431
25625W        W42472   8.267  12.738   5.180  0.4287 -0.1569 -0.1600
25626W        W42473  15.873  11.543  14.877 -0.2392  0.1576  0.0941
25627W        W42474  12.047  11.036   0.525 -0.0342  0.2048  0.0779
25628W        W42475   7.811  17.581   0.464  0.0165  0.1345 -0.0945
25629W        W42476   1.959   7.356   5.528 -0.0554  0.0265  0.1744
25630W        W42477  13.339  14.749   5.702  0.0334 -0.0853 -0.1022
25631W        W42478   6.510   5.637   1.719  0.1518  0.3485  0.2326
25632W        W42479  16.821  17.055  11.229 -0.1334  0.0949  0.0837
25633W        W42480   8.776   1.933   0.273  0.2333  0.2994 -0.1171
25634W        W42481   5.539   2.736   4.276  0.0408 -0.3282 -0.0886
25635W        W42482   2.452   2.786  13.579  0.0625  0.0313  0.0275
25636W        W42483   9.062  17.563   3.886 -0.0238  0.0481 -0.2351
25637W        W42484  10.301   4.939  14.528 -0.2202 -0.2273  0.0243
25638W        W42485  10.802   6.606   0.093 -0.1099  0.1485 -0.3117
25639W        W42486  14.831   6.960  11.516 -0.2165 -0.1124  0.2656
25640W        W42487  13.382  10.059   0.390  0.1573  0.1086  0.0707
25641W        W42488   0.226   6.463  16.030  0.0257  0.0276  0.2631
25642W        W42489  11.386  12.286   6.211 -0.0927 -0.0685 -0.3277
25643W        W42490  17.608   4.072   1.579 -0.1217 -0.2037  0.1424
25644W        W42491  12.165   9.356  15.305  0.3363  0.0593  0.0207
25645W        W42492   0.847   1.852  10.836  0.0695  0.1636 -0.2204
25646W        W42493  11.424   6.953   4.183 -0.0047 -0.6124  0.0501
25647W        W42494  17.610   4.716  11.746 -0.0271  0.2381 -0.0206
25648W        W42495  13.225  15.379   0.851 -0.1637  0.0085 -0.0070
25649W        W42496  10.283   2.078  12.968 -0.0398  0.3031  0.0857
25650W        W42497   8.747   6.008   1.410  0.1839  0.3818  0.1065
25651W        W42498   8.669  17.901  16.118 -0.1621 -0.0891 -0.1274
25652W        W42499  13.572   7.485  12.718 -0.0720  0.0168  0.0889
25653W        W42500   0.408  14.142   0.367 -0.0007  0.0009  0.0423
25654W        W42501   6.281   3.154   1.278  0.0840  0.3729 -0.0549
25655W        W42502  14.380   6.515  11.558  0.0329  0.1272 -0.0461
25656W        W42503  16.823  17.027  15.189 -0.0096 -0.2144 -0.2752
25657W        W42504  16.464   9.115   4.398  0.0210 -0.0166  0.0237
25658W        W42505  11.344   5.330  14.826 -0.1206  0.1545 -0.1034
25659W        W42506   6.906   4.458  12.465  0.2054  0.2994 -0.0781
25660W        W42507   5.376  11.329  12.312  0.1446 -0.2748  0.1411
25661W        W42508  15.444   9.225  13.241  0.2919  0.0236 -0.2278
25662W        W42509  17.305  10.052  15.231  0.1132 -0.2727 -0.2004
25663W        W42510  13.670  14.600   0.791 -0.1500 -0.2075  0.1428
25664W        W42511  14.239   3.915   4.795  0.0734  0.1687  0.3143
25665W        W42512  10.092   6.089   4.274  0.0528  0.1493  0.0494
25666W        W42513   0.348  15.371  16.077 -0.2718  0.1227 -0.3221
25667W        W42514   6.860   7.678   4.676  0.0436  0.2474 -0.0814
25668W        W42515  14.928  13.472   4.928  0.2100 -0.0152 -0.0184
25669W        W42516   6.819   2.693   0.212  0.2544  0.1748 -0.1487
25670W        W42517   0.031  14.437   1.228 -0.3039  0.3031  0.1438
25671W        W42518  12.151   5.167   1.232 -0.0851 -0.0070 -0.0651
25672W        W42519   4.876   6.064   2.154 -0.0039 -0.0118 -0.1111
25673W        W42520  15.529  16.881   3.902  0.0358 -0.1550  0.1137
25674W        W42521   2.425   1.855   3.072  0.0134  0.1222 -0.0843
25675W        W42522  17.217   1.330  11.453  0.1825  0.1100  0.1699
25676W        W42523  16.732   9.955  14.153 -0.0649 -0.2028  0.2155
25677W        W42524  16.992   4.319   5.379 -0.2852 -0.0353 -0.2495
25678W        W42525  11.498  15.966   0.487  0.0301 -0.3221  0.0428
25679W        W42526   3.738  13.041   3.083 -0.1639 -0.0676 -0.0986
25680W        W42527   4.461  16.209   5.629  0.2105  0.0977  0.0637
25681W        W42528   7.016   3.390  13.232  0.1652 -0.3251  0.0384
25682W        W42529  16.290  14.871  10.684 -0.0610 -0.1396  0.3127
25683W        W42530  12.903  13.489  14.465  0.1069  0.3062 -0.0483
25684W        W42531   7.768   6.213  11.470  0.0773 -0.2092 -0.0201
25685W        W42532   8.439   9.854  12.817 -0.3294 -0.1747 -0.1992
25686W        W42533   2.123  14.130  11.668  0.1141  0.3704 -0.0235
25687W        W42534  10.782   7.429   0.478 -0.0322  0.0225  0.4613
25688W        W42535   5.394  15.866   9.690  0.0337  0.1574 -0.1726
25689W        W42536  17.916   4.315  15.427 -0.2258 -0.1098 -0.0691
25690W        W42537  17.499   7.769  11.789 -0.1259  0.1705  0.0515
25691W        W42538   4.334  13.882   4.213  0.3642  0.2894  0.0024
25692W        W42539   1.902  14.801   2.114  0.0229 -0.0013  0.1090
25693W        W42540   7.847  11.627  12.526 -0.1413 -0.0905  0.0407
25694W        W42541   4.075  12.103   0.421  0.0357 -0.1126 -0.2001
25695W        W42542  11.860   9.526  14.169 -0.1676 -0.1347  0.0897
25696W        W42543  14.642  11.708   4.619  0.0478 -0.0676 -0.0308
25697W        W42544   8.179  10.080   4.125 -0.1281 -0.0440 -0.1750
25698W        W42545   3.405   5.301   5.493  0.0658 -0.1806 -0.0052
25699W        W42546   2.531   7.536   2.550  0.4763  0.1950  0.1986
25700W        W42547   0.828  13.635  13.422 -0.0188 -0.3440  0.2119
25701W        W42548  13.298  12.714  15.971 -0.1000 -0.0291  0.0993
25702W        W42549  12.287   3.049   0.877 -0.1806  0.0441  0.0526
25703W        W42550   1.308  16.539  11.256  0.2109  0.3768  0.0545
25704W        W42551  15.643   3.266   3.713 -0.0499  0.0259 -0.1620
25705W        W42552   0.719  17.776   1.144 -0.3319 -0.1585  0.2680
25706W        W42553  11.780   3.434  14.844 -0.0328 -0.0405  0.2272
25707W        W42554   6.530   6.607   5.175  0.2358 -0.2648  0.0235
25708W        W42555  10.428  13.527  11.945 -0.3628 -0.2214  0.2307
25709W        W42556   3.250   2.773  13.379  0.1882  0.1323 -0.1635
25710W        W42557  16.380  17.471   0.269  0.2754 -0.2877  0.0223
25711W        W42558  10.327  11.295   1.003  0.3623 -0.1698 -0.2105
25712W        W42559   8.992   5.736  12.756  0.1414 -0.0249  0.1515
25713W        W42560   4.088   1.846  11.281 -0.1376 -0.1077 -0.1841
25714W        W42561  17.625   6.585  10.970 -0.0875 -0.2196  0.1748
25715W        W42562   7.376   5.248   1.264 -0.3718  0.0335  0.1797
25716W        W42563  13.546  17.152  15.435  0.1864 -0.0643  0.1206
25717W        W42564   7.683  14.861   2.733  0.0491 -0.3141  0.0676
25718W        W42565  17.024  14.317  11.832 -0.0653 -0.2877  0.1316
25719W        W42566   2.616   3.258  15.138  0.0222  0.3249 -0.2348
25720W        W42567  13.227  16.635   0.623  0.1701  0.0238 -0.0071
25721W        W42568  11.221  10.222   3.123 -0.0717  0.2104 -0.2962
25722W        W42569   3.698  11.472   1.110  0.0483 -0.2783 -0.0255
25723W        W42570  11.566  17.822   5.292  0.1282 -0.3579  0.0195
25724W        W42571  17.722  11.447  14.916 -0.0678  0.4441 -0.1365
25725W        W42572   8.471   9.575   1.811  0.1636  0.0126 -0.0322
25726W        W42573  10.008   9.083   1.486 -0.0074 -0.1941 -0.0993
25727W        W42574   5.209   3.955  14.565 -0.0740  0.0813  0.0569
25728W        W42575   1.954   9.356   5.105  0.3725 -0.1026 -0.1351
25729W        W42576   1.096   9.138   2.475  0.3004  0.0568  0.2444
25730W        W42577   7.360  14.443   2.488 -0.1465 -0.2192 -0.0180
25731W        W42578  17.055   5.507  13.841 -0.0131  0.0095 -0.0195
25732W        W42579  17.350   4.154   1.125  0.1083  0.0451 -0.1756
25733W        W42580  13.341  16.192   3.972  0.1373  0.1611  0.0011
25734W        W42581  13.011  10.889   0.368  0.4890  0.1091  0.3681
25735W        W42582  10.887  12.883   5.516  0.1256  0.1038  0.1244
25736W        W42583  15.118   2.771   4.590  0.4945 -0.2534  0.2307
25737W        W42584   8.390  16.739  11.351 -0.3322  0.0010 -0.1547
25738W        W42585  16.277  10.461  11.930 -0.0555  0.3507  0.3056
25739W        W42586   7.911   2.954  11.271  0.0199 -0.0651 -0.1226
25740W        W42587   5.235  12.326   2.929 -0.0475  0.0510  0.1944
25741W        W42588   0.831   5.986  12.967 -0.1926 -0.1692  0.0437
25742W        W42589   3.933   0.545  14.725  0.1310  0.1583  0.1288
25743W        W42590  17.241  15.086  13.686  0.2884  0.0397  0.1317
25744W        W42591  16.457   6.645  15.080 -0.0059 -0.0677  0.0756
25745W        W42592   3.733  14.087  11.487  0.1233 -0.2839  0.1334
25746W        W42593  18.289   4.970   5.111  0.3380  0.3066 -0.0207
25747W        W42594   5.891   4.094   1.125  0.0344 -0.1276 -0.2774
25748W        W42595  12.839   2.882  14.584  0.2889  0.3432 -0.3640
25749W        W42596   1.955   9.420   4.239  0.0970 -0.1857 -0.0688
25750W        W42597  17.636  14.838  13.955 -0.0296  0.1814  0.1037
25751W        W42598   3.919  17.974  13.675  0.1887  0.0802  0.2745
25752W        W42599  12.513   6.419   3.645  0.1159 -0.2154 -0.1448
25753W        W42600  10.983   2.613  11.432 -0.1972  0.1731  0.0682
25754W        W42601  18.317  16.691  14.486  0.0745 -0.3332  0.0840
25755W        W42602   5.863  17.245  14.852  0.0138  0.1499  0.0143
25756W        W42603   1.905  12.952  11.873 -0.4169  0.2930 -0.2374
25757W        W42604  11.655  13.068  12.264  0.1971 -0.0227  0.0825
25758W        W42605   0.771   1.911  11.478 -0.0702  0.1034  0.4451
25759W        W42606   7.368  18.322   4.065  0.0994 -0.0704  0.1649
25760W        W42607  14.814   9.461  11.270 -0.0236 -0.1229 -0.1931
25761W        W42608  17.370   5.107   2.322  0.0588  0.1091  0.0231
25762W        W42609  14.394   5.506  13.828  0.3692 -0.0508 -0.2843
25763W        W42610  11.107  14.633   2.428  0.0750  0.1710  0.2043
25764W        W42611   2.622  17.834   0.456 -0.2745 -0.1178 -0.0987
25765W        W42612   8.952  12.898  12.648 -0.1170 -0.0178  0.0676
25766W        W42613  18.019   9.208  15.398 -0.0034 -0.0030 -0.1924
25767W        W42614   2.053   5.367   0.709 -0.0328 -0.2289  0.1020
25768W        W42615  16.013   9.471   4.678  0.1955  0.0347  0.1399
25769W        W42616   5.321  16.132   1.988 -0.2151 -0.3037 -0.1913
25770W        W42617   0.858  16.895   4.038  0.0082  0.5264  0.1827
25771W        W42618  16.574  13.401  11.496  0.1673  0.0786 -0.1792
25772W        W42619  13.620  12.473  13.017  0.3026 -0.2444 -0.1153
25773W        W42620   3.602   9.829  15.891  0.2676  0.0524 -0.0913
25774W        W42621  11.868  11.629  13.824  0.0698 -0.0300 -0.0353
25775W        W42622  14.511  10.456  14.976  0.2549 -0.1879  0.1990
25776W        W42623   3.621  16.756   4.038 -0.0791 -0.4045 -0.1641
25777W        W42624  14.739  11.118   0.173  0.1628  0.0690 -0.0892
25778W        W42625   5.718   6.790  12.419  0.1233  0.3380  0.3579
25779W        W42626   6.487   1.004   2.366  0.1499  0.2108  0.4115
25780W        W42627  11.697   2.094  14.305  0.2409 -0.1025 -0.0774
25781W        W42628  10.795   0.730   4.883 -0.1904  0.1433  0.1859
25782W        W42629  12.167  13.099   5.143  0.1849 -0.1632 -0.1697
25783W        W42630  16.281  18.163   1.435  0.1621  0.1191  0.2534
25784W        W42631   4.250   8.032  12.140 -0.0617 -0.0182 -0.1126
25785W        W42632  11.490  12.826   4.631 -0.1128 -0.2627 -0.0742
25786W        W42633   3.823  13.289  14.425  0.1671 -0.2117  0.0092
25787W        W42634   2.037  15.758  16.163  0.0508  0.3426  0.3729
25788W        W42635  15.014  14.879   0.778  0.2060 -0.0920 -0.0234
25789W        W42636   4.254  13.373  12.557 -0.0115 -0.0271 -0.1440
25790W        W42637   4.012   6.201   3.854  0.2635 -0.3049 -0.0118
25791W        W42638   8.978   2.002   1.197 -0.1094  0.0700  0.0803
25792W        W42639  10.286   6.650   2.834  0.1568 -0.1820  0.2148
25793W        W42640  11.064  12.704  15.222 -0.1955  0.1531  0.1770
25794W        W42641   6.297   2.414  12.474  0.1185 -0.0297  0.2256
25795W        W42642   1.807   1.958   4.701 -0.2029 -0.1530  0.0465
25796W        W42643  11.354   4.835  14.533  0.0281 -0.3535 -0.2631
25797W        W42644   7.773   4.322   5.198  0.0371  0.1265 -0.0228
25798W        W42645  15.523  13.090   5.236 -0.1568 -0.1733 -0.2649
25799W        W42646  12.213  16.957  13.816 -0.1590 -0.0739 -0.3828
25800W        W42647  11.900   3.053  13.992 -0.1692 -0.0200  0.0818
25801W        W42648  17.186   8.342  13.985  0.0626  0.1165  0.0479
25802W        W42649  16.493   9.971  11.885 -0.0578  0.0138 -0.2146
25803W        W42650   1.893   8.753  13.701 -0.2791  0.0757 -0.1790
25804W        W42651   8.023  16.512  11.511  0.2439 -0.0783 -0.0901
25805W        W42652   4.457  16.903   1.926  0.0140  0.2758  0.2961
25806W        W42653   7.157   3.044   6.016 -0.0358  0.0146  0.0976
25807W        W42654  13.579   4.035   4.497  0.0718 -0.0919  0.1666
25808W        W42655  12.757   6.703   0.178 -0.2242  0.0678  0.0974
25809W        W42656   0.141   0.730   2.646  0.0551  0.0873 -0.0249
25810W        W42657  10.870   6.566  15.396  0.0601 -0.0706 -0.1009
25811W        W42658   0.920  16.898   1.851  0.0921  0.1885 -0.0254
25812W        W42659   1.668  17.621  15.819  0.1415  0.1661 -0.0347
25813W        W42660   3.263  15.580   2.983 -0.0072 -0.0344 -0.1300
25814W        W42661   2.057  14.707  14.305  0.0296  0.0718  0.0933
25815W        W42662   0.045   1.765   0.156  0.2112  0.1096 -0.1088
25816W        W42663  17.246  12.066   4.654  0.2710  0.1347 -0.1514
25817W        W42664  14.734   1.385  15.762 -0.0019 -0.0410  0.0705
25818W        W42665   2.020   9.144  15.048 -0.0152  0.0254 -0.2788
25819W        W42666   3.842  14.314  12.897 -0.4618  0.2750  0.1498
25820W        W42667   1.667  13.060   2.286 -0.2073 -0.2742 -0.0838
25821W        W42668   9.332  11.257  11.576 -0.0022 -0.3101 -0.0390
25822W        W42669  13.955   0.182  12.935  0.0959  0.1243 -0.0396
25823W        W42670   7.935  10.813   4.199  0.2896  0.3318  0.3273
25824W        W42671  10.157   4.149  15.361 -0.2404 -0.1016 -0.3782
25825W        W42672   6.479  14.767  14.673 -0.0648 -0.3053 -0.0768
25826W        W42673   6.042  13.748   5.292 -0.2625  0.0558 -0.2100
25827W        W42674  16.163   6.457   1.497 -0.1790  0.0412 -0.2421
25828W        W42675   8.021   8.238  11.920 -0.0492  0.1548  0.1208
25829W        W42676  15.162   0.214   4.394 -0.0164  0.1514  0.1490
25830W        W42677   5.934  11.049  13.881  0.0041 -0.2084 -0.0795
25831W        W42678   4.919   6.070  14.888 -0.0508  0.3227  0.1913
25832W        W42679   4.191  14.255  15.491 -0.0381  0.0497 -0.0357
25833W        W42680   0.290  12.772   0.049 -0.0052 -0.1576 -0.1556
25834W        W42681   2.947   7.459   5.284 -0.0386 -0.3344 -0.1433
25835W        W42682  16.840   9.953  10.714 -0.1373  0.0668  0.2773
25836W        W42683   6.182   1.822   4.860  0.0438 -0.0663 -0.3245
25837W        W42684   8.107  15.095  15.357 -0.0272 -0.3323  0.1488
25838W        W42685   5.185   5.159  14.929  0.0766 -0.4051 -0.0864
25839W        W42686  16.485  12.237   3.195  0.1518 -0.2127 -0.0308
25840W        W42687  17.753   7.700   2.330 -0.0007 -0.0407 -0.2322
25841W        W42688  17.411  12.838   4.935  0.0522  0.0269  0.1670
25842W        W42689  11.009   3.486  12.060  0.0018 -0.0077 -0.3740
25843W        W42690   1.335  12.401   3.034 -0.1470  0.0498 -0.0104
25844W        W42691  14.000   5.668   3.833  0.1773 -0.2425  0.0057
25845W        W42692  12.211  10.728  15.833  0.0585 -0.0335  0.1170
25846W        W42693   7.152   1.130   3.012 -0.0941 -0.0789  0.1270
25847W        W42694  13.173   6.459  11.913 -0.0796 -0.0975 -0.1023
25848W        W42695   7.644   3.071   0.687  0.1576 -0.2473 -0.2154
25849W        W42696  14.474   3.081   1.135 -0.0515  0.0027  0.0828
25850W        W42697   5.512   2.988   2.293  0.1504  0.0138  0.1692
25851W        W42698  13.426  17.300  11.382 -0.0087  0.0978  0.1785
25852W        W42699  14.891   0.565  15.638  0.1702 -0.0185  0.0845
25853W        W42700   9.165   8.435   5.240 -0.2926 -0.0066 -0.0942
25854W        W42701  15.126  13.365   4.409 -0.1546 -0.2077 -0.0140
25855W        W42702   1.988  18.096   3.183 -0.2543  0.3539 -0.2921
25856W        W42703   0.307   1.688  14.674  0.0331  0.1603 -0.4130
25857W        W42704   6.228   1.015   5.565 -0.3072 -0.1279  0.0830
25858W        W42705  14.057   3.914   2.858  0.1095 -0.0031 -0.1799
25859W        W42706   0.393   2.368  13.263  0.0111  0.0520 -0.1363
25860W        W42707  13.886   4.286   1.126  0.0797  0.0942 -0.2020
25861W        W42708   8.604   3.564  14.926 -0.4798  0.0909  0.1976
25862W        W42709   3.999  14.649  13.775 -0.0654 -0.0370 -0.0551
25863W        W42710  17.109  13.483  13.924 -0.1961  0.0114  0.1777
25864W        W42711   4.213   1.061  14.904  0.2498 -0.2891  0.4580
25865W        W42712   5.978   3.750  13.644  0.2488 -0.0073  0.0962
25866W        W42713  17.438   1.430  11.997  0.1376  0.1424  0.1356
25867W        W42714  12.713  14.737  15.004 -0.1589  0.3783  0.0571
25868W        W42715   6.508   5.202   6.184 -0.0920  0.1542  0.0923
25869W        W42716  12.891   4.839  12.280  0.1920  0.2717  0.1924
25870W        W42717  10.339  14.927   0.075 -0.3327 -0.2613  0.0107
25871W        W42718   3.068  17.234  16.121  0.0251 -0.1820  0.4290
25872W        W42719  12.132  11.968   4.245 -0.3289 -0.0991 -0.0802
25873W        W42720   3.032  12.919  16.135 -0.1693  0.1059 -0.0547
25874W        W42721  16.897  12.953  14.228  0.0504 -0.1852 -0.0217
25875W        W42722  14.885  10.691   3.293 -0.3817 -0.0539  0.0405
25876W        W42723  16.157   1.079  11.867 -0.0279  0.3619  0.1150
25877W        W42724  11.653   3.463   2.335  0.1050 -0.1385 -0.0114
25878W        W42725   1.881   0.429  11.275  0.0974  0.2478 -0.0173
25879W        W42726  14.263  17.727   4.280  0.2550  0.1688  0.0456
25880W        W42727  11.187   3.656   0.252 -0.1243 -0.0537  0.0201
25881W        W42728  12.198  10.519   1.946  0.2121 -0.3398 -0.1638
25882W        W42729   3.696  14.788   1.044  0.1272  0.0582 -0.0394
25883W        W42730  10.670   8.138   4.518  0.0743  0.2397 -0.1573
25884W        W42731  16.513  13.483   1.592 -0.3939  0.1494  0.0705
25885W        W42732  11.460   7.788   4.280  0.0939  0.0167 -0.1131
25886W        W42733  16.466  17.120   1.315  0.1500  0.1532 -0.0388
25887W        W42734   9.477   5.190  14.338  0.3625 -0.0818  0.0766
25888W        W42735   1.547  10.040  15.794  0.2445  0.2704  0.3044
25889W        W42736   8.291   1.274  14.490 -0.3949 -0.1386 -0.2406
25890W        W42737   5.423  10.385  14.465  0.0253 -0.2678 -0.1770
25891W        W42738  12.048   2.151  15.339  0.0110  0.0447  0.0845
25892W        W42739  15.039  11.219  11.832 -0.0425  0.0117  0.1584
25893W        W42740   4.834  17.640  13.794 -0.3782  0.3179  0.3536
25894W        W42741   5.577  11.160  11.374  0.2880 -0.2840  0.0569
25895W        W42742  14.345  16.493  14.202  0.1069 -0.0952 -0.2599
25896W        W42743   0.645  12.833  11.819 -0.0665 -0.2425 -0.3366
25897W        W42744   3.343   6.706  15.694  0.1210 -0.0918  0.2312
25898W        W42745  11.217  13.639  13.109  0.2324  0.0790 -0.2256
25899W        W42746  11.732  17.093   5.698  0.0891  0.0116  0.1607
25900W        W42747   7.745   1.772  15.437  0.2848  0.0417 -0.1999
25901W        W42748   5.831   6.258   5.530 -0.0763  0.0150 -0.0322
25902W        W42749  11.954   6.474   2.179 -0.1328 -0.2768  0.0009
25903W        W42750  16.428   2.476  13.783 -0.0131 -0.0554  0.0161
25904W        W42751  14.100   3.639   2.458 -0.2751 -0.0069  0.1300
25905W        W42752   9.966   1.360  13.002  0.1162 -0.0379 -0.2851
25906W        W42753   1.559   9.812  14.411  0.1869  0.0404  0.0978
25907W        W42754   8.425   6.753   2.068  0.2572  0.2351  0.2224
25908W        W42755   3.496   9.530   0.433 -0.3763 -0.0669  0.0744
25909W        W42756   6.915   0.365  12.537  0.2092 -0.1145 -0.1510
25910W        W42757  12.906   4.324   2.585 -0.3110  0.0683 -0.0746
25911W        W42758   3.833   4.059  12.855  0.0933  0.0767 -0.2723
25912W        W42759   7.415   5.919   0.233 -0.1103 -0.4212 -0.1667
25913W        W42760  12.266   4.157  15.131 -0.1139  0.0627  0.2679
25914W        W42761  17.042  16.053  14.868  0.0173  0.0401  0.0526
25915W        W42762   4.899  11.522  11.471 -0.0264  0.1383  0.0157
25916W        W42763  17.380  13.543   0.053 -0.0236 -0.1898  0.1445
25917W        W42764  17.342  10.533  11.738 -0.2424  0.0120 -0.0894
25918W        W42765  16.147   7.088   4.000 -0.2853  0.1091  0.0632
25919W        W42766   0.592   5.598   3.940 -0.0068 -0.0949 -0.3356
25920W        W42767   7.847  13.775  13.178 -0.1704 -0.3084  0.2133
25921W        W42768  17.920  15.349   4.799  0.0280  0.0191  0.1219
25922W        W42769  11.538  12.579   3.023  0.0034  0.1178 -0.1425
25923W        W42770  12.962   5.498   1.017  0.1526 -0.0072  0.1901
25924W        W42771  17.132  17.584   1.104  0.1510 -0.0162 -0.0339
25925W        W42772   5.467  10.315   2.442  0.2477  0.3477  0.1114
25926W        W42773   6.006  15.037   4.566 -0.1077 -0.2564  0.0469
25927W        W42774  12.468   0.485   5.077  0.1849  0.0872 -0.1040
25928W        W42775  15.398   6.838   2.393  0.1007  0.1527 -0.0305
25929W        W42776   0.723   4.103   1.395  0.1578 -0.0396  0.0571
25930W        W42777  13.418   5.917  14.103 -0.1325  0.0659  0.1344
25931W        W42778   7.155   0.678   0.086  0.0943  0.2071  0.0508
25932W        W42779   2.187  15.769  12.171  0.1483 -0.1358  0.1002
25933W        W42780   7.814  10.366   3.481 -0.2211  0.1312 -0.1327
25934W        W42781  15.334  12.460   2.040 -0.0035  0.2012 -0.0506
25935W        W42782  12.255  16.003   5.049  0.0876 -0.0091  0.0777
25936W        W42783   0.464  15.980  14.432  0.0293  0.1170  0.3409
25937W        W42784   3.454  15.789   0.714 -0.0043  0.1047 -0.1441
25938W        W42785  11.777   5.820  14.049 -0.0084 -0.0397  0.0040
25939W        W42786  16.956  13.012  15.541  0.4526 -0.0686 -0.0863
25940W        W42787  12.841   7.641   1.186 -0.1067 -0.1786 -0.1996
25941W        W42788  17.680   4.075   3.532  0.2705 -0.1230  0.0663
25942W        W42789   9.032  17.899   0.982  0.2225  0.2985 -0.0911
25943W        W42790  14.802   3.062   2.522 -0.0552  0.1862  0.1594
25944W        W42791  15.277   3.613   1.130 -0.2466 -0.0344 -0.1055
25945W        W42792   0.818   7.005   2.862 -0.0073  0.0347 -0.3559
25946W        W42793  14.589  10.848  15.733 -0.0408  0.1854  0.0892
25947W        W42794  10.642  16.383   0.466 -0.2261  0.0736  0.1454
25948W        W42795   6.630   5.831  15.357  0.1667 -0.2502  0.2280
25949W        W42796  17.260  10.457   1.475  0.1455 -0.0486  0.0837
25950W        W42797   3.299  16.898   3.658  0.0144  0.2629  0.1150
25951W        W42798   9.377   6.116   3.964 -0.0711  0.0115 -0.4166
25952W        W42799  17.696  10.869  12.675  0.0431  0.2301  0.2209
25953W        W42800   2.517  11.631  11.607  0.0679  0.1673 -0.0763
25954W        W42801   9.648  10.566  14.493 -0.1345 -0.0271 -0.2143
25955W        W42802   6.529  14.520  10.867  0.1462 -0.0313  0.1892
25956W        W42803   9.393   1.366  16.084 -0.0048  0.1017 -0.0828
25957W        W42804  17.319   6.753   1.482  0.0492  0.0019 -0.1821
25958W        W42805   4.187   4.045  13.792  0.3161 -0.1998  0.2397
25959W        W42806  15.781  12.603  12.655 -0.2948 -0.1584 -0.1154
25960W        W42807   6.474   9.385  12.471  0.0399  0.2090  0.0891
25961W        W42808  17.972   2.680   4.025  0.3005 -0.0945 -0.2854
25962W        W42809   6.913   1.894   6.266 -0.0441  0.1507 -0.0208
25963W        W42810  16.034   2.500   5.790 -0.0291  0.0153 -0.4727
25964W        W42811  11.541  10.048   0.177 -0.0424  0.0056 -0.0250
25965W        W42812   1.932  11.065   5.854 -0.0003 -0.2896 -0.0417
25966W        W42813   1.299   3.476  13.951  0.3188  0.0676  0.2808
25967W        W42814  13.700   8.151  13.689 -0.0584 -0.0267 -0.0643
25968W        W42815   6.926  13.570   1.262  0.4401  0.2996  0.0624
25969W        W42816  13.043   5.783   0.616  0.2958 -0.2908  0.1865
25970W        W42817   9.970  12.289  15.939 -0.1694  0.0586 -0.0630
25971W        W42818  18.246   8.496  12.885 -0.1099 -0.0627 -0.2005
25972W        W42819   0.911   3.797   5.097  0.2751  0.1280  0.0236
25973W        W42820   8.791   9.715  13.286  0.0797  0.1105 -0.1624
25974W        W42821  11.533   9.302   4.382  0.0434 -0.0051  0.0520
25975W        W42822   5.971   7.201   4.817  0.0571  0.0330  0.1199
25976W        W42823   0.533   2.543  14.528  0.0617 -0.2819  0.0733
25977W        W42824   0.909   0.561  10.982  0.0252 -0.3602  0.0753
25978W        W42825   0.753   5.067   1.365  0.1045  0.1117 -0.1192
25979W        W42826   5.434   4.047  13.826 -0.0572 -0.1079  0.1360
25980W        W42827  16.281   0.947  12.714  0.1210  0.2187  0.1950
25981W        W42828   2.558  16.437  14.487 -0.1419  0.0294 -0.0746
25982W        W42829   7.337  13.912   2.176 -0.0965 -0.1662 -0.1329
25983W        W42830  10.693   6.100   3.213 -0.1042  0.0515  0.0382
25984W        W42831  12.822   7.542  13.723 -0.0482  0.0134  0.0960
25985W        W42832   9.552   5.405   4.538  0.0683  0.3798  0.1391
25986W        W42833  15.899  15.062   0.407 -0.3990  0.1204  0.0373
25987W        W42834   3.349  17.482   3.425  0.2054 -0.0938 -0.1614
25988W        W42835  11.352   7.837   1.575 -0.2287  0.2679  0.2845
25989W        W42836   8.276   5.965  15.787  0.1549 -0.1488 -0.0641
25990W        W42837   7.202   1.121  12.221 -0.0355  0.1993 -0.0774
25991W        W42838  12.241  17.363  12.578 -0.1857  0.3205  0.0024
25992W        W42839  15.090   9.239   1.072 -0.0438  0.2583  0.4098
25993W        W42840   6.965  12.671  14.022 -0.2825 -0.1106 -0.2069
25994W        W42841   4.539  10.521  14.173  0.0583  0.0783  0.0153
25995W        W42842   5.310  14.459   2.503  0.0180  0.1503  0.2063
25996W        W42843   0.566  18.060   4.497  0.0789 -0.0773 -0.2951
25997W        W42844   3.871   9.602  14.403  0.1592 -0.0135  0.0412
25998W        W42845  16.599  16.888  11.654 -0.0967 -0.2184 -0.1523
25999W        W42846   9.925  10.414   4.452  0.0649 -0.0421  0.0739
26000W        W42847  10.043  12.689   2.802 -0.1618 -0.1344  0.3234
26001W        W42848  14.122   9.240   3.397 -0.1115  0.0932 -0.0342
26002W        W42849   9.522  18.072  11.256 -0.0884  0.2885 -0.0581
26003W        W42850   0.177   3.943  16.173  0.1864  0.4073 -0.1733
26004W        W42851   0.012  13.765   5.256  0.2168 -0.0425 -0.0980
26005W        W42852  13.889  17.872  14.532 -0.1134 -0.0638 -0.2069
26006W        W42853   9.562  12.329   3.403 -0.2467  0.1583 -0.0110
26007W        W42854   0.247   4.630   0.044  0.1325 -0.4617  0.2798
26008W        W42855  17.302  17.394   2.374  0.2351 -0.1144  0.0528
26009W        W42856   9.891   6.497   2.084  0.1222  0.2748 -0.0614
26010W        W42857   0.537   0.553  15.447 -0.0112  0.1688  0.4916
26011W        W42858   2.601  17.405  15.425 -0.0309 -0.1685 -0.0321
26012W        W42859  14.220  13.621   1.123  0.4327  0.1887 -0.0407
26013W        W42860  13.659  15.067  13.643  0.1565  0.1542  0.1886
26014W        W42861  10.559  17.486  13.535  0.3020 -0.2005 -0.0626
26015W        W42862   5.975   6.684   3.668 -0.0621  0.1877  0.0066
26016W        W42863   5.815  16.978  12.514 -0.0286 -0.3563 -0.0362
26017W        W42864  12.444   0.285  15.456  0.0997 -0.1135 -0.1197
26018W        W42865  15.694   7.131   5.213 -0.0521 -0.2059 -0.1746
26019W        W42866   1.450   3.113  14.293 -0.0292  0.2169  0.0702
26020W        W42867  15.255   5.446   0.219  0.0381 -0.1874 -0.2159
26021W        W42868  12.786   3.759  15.559 -0.2243 -0.0316  0.1030
26022W        W42869  14.554   8.451   0.923  0.0448  0.2090  0.0379
26023W        W42870   1.532  14.245  12.795  0.0346 -0.0383 -0.0667
26024W        W42871   8.916   7.973   2.241  0.3924 -0.1509 -0.1572
26025W        W42872   4.655  14.737  12.331  0.2995 -0.3598 -0.1379
26026W        W42873  12.552  14.009   1.888 -0.1641  0.1883  0.1330
26027W        W42874   3.704  14.324   4.432 -0.2863  0.0470  0.2342
26028W        W42875   9.844  10.713  15.572 -0.0013 -0.0770 -0.0069
26029W        W42876   2.134  12.359  13.328  0.0284  0.0355 -0.0575
26030W        W42877   7.704   2.398  16.184 -0.0096  0.2488  0.0990
26031W        W42878  13.841   3.342   3.564 -0.0111 -0.1826  0.0279
26032W        W42879   0.366   7.763   2.948  0.1883 -0.0416  0.2187
26033W        W42880  16.710  12.232   1.102 -0.2638  0.0993 -0.1715
26034W        W42881   6.590  13.655   4.666  0.0337 -0.2228 -0.3115
26035W        W42882  17.163  14.617   1.017  0.1228 -0.0901  0.1256
26036W        W42883   3.212   6.070  12.347 -0.0845 -0.2107 -0.1365
26037W        W42884  13.792   2.616  16.084 -0.0486  0.2393  0.1283
26038W        W42885  16.897   3.975   0.938 -0.2656  0.0098 -0.0420
26039W        W42886   5.443  12.684  11.683 -0.1828  0.1265  0.0846
26040W        W42887   4.895   5.210  13.777 -0.1485 -0.1437  0.1868
26041W        W42888   2.114   7.711   5.109 -0.0891 -0.0148  0.0968
26042W        W42889   5.856  11.272   2.368 -0.0307  0.0562 -0.1063
26043W        W42890   8.108   1.469  14.043  0.0193 -0.0140 -0.2657
26044W        W42891   8.190   3.095  16.026 -0.2972 -0.0297  0.0547
26045W        W42892   3.364   9.971   1.962 -0.0809  0.1236 -0.1475
26046W        W42893  13.474   9.146   3.237 -0.1202 -0.0289 -0.0229
26047W        W42894  17.041   2.455  14.331  0.1169  0.2025  0.0266
26048W        W42895  10.628   6.459  14.499 -0.1201  0.1857  0.0102
26049W        W42896  12.881   4.534  11.925 -0.1048  0.2849 -0.0985
26050W        W42897   0.954  10.292   3.188 -0.0371  0.1318  0.0121
26051W        W42898  11.019  13.094   4.532 -0.1562  0.2623  0.0902
26052W        W42899  17.278   5.389   4.133 -0.1119  0.0759 -0.1031
26053W        W42900  11.063   9.449   4.601 -0.2794 -0.0487 -0.3526
26054W        W42901   7.469   0.212   1.053 -0.0479 -0.1556 -0.1733
26055W        W42902  11.151   1.362   2.703  0.0853  0.1845  0.0156
26056W        W42903   3.922  12.140  13.808  0.1076 -0.0222  0.3622
26057W        W42904  13.612  10.374  13.260  0.0870  0.1968 -0.0990
26058W        W42905   9.315  13.544  15.205  0.0992  0.1597 -0.0635
26059W        W42906  15.743   2.192  15.906  0.0781 -0.0031  0.1072
26060W        W42907   1.686  18.142  14.350 -0.0701  0.1540 -0.1856
26061W        W42908  14.570  10.746   4.609  0.2798  0.2557 -0.1852
26062W        W42909   2.153  17.591  14.891 -0.3180  0.3397  0.0408
26063W        W42910   9.123   4.071  15.632 -0.0520 -0.0892  0.0235
26064W        W42911  12.417   8.658  15.974 -0.3018 -0.2477  0.0346
26065W        W42912  13.039   1.140   5.231  0.1494 -0.3646 -0.0543
26066W        W42913   1.744   8.425   5.643 -0.3452 -0.1344  0.0645
26067W        W42914  14.181   1.189   2.317  0.0163 -0.2385 -0.4102
26068W        W42915  17.970  14.511  11.152  0.1919 -0.1652  0.0036
26069W        W42916   1.630  15.510  14.596  0.3328  0.1173 -0.1179
26070W        W42917  12.006   7.601   2.874 -0.2144  0.3540  0.1217
26071W        W42918   0.142  10.891   3.336 -0.0664  0.3142  0.1274
26072W        W42919  16.553  12.206  15.787 -0.2311  0.0618  0.1776
26073W        W42920  13.016   0.372   0.995 -0.1358  0.1200  0.1357
26074W        W42921   5.358  15.840  13.710  0.0499 -0.0735 -0.0412
26075W        W42922  13.549   3.288   3.079  0.2541 -0.0947  0.0275
26076W        W42923  11.571   4.567   3.427 -0.1530 -0.0355 -0.1107
26077W        W42924  10.166  13.089  13.648  0.0700 -0.0310 -0.0858
26078W        W42925   8.804  10.685  12.150  0.1095  0.2004  0.3392
26079W        W42926  10.899   0.042   0.234  0.2025  0.0120  0.1603
26080W        W42927   9.643  13.963   1.810  0.2038  0.3658  0.0628
26081W        W42928  12.358   2.931   2.009  0.0073  0.4325 -0.1325
26082W        W42929   9.762   4.097  11.951 -0.1165  0.1538  0.1046
26083W        W42930   9.775   7.439  15.722  0.2089 -0.0793 -0.1570
26084W        W42931  13.706   2.642  11.481  0.3636 -0.1648  0.0225
26085W        W42932   0.766  16.831  14.370  0.1366 -0.1072  0.2747
26086W        W42933   2.480  15.096   0.121 -0.1396  0.0138 -0.1927
26087W        W42934  14.904   3.042  12.987 -0.0049  0.1800  0.3171
26088W        W42935  16.777   9.810   5.447  0.0427  0.1634 -0.0900
26089W        W42936  16.440   5.872  15.889 -0.0033 -0.2360 -0.0584
26090W        W42937   3.227   5.393   2.278  0.1417 -0.4851 -0.0909
26091W        W42938   1.873  15.728  12.677  0.0113 -0.2565  0.5602
26092W        W42939   6.545   0.475   4.226  0.0945 -0.1315  0.1381
26093W        W42940   7.654  11.944   6.180  0.1030  0.1721 -0.2956
26094W        W42941   5.483  16.794   0.193 -0.1915 -0.2521 -0.2615
26095W        W42942   7.507   9.322   1.916  0.0744 -0.0291  0.0908
26096W        W42943   4.086   5.636  11.433  0.0274 -0.0873 -0.1381
26097W        W42944  10.292   8.631  13.018 -0.1005  0.0001  0.3067
26098W        W42945   5.244   1.378   1.241 -0.2591 -0.1998  0.0715
26099W        W42946   3.980  10.410   1.140 -0.1711 -0.0073 -0.1075
26100W        W42947  14.713  17.594   2.838  0.4011  0.1206  0.0402
26101W        W42948  13.730  11.856  10.974  0.1150  0.0026 -0.0221
26102W        W42949   8.015   9.680   4.945 -0.0397  0.0494 -0.0744
26103W        W42950   9.783  10.962  14.166  0.3091  0.1466  0.3025
26104W        W42951  16.640  10.597  15.010  0.1434 -0.1815  0.2615
26105W        W42952  13.171  16.083  12.758 -0.0513  0.1976 -0.1164
26106W        W42953   1.157   2.450   0.990  0.0582  0.1109 -0.1327
26107W        W42954   6.264   5.137  11.571 -0.1909 -0.0254  0.0759
26108W        W42955  11.679  11.395   0.502 -0.2209 -0.2187 -0.0508
26109W        W42956   1.332   7.885   4.065 -0.6074 -0.0508 -0.3882
26110W        W42957   5.336   4.203  11.972  0.0621  0.0126 -0.3924
26111W        W42958  18.091  10.495  10.473  0.0069 -0.0066 -0.2927
26112W        W42959  11.872   2.280  13.773 -0.3584 -0.3027  0.3965
26113W        W42960   5.082  12.710  11.348  0.0754 -0.1981 -0.2223
26114W        W42961  16.301   5.240   1.889 -0.2907 -0.0403  0.1102
26115W        W42962  13.050  15.496   2.817 -0.1015 -0.0312  0.0400
26116W        W42963  10.951   0.735   0.898 -0.1739 -0.4396  0.1293
26117W        W42964   6.730  12.346   0.654 -0.1870 -0.0262 -0.1322
26118W        W42965   7.963  11.840   2.338 -0.1919  0.2394 -0.2860
26119W        W42966   3.063   3.952   3.962  0.1063 -0.0455  0.1577
26120W        W42967   0.430  10.461   4.103 -0.2111  0.1681  0.1937
26121W        W42968  12.014  10.650  13.979  0.1624 -0.0130 -0.0830
26122W        W42969   0.373   2.588   3.339 -0.0990 -0.0953 -0.2163
26123W        W42970   9.010   4.538  13.928 -0.2285 -0.1161 -0.1074
26124W        W42971  16.330  16.151  15.307  0.1848 -0.0526 -0.2419
26125W        W42972  14.821  15.994   0.565  0.3588 -0.0259 -0.3344
26126W        W42973   9.109  15.925   2.339  0.1073  0.2072 -0.0169
26127W        W42974  10.280  14.712  13.421 -0.1114 -0.3662 -0.4197
26128W        W42975   2.640  13.822   2.234 -0.0158 -0.0939  0.0703
26129W        W42976   1.502  15.262   3.761  0.0048 -0.0259 -0.2431
26130W        W42977  13.649  14.966   1.605  0.2162 -0.1817  0.2190
26131W        W42978   2.120  17.842   4.705 -0.1509 -0.0461  0.2422
26132W        W42979   0.729  10.278   1.747 -0.3043  0.1892 -0.1472
26133W        W42980   4.205  16.875  15.968  0.1612  0.0886  0.1552
26134W        W42981   9.963  13.206   0.483 -0.0105 -0.0778  0.0340
26135W        W42982   0.054   3.830  10.251  0.0155  0.2540  0.1744
26136W        W42983   8.809  18.298   5.714 -0.0617 -0.0954 -0.4199
26137W        W42984   7.859   7.182   1.540 -0.0548 -0.0111  0.1536
26138W        W42985  12.558   9.171  14.552 -0.3442 -0.1220 -0.1415
26139W        W42986  16.475   6.935  14.634 -0.1178  0.0514 -0.2607
26140W        W42987  14.390   6.276   2.667 -0.0020 -0.0810 -0.1238
26141W        W42988   0.318  18.311   2.701 -0.2671  0.0321  0.0473
26142W        W42989   6.613  14.826   3.455  0.0270  0.1374  0.0604
26143W        W42990   6.477   0.971   3.777  0.1740  0.3409  0.0197
26144W        W42991   2.052   4.791   5.370  0.2544 -0.0626  0.2860
26145W        W42992   7.992  12.171   1.734  0.1368 -0.1505 -0.0002
26146W        W42993   7.852  18.209  15.899  0.0370  0.2071 -0.0531
26147W        W42994  15.110  11.719  12.302  0.2809 -0.3434  0.2176
26148W        W42995   7.432  14.191   1.506  0.0731  0.2421  0.1018
26149W        W42996  10.877  12.502   2.242  0.0617 -0.1053 -0.0729
26150W        W42997  11.023  10.129  15.193 -0.0295 -0.0458 -0.2544
26151W        W42998   1.268   7.514  13.370 -0.1564  0.1800  0.1596
26152W        W42999  14.821  11.039  12.975 -0.3142  0.0360  0.0487
26153W        W43000   1.709  12.166  14.108 -0.0371 -0.1618 -0.0055
26154W        W43001   7.402  11.104  13.352 -0.1530  0.0319  0.1039
26155W        W43002  12.357  15.968  15.409  0.0675 -0.1030 -0.1857
26156W        W43003  17.453   2.213  13.553 -0.0504 -0.4438  0.0986
26157W        W43004  17.801   9.524  12.636 -0.2964 -0.0274  0.1712
26158W        W43005  15.050   2.058   1.247 -0.0504 -0.2875 -0.2343
26159W        W43006  14.787   7.586   2.832 -0.0808  0.3366 -0.1932
26160W        W43007   6.045   2.148  14.337  0.1846  0.1766 -0.0217
26161W        W43008   2.514  15.782  11.274 -0.1239 -0.3051  0.2513
26162W        W43009   6.132  18.190  13.834 -0.1118  0.0408  0.0602
26163W        W43010  15.374  15.645   5.232  0.0181  0.1783  0.2908
26164W        W43011  10.169  15.916   0.997 -0.0697  0.0920  0.3654
26165W        W43012   1.758  11.598  14.758  0.1002  0.0512 -0.1226
26166W        W43013   9.568   2.595   1.199  0.0469  0.2068  0.0689
26167W        W43014   5.031   6.828   4.751  0.1500  0.1185  0.0300
26168W        W43015  10.164  11.357   2.721 -0.2737 -0.0810  0.1188
26169W        W43016   3.365   6.269  14.231  0.0065  0.0042  0.0164
26170W        W43017  14.932   4.045  12.735 -0.0936  0.0808  0.0523
26171W        W43018   3.061  17.939   1.957  0.0496  0.1772 -0.1821
26172W        W43019   7.749  17.985   4.259 -0.1622  0.3663  0.1398
26173W        W43020  10.725  10.456  12.197  0.1971 -0.0683  0.2018
26174W        W43021   8.624   6.934  12.452 -0.2117 -0.2604 -0.1706
26175W        W43022   7.666   8.973   0.077  0.0224  0.3611 -0.2860
26176W        W43023   0.792   0.731  12.851  0.1339  0.1815 -0.1019
26177W        W43024   5.629  17.487   3.146 -0.1663 -0.2315 -0.1126
26178W        W43025  18.152  13.080   0.026  0.2048  0.0090 -0.0944
26179W        W43026  17.556   3.919  15.348  0.2030  0.0515  0.0579
26180W        W43027   7.679   6.437   1.275  0.0007  0.0353 -0.2050
26181W        W43028   0.650  10.082  13.630 -0.3373  0.0532 -0.0896
26182W        W43029  15.687   9.197   1.799  0.0537 -0.1431  0.3641
26183W        W43030   0.870  15.256   5.016  0.2012 -0.0115 -0.0581
26184W        W43031  10.044   1.670  12.158  0.2801  0.0702 -0.0193
26185W        W43032   6.914   0.587   4.622  0.0753 -0.0275  0.2597
26186W        W43033  15.940   7.504  13.576 -0.1645 -0.2185  0.0674
26187W        W43034   5.542  14.867  11.479 -0.3812 -0.1820 -0.1790
26188W        W43035   4.760  15.614  12.732 -0.0449 -0.1070 -0.5952
26189W        W43036  10.910  13.605   3.732 -0.1355 -0.2485 -0.3282
26190W        W43037  16.411   8.639  16.133 -0.0708 -0.1815 -0.1925
26191W        W43038  15.126   2.740  12.502 -0.3465 -0.0160 -0.2270
26192W        W43039  13.609  12.225   3.991  0.0596  0.1766 -0.2710
26193W        W43040   1.341  11.878  15.079 -0.3484  0.0883 -0.3541
26194W        W43041  17.231  15.595   2.990 -0.0906  0.0321 -0.2596
26195W        W43042   0.449   5.752   4.904  0.0526 -0.1585 -0.0507
26196W        W43043   2.017   2.254  11.485 -0.1599 -0.0920 -0.0494
26197W        W43044  11.699  18.206   0.608  0.2926 -0.0473  0.1727
26198W        W43045  17.302   4.178  11.362 -0.0289  0.1780 -0.0117
26199W        W43046  10.744   1.522   2.427  0.0688 -0.3076 -0.1459
26200W        W43047  16.914  12.358   3.984  0.3156 -0.0157  0.0509
26201W        W43048   8.013  14.331  11.603  0.2340 -0.0627 -0.0041
26202W        W43049  17.569  13.819  12.516  0.2687  0.0330 -0.1852
26203W        W43050  18.226  10.930   0.125  0.1392  0.0018  0.2203
26204W        W43051   0.601   3.723   2.704  0.1598  0.1248 -0.1131
26205W        W43052   0.523   3.598  15.180 -0.2466  0.0271  0.2863
26206W        W43053  12.330   2.908  14.714 -0.0470 -0.2584 -0.0163
26207W        W43054   3.400   3.623   0.694  0.0581 -0.1252 -0.1446
26208W        W43055   9.358   4.808  16.056  0.0726  0.0206  0.2474
26209W        W43056   9.278  10.746   5.189  0.0281 -0.0293 -0.0750
26210W        W43057   4.144   0.898  15.933 -0.0063  0.0597  0.0482
26211W        W43058   6.097   7.340   1.135  0.0343  0.1944  0.2479
26212W        W43059  12.547  16.991  12.550  0.0261  0.1928  0.2249
26213W        W43060   6.514   9.096  11.030 -0.0717  0.0178 -0.0824
26214W        W43061   7.470   1.086  16.023 -0.1383 -0.1177  0.0078
26215W        W43062   0.733  15.218   3.362  0.0283 -0.0961  0.0061
26216W        W43063  11.386  13.768   3.659  0.1520  0.0018 -0.1403
26217W        W43064   4.348   9.548   1.714  0.0656 -0.0250  0.1260
26218W        W43065  17.817   1.269   4.159 -0.6266  0.1262 -0.0518
26219W        W43066  16.979   5.002  15.207 -0.1091 -0.1030 -0.0318
26220W        W43067   8.533   7.398   4.853  0.1957 -0.0279 -0.0106
26221W        W43068  16.622   3.487   3.685 -0.0229  0.1783  0.0287
26222W        W43069  14.951  10.396  14.461 -0.1078  0.1574 -0.0990
26223W        W43070  11.676   9.744   3.973 -0.1904 -0.1087 -0.1494
26224W        W43071  10.946  15.962   1.554 -0.3710 -0.1244 -0.3288
26225W        W43072  13.358   5.511   2.994 -0.0862  0.0881 -0.0902
26226W        W43073   4.602   9.246   0.865 -0.2692 -0.1035 -0.1391
26227W        W43074  12.199   9.845   4.252  0.3263  0.1703 -0.5815
26228W        W43075  12.121   3.368  11.486 -0.1626  0.1150 -0.1056
26229W        W43076   2.138   0.792   4.283 -0.0885 -0.2329  0.2102
26230W        W43077   4.856   1.359   2.255  0.2545 -0.0165  0.0095
26231W        W43078   9.413  17.285   5.633 -0.1864 -0.0924  0.1400
26232W        W43079  12.738  14.345   2.217 -0.2352 -0.2894 -0.1103
26233W        W43080  16.889   9.048  14.018 -0.2405 -0.1296  0.0460
26234W        W43081  16.654  15.529  12.876  0.1025  0.0199 -0.2009
26235W        W43082  16.217  11.871  11.442  0.0290  0.0409  0.1679
26236W        W43083   7.122  18.119   5.168  0.0162 -0.2716  0.2626
26237W        W43084   7.857   8.400   2.167  0.3247 -0.0116 -0.1434
26238W        W43085  11.397  11.347   4.705  0.1024 -0.0080 -0.1146
26239W        W43086   6.058   8.663   0.030 -0.4114  0.0333  0.0481
26240W        W43087  17.736  12.134   3.123  0.2848 -0.2133 -0.0994
26241W        W43088  12.041  11.390  13.384  0.2814  0.0391  0.1337
26242W        W43089   3.219  15.466   4.557  0.3075  0.0030  0.3224
26243W        W43090  12.787  12.672  13.716  0.2636  0.3997  0.1136
26244W        W43091   2.028   6.949  14.834 -0.3165  0.2380  0.3596
26245W        W43092  12.823   0.633  11.899 -0.0307  0.1611  0.0462
26246W        W43093  18.156  14.010  16.111  0.2167  0.0653  0.1627
26247W        W43094  16.795   9.783   5.937  0.0260 -0.1580  0.1632
26248W        W43095   4.253   9.245   6.207  0.1043 -0.0642 -0.2317
26249W        W43096  14.662   8.007   2.651  0.0057 -0.1005  0.0007
26250W        W43097  13.902   0.673  11.709  0.1044  0.1349 -0.1166
26251W        W43098  15.578  13.620  13.077 -0.1704 -0.2352 -0.1929
26252W        W43099  13.808  17.277   0.952 -0.1205 -0.0609  0.0168
26253W        W43100  13.165   2.985   4.712  0.2064 -0.0055 -0.0125
26254W        W43101   0.712   5.360  15.354 -0.0373 -0.2709  0.0561
26255W        W43102   7.292   8.952  13.314  0.1204  0.2609 -0.1603
26256W        W43103  11.524   1.339   0.617  0.0746  0.0688 -0.2012
26257W        W43104   1.942  11.009   1.262  0.1402  0.1177 -0.1700
26258W        W43105  18.158   5.193   2.986 -0.0324 -0.2149  0.1321
26259W        W43106  15.369   0.366  12.778  0.0007 -0.2093 -0.3929
26260W        W43107   7.099  13.380  15.589  0.1857 -0.0700 -0.1079
26261W        W43108   6.135   8.892   2.553 -0.1887 -0.3053  0.0113
26262W        W43109   7.451   4.325   2.416 -0.1388 -0.0720 -0.0109
26263W        W43110   4.835   7.378  14.489  0.1767  0.0280 -0.0413
26264W        W43111   6.823   2.636  11.133  0.0240  0.0684  0.2448
26265W        W43112   9.002   8.449  11.817  0.1101  0.0262  0.0101
26266W        W43113   4.320   4.056   5.335  0.0841  0.3850  0.1925
26267W        W43114   6.419  12.501   4.952  0.3081  0.2216 -0.1531
26268W        W43115  15.868   5.476  11.074 -0.1342  0.2339  0.1040
26269W        W43116   2.006  12.293  12.845  0.2740 -0.2500 -0.1339
26270W        W43117   3.048  16.340   1.303  0.3968  0.1258 -0.1312
26271W        W43118   1.404   6.623  13.356  0.3070  0.1300 -0.1310
26272W        W43119   9.125  12.187   4.133  0.0667  0.2542  0.0680
26273W        W43120   2.447   9.584   3.877  0.2759 -0.0158  0.2290
26274W        W43121  15.746   6.369   0.067  0.1954 -0.0940  0.3412
26275W        W43122  13.950  10.764  13.264  0.3200 -0.1170 -0.0421
26276W        W43123  14.606   1.178   1.430 -0.1734  0.4861  0.4224
26277W        W43124   4.045  10.353   0.262 -0.0399  0.2244  0.0070
26278W        W43125   4.264  15.999  13.674 -0.0849  0.1479 -0.1094
26279W        W43126  13.230   7.267   4.514  0.1496  0.2567  0.1291
26280W        W43127   7.375   9.730   4.867  0.2708 -0.0498  0.0363
26281W        W43128   1.569   4.351  15.038  0.0206 -0.0821 -0.4197
26282W        W43129   8.120  13.423  15.611  0.1325  0.1249 -0.2576
26283W        W43130   7.378   4.584   3.168  0.1908  0.1384  0.0101
26284W        W43131  14.224   1.251   4.978 -0.0638  0.0442  0.0349
26285W        W43132  11.258   9.819   4.347  0.0749  0.0584 -0.1866
26286W        W43133   9.987   6.748  12.863 -0.1028 -0.0330  0.2615
26287W        W43134  16.790   1.622  11.306 -0.0573  0.1111 -0.1011
26288W        W43135  18.216   5.052   1.746  0.2561  0.1669  0.3818
26289W        W43136   0.648   4.815   3.754 -0.0772 -0.1314 -0.1048
26290W        W43137   4.527   8.019   6.288  0.1037 -0.3093  0.0796
26291W        W43138  15.172   6.620   0.626 -0.0716 -0.2528 -0.0819
26292W        W43139  13.480  14.702   4.711 -0.1037  0.0760 -0.0675
26293W        W43140   0.469  11.225   0.776  0.1268  0.0705 -0.2431
26294W        W43141  16.520  12.514   2.760 -0.2044 -0.2460 -0.1307
26295W        W43142   3.109   3.122   2.517 -0.3187 -0.0962  0.0352
26296W        W43143  15.165   3.403  14.988 -0.1556 -0.0908  0.0189
26297W        W43144   2.976   0.068   5.238  0.1227  0.2513  0.1129
26298W        W43145   8.572   7.376   3.653 -0.3156 -0.0663  0.2420
26299W        W43146   5.988   3.243   2.043  0.0612 -0.0709 -0.2608
26300W        W43147   7.197  16.184  15.681 -0.4260 -0.1346 -0.1821
26301W        W43148   6.209  10.261   3.310  0.0708 -0.1978  0.0134
26302W        W43149   7.169  11.543   3.050 -0.0584  0.2651 -0.2906
26303W        W43150  15.952   6.409  12.027 -0.1172 -0.3831 -0.4071
26304W        W43151  12.473   5.537   1.100  0.1506  0.0330 -0.0204
26305W        W43152   2.634   8.145   4.622 -0.1330 -0.2345  0.2562
26306W        W43153   3.435  11.606   5.500 -0.0112  0.0189  0.0408
26307W        W43154  18.020   3.446  13.600  0.0169  0.2654  0.0307
26308W        W43155  10.008   2.852   2.125 -0.1611 -0.1255  0.1619
26309W        W43156   4.166   4.779  14.967  0.1049  0.0706 -0.0746
26310W        W43157   1.447  16.749  11.731 -0.1580 -0.2103 -0.1218
26311W        W43158   1.542   2.351  16.186  0.2282  0.1632  0.3475
26312W        W43159  14.331  17.378  15.778 -0.1686  0.2018 -0.3349
26313W        W43160   5.113  17.724  15.654 -0.1007  0.3617  0.0033
26314W        W43161   5.745  15.601   0.107 -0.0863  0.1709  0.0066
26315W        W43162  18.158  16.949  14.054 -0.0277  0.0919  0.0673
26316W        W43163  14.246   5.912  15.145  0.1742  0.0084  0.2005
26317W        W43164   3.296  11.877  11.302  0.0687  0.0272  0.1928
26318W        W43165  15.743  15.125   1.748 -0.3141 -0.3248  0.3855
26319W        W43166  13.563  17.999  13.931  0.2304  0.0348  0.3107
26320W        W43167   5.386  11.190  14.110  0.1465  0.4689 -0.1043
26321W        W43168   9.008  13.070  13.988 -0.3263 -0.0645 -0.0080
26322W        W43169  17.510  18.265   2.323  0.0676  0.1612  0.2447
26323W        W43170   6.104  16.349   4.349 -0.0324 -0.1045  0.1732
26324W        W43171  11.763  13.907   5.083  0.2158 -0.0592  0.1036
26325W        W43172   1.879  16.043   3.492  0.0166  0.1415 -0.0097
26326W        W43173  10.637  15.331   0.316 -0.1143 -0.1572  0.1331
26327W        W43174   6.959   6.733   5.429  0.1214  0.0059 -0.1190
26328W        W43175  11.328  13.542   0.747 -0.3233  0.1387  0.3416
26329W        W43176   5.172  17.259  11.486  0.0682  0.3474  0.1278
26330W        W43177  13.719  17.125  13.269  0.0085  0.2189  0.1465
26331W        W43178   3.571   3.765   4.456 -0.3161 -0.0589  0.1385
26332W        W43179  17.090  16.614   1.187  0.2636 -0.2041  0.1735
26333W        W43180  12.147  11.656  15.111 -0.3737 -0.0657 -0.0454
26334W        W43181  12.508  14.786   4.418  0.0412  0.1526 -0.4361
26335W        W43182  11.863  11.172  11.935  0.0822  0.0202 -0.3623
26336W        W43183   8.857   0.282   3.880 -0.0001 -0.0481  0.0941
26337W        W43184   6.266   7.851   5.502 -0.0715 -0.2333 -0.0361
26338W        W43185   9.684   9.750  11.573  0.1596  0.1825 -0.1597
26339W        W43186   8.012   5.307  11.688  0.1746 -0.0071  0.0196
26340W        W43187   8.767   0.209   2.997 -0.1478 -0.3563 -0.2903
26341W        W43188   4.764   7.146   2.900 -0.1923  0.2280  0.0628
26342W        W43189   5.733   5.356  15.202 -0.0797  0.2429  0.0522
26343W        W43190   8.753   7.792  14.818  0.2172 -0.4620 -0.0973
26344W        W43191   8.784  14.184   1.675 -0.1377 -0.1131  0.0468
26345W        W43192   2.543  10.515   5.676  0.0499 -0.0065  0.0493
26346W        W43193  10.884   5.638   3.513 -0.0457 -0.0609  0.1036
26347W        W43194  15.390   0.957   1.648 -0.0186  0.3161  0.3239
26348W        W43195  15.074  10.567   4.594  0.1081  0.0525 -0.1062
26349W        W43196  13.330   6.287  11.059 -0.1816 -0.1535 -0.1135
26350W        W43197  10.781   2.885   0.409 -0.2020 -0.0289  0.1207
26351W        W43198  11.488   9.823  15.901  0.1873 -0.3179  0.2413
26352W        W43199   7.626  15.909   0.512 -0.0084 -0.1086 -0.1269
26353W        W43200   3.436  11.218  12.235  0.2412 -0.2454 -0.0532
26354W        W43201   6.417   1.340   5.850  0.2713 -0.2779 -0.1588
26355W        W43202  11.733  13.760   1.444 -0.2714 -0.1805  0.0573
26356W        W43203  10.939   0.734  15.922  0.1429 -0.1769 -0.2297
26357W        W43204   9.551  12.708   1.370  0.1554  0.2438  0.0668
26358W        W43205  16.068   7.050  14.288  0.2456 -0.0209  0.0039
26359W        W43206   6.114  17.526   3.218  0.1180 -0.0733  0.0338
26360W        W43207   6.866   5.860  13.303 -0.2390  0.0053  0.0762
26361W        W43208   9.980   8.146   3.644 -0.1934 -0.1447 -0.0911
26362W        W43209   4.857   9.512   2.251  0.2993  0.0851 -0.1017
26363W        W43210   5.895   4.459  15.164 -0.0390  0.0881 -0.2384
26364W        W43211   2.028  11.905  13.164  0.0597 -0.0865 -0.3427
26365W        W43212  16.636   3.470   0.658  0.1325  0.2861 -0.0523
26366W        W43213   8.674  14.987   1.195 -0.1710  0.1173 -0.0978
26367W        W43214   1.129   6.641  12.846  0.2656  0.1782  0.0602
26368W        W43215  16.440  14.555  12.789 -0.2025  0.0277  0.1636
26369W        W43216   5.330   7.684   2.257 -0.0543  0.0081  0.0449
26370W        W43217  12.593  15.397  12.689  0.4448  0.1996  0.0571
26371W        W43218  18.003   3.235  15.558  0.0609 -0.1263 -0.0412
26372W        W43219   5.935  13.985   4.000 -0.2966 -0.2964 -0.4128
26373W        W43220   9.893   1.483  15.450  0.0697 -0.2066 -0.2777
26374W        W43221  12.454   0.294   5.939  0.2196 -0.1512 -0.0666
26375W        W43222   5.422   0.159   1.822 -0.1091 -0.1580 -0.0006
26376W        W43223   1.830   2.916  16.168 -0.1448 -0.0714  0.2681
26377W        W43224  13.717   8.184   0.702 -0.0548 -0.0290  0.1475
26378W        W43225   1.302  11.519  15.479  0.2078  0.0790  0.4004
26379W        W43226   5.777  12.884   0.920  0.2444 -0.2916 -0.0781
26380W        W43227  17.875  17.496   1.790  0.2014 -0.0141  0.1898
26381W        W43228   0.271  16.550   3.491 -0.2189 -0.2369 -0.1136
26382W        W43229  17.540  10.566  14.697  0.0732  0.1611 -0.0008
26383W        W43230  12.593  16.572  13.405  0.1112 -0.0435 -0.0572
26384W        W43231  10.760  14.832  11.647  0.1688 -0.1261  0.0170
26385W        W43232   7.156   9.297   4.718 -0.0617  0.1078  0.1406
26386W        W43233  18.102  17.393   4.582 -0.1233  0.1945 -0.0475
26387W        W43234  18.187   0.569   1.326 -0.4262 -0.1419 -0.1399
26388W        W43235  10.893   2.213  11.091 -0.0869 -0.1247 -0.0350
26389W        W43236  13.688   5.146  10.961 -0.0528  0.1155  0.0085
26390W        W43237  17.364   3.586   2.744  0.0523  0.1001 -0.1997
26391W        W43238   8.608   7.984   1.401 -0.0943  0.0203  0.0680
26392W        W43239  16.383   2.077  16.174 -0.0162  0.0436 -0.1354
26393W        W43240  16.874  13.895   1.341  0.2062 -0.3032  0.1298
26394W        W43241   9.020  15.230  12.353  0.0941 -0.0080  0.1635
26395W        W43242   9.619   5.042   0.241 -0.1677  0.0098  0.0797
26396W        W43243  14.204  17.557  13.671 -0.1219  0.2109 -0.1704
26397W        W43244  16.892   0.992   4.466 -0.2181 -0.1509  0.0184
26398W        W43245   4.367   2.513   0.859  0.0537 -0.1468 -0.1716
26399W        W43246   2.822   8.169  13.819 -0.2518 -0.0260 -0.0940
26400W        W43247  17.406   1.562   2.392 -0.0195 -0.4487 -0.3841
26401W        W43248   3.468  11.854  12.732 -0.0560  0.0841 -0.0303
26402W        W43249  13.242   3.600  14.072  0.1375  0.0577  0.0523
26403W        W43250  16.455   1.373  14.494 -0.0097 -0.0981 -0.5054
26404W        W43251  16.630   4.855  15.511 -0.1028  0.1340 -0.1152
26405W        W43252   8.479  14.645   4.971 -0.0983 -0.2140 -0.4876
26406W        W43253  14.412  14.287   4.025 -0.0623 -0.0026 -0.0637
26407W        W43254   5.153  18.311   2.500 -0.0094  0.4060 -0.2170
26408W        W43255   3.988   9.380   2.551 -0.1644 -0.0235 -0.0674
26409W        W43256  13.990   6.283   5.258  0.1704 -0.1087 -0.2558
26410W        W43257   0.870   2.136   0.200 -0.0038  0.1167  0.0466
26411W        W43258   1.503   3.576  10.330 -0.3194 -0.3641  0.2482
26412W        W43259   1.956   3.792   0.951 -0.1203  0.1340  0.1955
26413W        W43260  12.433  16.456   5.209  0.0971 -0.0184  0.0267
26414W        W43261  14.822  13.409  12.393 -0.3363 -0.1198  0.0576
26415W        W43262   7.551  12.828  12.549 -0.1382  0.1677  0.3431
26416W        W43263  14.573   2.715  13.079  0.0378  0.0364 -0.3093
26417W        W43264   1.919  10.130  16.170 -0.1775  0.0852  0.2666
26418W        W43265  12.471   7.970  15.636  0.3811  0.2217 -0.1758
26419W        W43266  15.183  16.001  12.040 -0.0360 -0.1984  0.0958
26420W        W43267  14.387  11.902  16.014  0.2918  0.4130  0.1184
26421W        W43268  16.933  17.737  12.669  0.2597  0.0760 -0.0141
26422W        W43269   4.155   7.458  14.917  0.0518 -0.0555  0.2135
26423W        W43270   2.644   4.869   5.331  0.2411 -0.2405  0.2405
26424W        W43271  12.566   9.618  12.208 -0.0422 -0.2485  0.0231
26425W        W43272   4.243   7.747  14.080 -0.3526 -0.1168 -0.2375
26426W        W43273  10.772   1.091   3.274  0.1422  0.1970 -0.1065
26427W        W43274   9.363  13.258  14.289  0.2409  0.3029  0.0989
26428W        W43275  16.008   8.566   1.322  0.3365 -0.0845  0.0583
26429W        W43276   2.971   6.623  14.352 -0.1543 -0.0418 -0.2733
26430W        W43277  16.288   7.320   1.889 -0.2012 -0.3585  0.0997
26431W        W43278  14.419   7.511   3.202 -0.0956 -0.2383 -0.0135
26432W        W43279   1.333   4.789   3.021 -0.0887 -0.0923 -0.0416
26433W        W43280   7.996   3.410   4.027 -0.0176 -0.0533  0.0297
26434W        W43281   8.308  16.569  13.757 -0.0219 -0.1337  0.1930
26435W        W43282  11.756  12.090   1.025 -0.4484  0.1092 -0.1995
26436W        W43283  10.400   0.763   3.233  0.1193  0.0770  0.2678
26437W        W43284  16.742   5.400   4.944  0.0286  0.1065  0.2869
26438W        W43285   5.138   9.145   4.080  0.3315 -0.1102  0.3044
26439W        W43286   8.424  12.302  15.332  0.0803  0.1567 -0.3226
26440W        W43287  11.334  13.166  15.472  0.1231 -0.1944 -0.3159
26441W        W43288   1.342   6.290   4.024 -0.1164  0.0778  0.1270
26442W        W43289  11.668  17.234  14.479  0.1974 -0.0633  0.0279
26443W        W43290  11.487  12.620   0.233 -0.0004  0.0515 -0.2043
26444W        W43291  13.110  15.390  14.522  0.2373 -0.0430 -0.0361
26445W        W43292   1.023   7.916   0.074 -0.2902 -0.1995  0.0218
26446W        W43293  10.872  17.506   1.180 -0.0280  0.2331  0.0505
26447W        W43294   2.780   8.969   3.260 -0.1161  0.0285 -0.0080
26448W        W43295  12.408  14.752  15.796 -0.1093 -0.0441 -0.2272
26449W        W43296  15.056  15.318   1.077 -0.0270 -0.2153 -0.3357
26450W        W43297  15.834   2.648  14.568  0.2821 -0.0734  0.1188
26451W        W43298  12.668   3.959   3.629  0.1342 -0.2494 -0.2340
26452W        W43299  12.961   7.738  14.896  0.1120  0.0109  0.1498
26453W        W43300   4.445   1.516  13.409  0.2180 -0.3741  0.2256
26454W        W43301  12.027   6.053   0.419 -0.0346 -0.0494 -0.1732
26455W        W43302   6.952  14.813  13.702 -0.1373 -0.0076 -0.1248
26456W        W43303  12.475  10.387  13.634  0.0747 -0.1086 -0.0195
26457W        W43304   2.180   5.991   1.853 -0.0014  0.0111 -0.2794
26458W        W43305  11.986   7.916  12.411  0.1570  0.2463  0.0529
26459W        W43306   8.127   7.595   2.745  0.1396 -0.0240 -0.0141
26460W        W43307  17.953  13.082   3.052 -0.0033  0.3499 -0.1783
26461W        W43308   3.791   3.738   1.486  0.0166 -0.1916  0.1321
26462W        W43309  11.801   1.406  15.888 -0.0182 -0.0606 -0.2270
26463W        W43310  12.885   2.017  12.948  0.1935  0.3724 -0.2266
26464W        W43311   3.785   0.064  14.892  0.1219  0.1561  0.0293
26465W        W43312   1.979   8.268  14.029  0.1615  0.0145  0.0073
26466W        W43313   4.396  16.533  12.451 -0.1918 -0.1075  0.2361
26467W        W43314   8.057   5.137   5.467 -0.2871  0.0631  0.2822
26468W        W43315   0.437   3.723  14.173  0.1855  0.2225  0.0157
26469W        W43316   9.857   1.608   3.112 -0.1743 -0.3633  0.2164
26470W        W43317   0.082   6.324   3.715  0.2337 -0.0628 -0.1615
26471W        W43318  14.861   5.058  12.018 -0.1892  0.1050 -0.0086
26472W        W43319  16.750   7.708  13.381 -0.0877 -0.1922 -0.4119
26473W        W43320  12.141  12.041   4.814 -0.0168 -0.2710  0.2189
26474W        W43321   9.554   3.630  14.259 -0.0847 -0.2376  0.0418
26475W        W43322   0.220   6.103   1.882  0.1530 -0.2653  0.0944
26476W        W43323   6.895   0.436   0.405  0.1283  0.2442  0.4537
26477W        W43324  17.675   9.848   5.340 -0.0112 -0.1351  0.2397
26478W        W43325  11.115   7.421   4.952  0.0470 -0.1236  0.1213
26479W        W43326   2.993  16.127   2.432  0.0410  0.0775 -0.2363
26480W        W43327  14.129   2.265   9.385 -0.2115  0.2820  0.1250
26481W        W43328  15.609  16.832   2.263  0.0622 -0.1155  0.0120
26482W        W43329  11.821  17.620  12.321  0.2199 -0.2093  0.1726
26483W        W43330  18.075  11.223  15.258 -0.0741  0.0857  0.2784
26484W        W43331   5.412  16.057  11.893  0.0048  0.1631  0.1516
26485W        W43332  13.423  10.607   2.619  0.1268 -0.0401 -0.1827
26486W        W43333  16.850  10.397   0.630  0.4034  0.2834 -0.1577
26487W        W43334  15.860  17.873   4.995 -0.0738  0.0155  0.1435
26488W        W43335  18.156   3.787   3.471 -0.0708 -0.2993  0.2446
26489W        W43336  13.229   4.444  11.544  0.0776 -0.0264 -0.3308
26490W        W43337   2.916   3.083   3.320 -0.0573 -0.0912 -0.0613
26491W        W43338   1.564   5.099   0.778  0.4513 -0.2373 -0.2310
26492W        W43339   2.978  10.948   2.129  0.1831 -0.3420  0.1574
26493W        W43340  11.362  10.188   5.708  0.0293  0.0879 -0.0432
26494W        W43341   6.247  12.229   0.476 -0.0741 -0.0239  0.2312
26495W        W43342   4.907   3.962  12.544  0.2954  0.3135 -0.2718
26496W        W43343   1.569   8.713   3.725  0.0218  0.1753 -0.2384
26497W        W43344  10.728   2.041   2.348  0.1465 -0.0726 -0.1120
26498W        W43345   4.910   6.974   5.760 -0.0083  0.0729 -0.0000
26499W        W43346   6.449   4.110  14.049 -0.0196  0.0293  0.0223
26500W        W43347   7.222   1.660   1.748  0.0056 -0.2414  0.3450
26501W        W43348  13.314  12.105  13.265 -0.1907 -0.0303 -0.1609
26502W        W43349  13.288   5.203  13.444 -0.0968 -0.0208  0.0600
26503W        W43350   7.152   7.541   2.681  0.0532 -0.0459  0.2501
26504W        W43351   5.244   6.963  12.260 -0.1130  0.1407 -0.0694
26505W        W43352  14.626   0.974   0.844  0.2338 -0.0845  0.0469
26506W        W43353   5.938  18.212  15.391 -0.2634  0.0567  0.0582
26507W        W43354   7.290   6.522  13.618 -0.1810  0.1663 -0.3004
26508W        W43355   1.754   5.895   5.396 -0.2513  0.1608  0.0575
26509W        W43356   6.456  18.122  13.466  0.0625 -0.2854 -0.2352
26510W        W43357  10.378  12.541   4.549 -0.0000  0.2225 -0.0844
26511W        W43358   7.403  17.360   3.391  0.1981 -0.0733 -0.0396
26512W        W43359  12.727   0.968  12.252  0.1546  0.0254  0.1754
26513W        W43360   9.945   3.224   1.805  0.1319 -0.2545 -0.1297
26514W        W43361  10.210   6.385  14.747  0.2985 -0.1782 -0.0596
26515W        W43362   7.775   8.392   1.306  0.0308 -0.2445  0.1556
26516W        W43363  10.078   7.475   1.103  0.0219 -0.2245  0.0054
26517W        W43364   5.823  11.197   1.328 -0.2039 -0.0745 -0.0522
26518W        W43365   9.241   8.355  13.581 -0.0278  0.0331  0.1133
26519W        W43366   7.671   5.672   3.645  0.0137  0.0779  0.1142
26520W        W43367   0.873   5.345  11.632 -0.0466  0.0473  0.1390
26521W        W43368   0.604  10.591  13.713 -0.0972 -0.5385 -0.0626
26522W        W43369  15.239  12.692   1.576  0.0618 -0.1960  0.0706
26523W        W43370  12.673  16.764   3.190  0.0887  0.1488  0.2042
26524W        W43371   6.085   9.733   4.899  0.0954 -0.0592  0.0546
26525W        W43372   0.567  14.996  15.193 -0.1851 -0.1707 -0.2241
26526W        W43373   8.071  10.386   0.764 -0.2423 -0.0166 -0.1223
26527W        W43374  17.145  14.108   3.573  0.1281 -0.0480  0.1177
26528W        W43375  13.209  10.009   4.944  0.0248  0.1054  0.1518
26529W        W43376  12.205   9.333   3.544 -0.2038 -0.2014  0.0973
26530W        W43377  15.408  15.553   2.076  0.0474  0.1180  0.2608
26531W        W43378   6.306  15.395  13.737  0.1984 -0.2903  0.0978
26532W        W43379   3.239   7.702  13.815  0.2333 -0.0673 -0.2390
26533W        W43380   7.205   9.973   5.565  0.0723  0.2144 -0.1647
26534W        W43381   1.000   0.416  16.188  0.0768  0.2598  0.0291
26535W        W43382  14.180  14.685  11.995 -0.1091 -0.0399 -0.0070
26536W        W43383  16.805   8.608   0.764  0.3173  0.1500 -0.0918
26537W        W43384  17.696   1.408  12.587 -0.0377  0.3414 -0.1218
26538W        W43385   4.976   9.938  10.536 -0.2737 -0.0059  0.2514
26539W        W43386  14.143   3.152   0.732  0.3923 -0.3220  0.0010
26540W        W43387  13.490  14.397  14.909 -0.3390 -0.0465 -0.1018
26541W        W43388  14.631  14.715  15.474 -0.2703  0.2514 -0.0189
26542W        W43389  14.963  13.535   1.008  0.2006 -0.0707 -0.2843
26543W        W43390   1.184  13.449   3.443  0.1612 -0.0301  0.2216
26544W        W43391   9.378   3.518  13.285 -0.3358  0.0244 -0.0630
26545W        W43392   9.904   7.523   2.849 -0.4624  0.2486  0.0396
26546W        W43393  17.178   2.245  12.464 -0.1470 -0.1434  0.2843
26547W        W43394   0.128   0.696  15.210 -0.2489  0.1806 -0.1524
26548W        W43395  14.796   4.107   3.936  0.1655 -0.3214  0.1211
26549W        W43396   6.211   5.259   2.402  0.2362  0.0364 -0.0687
26550W        W43397   3.522   8.101  13.626  0.1367  0.0525  0.0231
26551W        W43398   7.283   3.204   4.158  0.0258  0.0744 -0.1652
26552W        W43399   3.425  12.796   0.310 -0.0433 -0.3349 -0.2438
26553W        W43400  14.655   3.612  13.256 -0.0606  0.4434 -0.1854
26554W        W43401   5.690  12.232   0.200 -0.1137  0.0503  0.1813
26555W        W43402  14.062   3.930   0.783 -0.0157 -0.3048  0.0736
26556W        W43403  16.914  10.359  15.329  0.0272 -0.0715 -0.0854
26557W        W43404   3.817   6.766  13.677 -0.1089  0.0953 -0.0048
26558W        W43405   0.071   9.852  14.382  0.1281 -0.0917 -0.5286
26559W        W43406   2.448  16.433   0.635  0.1643  0.0322 -0.0015
26560W        W43407  11.348  16.928   2.817 -0.0159 -0.0770  0.2211
26561W        W43408   6.655   5.603  14.880 -0.0507 -0.0350 -0.0840
26562W        W43409   8.314   1.893   0.527 -0.0665 -0.1457  0.0365
26563W        W43410  13.887  11.557  13.910 -0.1991 -0.3277  0.2024
26564W        W43411  16.533   7.643   3.230 -0.4462 -0.0753 -0.0525
26565W        W43412  11.455   2.376   0.780 -0.1506  0.0156  0.2380
26566W        W43413  13.804  13.433   4.825  0.1091 -0.1176 -0.1596
26567W        W43414  12.318   1.244  15.745  0.1405 -0.1211 -0.0183
26568W        W43415   8.668  15.948  15.450 -0.0945 -0.0737 -0.0203
26569W        W43416   4.811   7.347   1.556  0.0251  0.4844 -0.1567
26570W        W43417   5.919  11.314  12.240 -0.0491  0.3871 -0.2173
26571W        W43418  16.638   1.179   1.332 -0.2032  0.1808  0.3974
26572W        W43419  10.236   0.318  10.939  0.0246  0.0627  0.1543
26573W        W43420   0.955   6.611   3.212 -0.0367 -0.0329 -0.6530
26574W        W43421  12.109  12.564   3.124 -0.1022 -0.0999  0.0200
26575W        W43422   6.591  12.678  13.696 -0.3517  0.0917 -0.1774
26576W        W43423  11.421  11.777   3.533  0.0136  0.2369 -0.2231
26577W        W43424  14.136  10.533   0.993 -0.1773 -0.2358  0.0810
26578W        W43425   0.892   7.991   1.330 -0.1974 -0.0391 -0.0240
26579W        W43426   7.847   9.347   0.986 -0.1371 -0.2816 -0.2049
26580W        W43427  11.250  16.194  15.073  0.0644 -0.2544 -0.0985
26581W        W43428  18.099  14.391   1.756 -0.0491 -0.1039  0.1379
26582W        W43429   3.511   2.631  15.438 -0.1740  0.0549 -0.2712
26583W        W43430  13.012  17.648   5.480  0.1448 -0.0618 -0.0732
26584W        W43431   1.723   6.833   5.412  0.1544 -0.0131 -0.1783
26585W        W43432   9.698  11.517   5.190  0.0211  0.2626  0.0476
26586W        W43433   0.351   5.145  11.623  0.2726  0.2897  0.1334
26587W        W43434   8.797  12.324  15.691  0.1204  0.0561  0.0238
26588W        W43435   5.526   2.557   4.770 -0.0514 -0.1517 -0.0264
26589W        W43436  16.926   0.189  12.580 -0.1597  0.0176 -0.2260
26590W        W43437   9.451   5.051   4.876  0.0173 -0.0682  0.1164
26591W        W43438   7.425  17.754  10.132 -0.0437  0.0333  0.4228
26592W        W43439   6.622  15.150  13.449  0.2546  0.0615 -0.1188
26593W        W43440   3.667  17.107   1.821 -0.0857  0.0427  0.0076
26594W        W43441   9.340  15.542   3.013  0.2622  0.0700  0.0889
26595W        W43442  15.490   8.686   4.422 -0.0565  0.2845 -0.1447
26596W        W43443  12.830   9.466   0.055  0.1625 -0.2532 -0.2619
26597W        W43444  16.488  16.686  12.907  0.0445  0.0981  0.3610
26598W        W43445   1.972   5.633  14.754 -0.0006  0.1838 -0.1926
26599W        W43446   9.694  12.987  13.553 -0.0489 -0.2179  0.1081
26600W        W43447   2.157  10.814  12.738 -0.0875  0.2433  0.0605
26601W        W43448   9.594  12.029  14.619 -0.0231  0.0496  0.2621
26602W        W43449   6.098   4.201   4.694  0.0670  0.0160 -0.2639
26603W        W43450   3.464   7.964   1.372  0.0035 -0.0777  0.1838
26604W        W43451   0.039   9.629  16.155  0.2541  0.0089  0.0284
26605W        W43452   8.863   3.868  11.451 -0.3939 -0.1541 -0.1483
26606W        W43453  14.570   1.793  14.439  0.1094 -0.1973  0.1131
26607W        W43454   7.143   2.060   2.627 -0.1614 -0.3044 -0.0724
26608W        W43455  17.739   6.598  14.490  0.0464 -0.5894  0.0710
26609W        W43456  17.915   9.270  12.198  0.0664  0.1627 -0.1810
26610W        W43457   3.378  14.783   3.809  0.0194 -0.0742  0.2926
26611W        W43458  12.235  15.585  15.736  0.0916  0.4130 -0.0206
26612W        W43459  17.424  14.591   4.357 -0.1004  0.0400 -0.2334
26613W        W43460  13.661   8.649   2.722 -0.0340  0.0998 -0.1633
26614W        W43461   4.662  16.614  15.331  0.1280  0.3440 -0.2564
26615W        W43462   0.497  15.394   5.320 -0.1748 -0.0332 -0.1145
26616W        W43463   0.857   6.396   1.164  0.2074 -0.0738  0.4367
26617W        W43464   0.423   8.470   1.804 -0.1203 -0.0012 -0.1703
26618W        W43465   5.298  12.340  13.726 -0.0633  0.0447 -0.1201
26619W        W43466   1.077  17.569   3.346 -0.1146  0.0008  0.0013
26620W        W43467  13.901   6.687  15.550  0.2425  0.0469  0.6073
26621W        W43468   2.828   9.995   1.710 -0.0536 -0.1848  0.0669
26622W        W43469   4.166  13.028   4.668  0.1560 -0.1090 -0.1613
26623W        W43470   7.918  10.357   2.105  0.0980 -0.2023 -0.1049
26624W        W43471  16.657   8.418   4.091 -0.0725  0.0311  0.0323
26625W        W43472  17.823   8.197   3.909 -0.1058  0.1019 -0.0109
26626W        W43473   1.401   1.882   5.432 -0.0734  0.1247 -0.4365
26627W        W43474  13.607   8.023   3.159  0.1352 -0.3375 -0.1637
26628W        W43475   4.526   1.352  14.416  0.1901  0.1777  0.1443
26629W        W43476  16.210  14.700   0.168  0.1993  0.0221  0.1136
26630W        W43477   8.657   5.284   1.612  0.3575 -0.1869  0.3152
26631W        W43478   3.362   1.711  11.405  0.0508  0.1905 -0.0246
26632W        W43479   5.034  14.765  11.577 -0.1980 -0.0938  0.0231
26633W        W43480   5.198  11.794   0.135  0.2669  0.1115 -0.1331
26634W        W43481  16.716   2.553   5.084  0.0751  0.3906  0.1867
26635W        W43482   9.204   3.682  11.794  0.1109 -0.4039  0.0139
26636W        W43483   3.089   5.090   3.120 -0.0145 -0.0072  0.1400
26637W        W43484   4.236   0.586   0.968  0.0511  0.1872 -0.0514
26638W        W43485   7.216   6.760  14.480 -0.0350 -0.0397  0.0995
26639W        W43486  14.277   7.787   1.238 -0.0654  0.2267 -0.1348
26640W        W43487   0.175  16.683   4.038  0.2067  0.0338  0.0298
26641W        W43488  13.058  17.606  14.071  0.0208  0.4086  0.0201
26642W        W43489  13.374   2.142   4.993 -0.1042  0.2963  0.0387
26643W        W43490   0.630   6.755   4.036 -0.0385 -0.0404  0.1625
26644W        W43491   0.494  14.051   2.371  0.3475 -0.1404  0.0392
26645W        W43492   9.583  13.734  12.806  0.0250 -0.2682 -0.0328
26646W        W43493   5.453   6.426   3.906  0.3347 -0.0487 -0.2581
26647W        W43494   7.468  11.158   1.156  0.0988 -0.0540 -0.2178
26648W        W43495   7.721   2.973  13.539 -0.0582 -0.1330 -0.0281
26649W        W43496   4.810  11.726  15.237 -0.1648 -0.1659 -0.1970
26650W        W43497  13.131   7.805   3.935 -0.3316 -0.0301 -0.2895
26651W        W43498  13.767   5.529  13.334 -0.1665 -0.1045  0.0542
26652W        W43499  15.447  11.886   1.892  0.1697  0.1504  0.0404
26653W        W43500   4.665   6.519   0.078  0.1734  0.0880 -0.3165
26654W        W43501   4.343   3.689   3.098 -0.1008  0.0388  0.2575
26655W        W43502   3.181  15.347   3.947 -0.1432 -0.0535 -0.0525
26656W        W43503  10.900   3.981  12.081 -0.1460 -0.0145  0.1649
26657W        W43504  16.226   4.780  15.195  0.3267  0.1174  0.3649
26658W        W43505  12.051   7.710   1.467 -0.3938  0.0747 -0.0459
26659W        W43506   4.722  12.981   3.121 -0.1480 -0.0589  0.2749
26660W        W43507   5.812  15.456  13.632 -0.0789  0.1389 -0.1767
26661W        W43508   0.985   7.830  13.041 -0.0324 -0.1885  0.0869
26662W        W43509   8.143   5.390   1.991  0.0211  0.0368  0.0987
26663W        W43510  16.909  13.183  11.095  0.0173  0.1775 -0.0808
26664W        W43511   1.037   0.049  11.868 -0.3475  0.0671 -0.0744
26665W        W43512   8.354  16.755   2.548  0.3420  0.2703  0.1729
26666W        W43513  12.390  15.668  13.096 -0.1335 -0.3279  0.0260
26667W        W43514  10.989  12.049  10.735 -0.0448  0.0631  0.1140
26668W        W43515  13.716   7.556   5.273 -0.0023 -0.0006  0.0675
26669W        W43516   6.104  18.195  12.138  0.0430 -0.0994  0.0994
26670W        W43517   7.881   9.438  12.840  0.3116 -0.3260 -0.2906
26671W        W43518   3.082   0.648   1.786  0.2600 -0.1611 -0.0056
26672W        W43519   7.828  13.547   2.129 -0.0750  0.2996 -0.1731
26673W        W43520  17.611   5.441   0.397 -0.0997 -0.2153  0.0588
26674W        W43521   0.386  11.506  14.216  0.2520 -0.1223 -0.0670
26675W        W43522   2.958  16.279  16.133 -0.1483  0.1535  0.2681
26676W        W43523  16.840   4.475  13.436  0.0640 -0.2397 -0.1075
26677W        W43524   2.296   4.768   4.958  0.0282  0.0081  0.0984
26678W        W43525  11.214   7.369   4.369  0.1839  0.1484 -0.1783
26679W        W43526   4.602   5.113   0.899  0.3737  0.3437 -0.0057
26680W        W43527   9.593  12.463   0.029 -0.0431  0.0406  0.0692
26681W        W43528   1.106   9.591   5.398 -0.0738  0.3465  0.1083
26682W        W43529  18.192  16.837  11.475 -0.3557 -0.0887 -0.0299
26683W        W43530  15.212   5.722   3.700  0.1799  0.1424  0.0969
26684W        W43531   6.342  16.285  12.140  0.0331 -0.0080  0.0114
26685W        W43532  10.375  12.937  12.839  0.0909  0.2863 -0.0484
26686W        W43533  14.614  16.583  13.297 -0.1545  0.0189 -0.1759
26687W        W43534   6.500   4.871   1.571 -0.0600  0.3171  0.4399
26688W        W43535  12.135   5.034  15.214 -0.0366 -0.0162 -0.2409
26689W        W43536  12.195  16.454  13.953  0.0541  0.1761  0.2435
26690W        W43537   1.991   5.388  15.657  0.3702 -0.1102 -0.0174
26691W        W43538   1.057   8.425  16.138  0.1698  0.0239 -0.0253
26692W        W43539  17.909   5.635   3.713 -0.2700  0.0736  0.1696
26693W        W43540  14.634  18.160   5.594  0.2706 -0.0671  0.0068
26694W        W43541  14.524  13.013  13.257 -0.0336 -0.1424  0.0731
26695W        W43542  15.293   0.712   4.401  0.0107  0.0934 -0.0698
26696W        W43543  12.477  10.860  14.062 -0.0985  0.1768 -0.0670
26697W        W43544   3.052   6.181   5.501  0.0609  0.2632 -0.0758
26698W        W43545   0.793  14.370   3.568  0.0049 -0.2364  0.3295
26699W        W43546  15.670  13.106  13.145 -0.1278  0.3347  0.1286
26700W        W43547   6.155   7.285  13.143 -0.1079 -0.1357 -0.1325
26701W        W43548  12.674   9.637   4.414 -0.4745  0.2274 -0.3649
26702W        W43549   2.238   9.991   0.737  0.2501  0.1185  0.0184
26703W        W43550  10.825   2.515   4.855  0.2481  0.1005  0.0783
26704W        W43551  15.855   4.564  14.852 -0.1261  0.0509  0.3476
26705W        W43552   6.694   9.441   2.388 -0.0848 -0.0447  0.1253
26706W        W43553  17.060  13.866  12.668 -0.3134  0.1024  0.2205
26707W        W43554   8.310  17.516   2.668  0.1304 -0.0043  0.0423
26708W        W43555   6.729   3.405  15.289  0.1063 -0.0318  0.0706
26709W        W43556  10.557  15.241   5.526 -0.1703 -0.2890  0.2496
26710W        W43557   2.235   8.911   1.480 -0.3343  0.3540 -0.1788
26711W        W43558   0.014   1.577   0.637 -0.0677 -0.0205 -0.1558
26712W        W43559   6.764   0.872  14.301  0.0274 -0.0211  0.0397
26713W        W43560  16.661  17.741  15.947  0.1949  0.1228  0.0005
26714W        W43561   9.552   5.150   0.762 -0.0883  0.1039 -0.3475
26715W        W43562  11.707  15.040  13.679  0.0972 -0.1115 -0.2409
26716W        W43563   1.079  13.198  11.937  0.1813  0.3037 -0.1303
26717W        W43564   6.792  11.257  13.962  0.0541  0.1770 -0.1664
26718W        W43565   5.964  17.661  15.150 -0.1843  0.0725 -0.0349
26719W        W43566   7.425   3.284  12.478  0.1044  0.0073 -0.0183
26720W        W43567   3.597   2.200   4.689 -0.0881 -0.2949  0.0754
26721W        W43568   0.905  18.182   2.656 -0.1802 -0.0654  0.0644
26722W        W43569  17.271   5.118   0.806  0.5654  0.1073  0.1640
26723W        W43570   6.986   6.400  14.744  0.3430 -0.0834  0.1888
26724W        W43571  16.218  18.143   2.395  0.0564  0.0539  0.1447
26725W        W43572  14.841  16.258   6.004  0.0975  0.0540  0.1807
26726W        W43573  17.628   0.712  14.785 -0.1192 -0.2949 -0.0375
26727W        W43574   1.094   2.041  13.655  0.1582  0.0964 -0.3284
26728W        W43575   9.482  11.035   0.634  0.2654 -0.3464 -0.0129
26729W        W43576   3.964   9.168   5.499  0.2745 -0.0558  0.1288
26730W        W43577   2.837   4.124  15.669 -0.0540 -0.0327  0.1256
26731W        W43578   4.338   5.150   4.757 -0.1317 -0.1370  0.4699
26732W        W43579   2.982   2.840  15.396 -0.1173  0.0485  0.2582
26733W        W43580  13.195   5.046   3.181 -0.0702  0.0445 -0.1544
26734W        W43581   6.315   7.144   4.312 -0.2761  0.0870 -0.1562
26735W        W43582   0.285  17.047  14.256 -0.0973  0.2235 -0.0238
26736W        W43583   6.876   8.068  11.112  0.2181 -0.0105 -0.1169
26737W        W43584  15.109  15.130  13.372  0.0732 -0.1992 -0.1893
26738W        W43585  14.491   0.465  12.917 -0.0736 -0.1226  0.0182
26739W        W43586   8.454   0.912   2.830 -0.0217  0.1189 -0.0483
26740W        W43587  17.018  13.991   1.870  0.1744  0.0113 -0.2107
26741W        W43588   0.409  10.078   3.733  0.1432  0.3970  0.2093
26742W        W43589   6.586   8.121  12.368 -0.1929  0.0121 -0.0190
26743W        W43590  16.281   2.215   0.545  0.3090 -0.2055 -0.2502
26744W        W43591   5.393   3.823  15.512  0.2777  0.1471 -0.2177
26745W        W43592  17.663   2.064  14.401 -0.0160 -0.0775 -0.1550
26746W        W43593   2.090  16.591  15.097 -0.0128 -0.0252  0.2059
26747W        W43594   4.937   8.276  13.147 -0.0552 -0.2783  0.0827
26748W        W43595  15.656  16.690  15.955  0.3462 -0.2073  0.0791
26749W        W43596  11.935  13.474   1.087 -0.0196  0.0114  0.1888
26750W        W43597  11.335   6.735   0.858 -0.1566  0.0322 -0.0385
26751W        W43598  15.582  15.667  15.943 -0.0372 -0.0653 -0.1225
26752W        W43599  12.801   9.021  13.239  0.0370 -0.1884 -0.2544
26753W        W43600   7.199   1.942   0.880  0.1793 -0.0973 -0.0101
26754W        W43601   6.506   8.709   4.572 -0.1058  0.2191 -0.0374
26755W        W43602   4.792   6.898   0.779  0.0833 -0.0512 -0.1714
26756W        W43603   5.398  11.307   1.718 -0.0633 -0.0617 -0.0991
26757W        W43604  10.722   6.191  12.911 -0.0974 -0.0989 -0.0229
26758W        W43605  17.723  17.987  10.121 -0.0293  0.0646 -0.0233
26759W        W43606  13.780  13.168  11.490  0.0184 -0.1144  0.0669
26760W        W43607  13.173   3.265   3.681  0.2945 -0.0601  0.0431
26761W        W43608  12.314  13.276   0.681  0.1230 -0.1500 -0.0820
26762W        W43609  11.494   6.555  12.004  0.1526  0.2323  0.2245
26763W        W43610  16.266   7.536  14.715  0.1527  0.1870 -0.2584
26764W        W43611  14.408  10.928  13.655  0.2457  0.1413  0.0766
26765W        W43612  10.979  11.353   5.370 -0.0542  0.2387 -0.0603
26766W        W43613   0.029  15.406  13.738  0.1562 -0.1112  0.2965
26767W        W43614  16.776   7.651  14.654  0.0241 -0.0069  0.0704
26768W        W43615   2.057  17.765  12.391  0.0723  0.0954  0.0191
26769W        W43616   4.609  11.230  14.749  0.1271 -0.0205 -0.4060
26770W        W43617  11.275   8.033   3.829 -0.2906  0.1513  0.0128
26771W        W43618   3.761   9.548   1.320 -0.1271  0.2098  0.0640
26772W        W43619  10.228   7.745   1.551 -0.0343  0.0191 -0.1939
26773W        W43620   2.519   1.213   1.325 -0.1684  0.0226  0.0587
26774W        W43621   4.103  17.054   0.256  0.0657 -0.0539  0.0081
26775W        W43622  16.501   3.330  10.548 -0.2578 -0.1754  0.0343
26776W        W43623  12.116   2.186   3.491  0.2064  0.1865 -0.0589
26777W        W43624   3.923   0.595  13.297  0.2319  0.2065 -0.1770
26778W        W43625   4.787   4.669   0.795  0.0059 -0.0626 -0.4253
26779W        W43626   9.314   0.827   3.595 -0.1919 -0.0368  0.1306
26780W        W43627  10.094   1.405   0.571  0.2773 -0.1038  0.0478
26781W        W43628   7.560   4.662   1.507 -0.5626 -0.0668 -0.1231
26782W        W43629  10.017  12.193   2.442  0.0174 -0.1758 -0.0993
26783W        W43630  16.098   5.068  12.393  0.0860  0.2658  0.0378
26784W        W43631   3.589   1.630   3.775  0.0401  0.0984  0.1386
26785W        W43632   9.671  12.776  15.005  0.0604  0.0464  0.1949
26786W        W43633   4.470  17.851  11.501 -0.4672  0.1320  0.0036
26787W        W43634  15.440  14.632  11.392 -0.0379 -0.0059 -0.2872
26788W        W43635  15.691  10.552  15.949  0.4841 -0.1916  0.0312
26789W        W43636   8.732   1.706   5.167 -0.2405 -0.0795 -0.0368
26790W        W43637   0.130   8.703  16.009 -0.2421 -0.1259  0.1254
26791W        W43638   4.363  11.388  15.222 -0.0992 -0.1076  0.0783
26792W        W43639  17.065  16.662  15.542  0.3131 -0.0148  0.1739
26793W        W43640  11.961   6.923   5.446  0.3328 -0.1543  0.2024
26794W        W43641  17.364  14.317   2.719  0.1368 -0.0133 -0.1109
26795W        W43642  11.096  17.904   5.395  0.2152  0.2221 -0.0508
26796W        W43643   6.813  14.042   6.015  0.0612  0.0791 -0.1028
26797W        W43644  16.833  10.548  12.928  0.1468  0.0980 -0.1080
26798W        W43645  10.773  12.715   4.241 -0.1512  0.0515  0.0729
26799W        W43646  11.695   1.174   4.729  0.1990 -0.0313  0.1866
26800W        W43647   3.574   2.349  13.476 -0.2473 -0.1869 -0.2289
26801W        W43648   2.540   1.098  11.263 -0.0823 -0.0053  0.1819
26802W        W43649   0.386  13.238   0.707 -0.5418 -0.0726 -0.0652
26803W        W43650   2.737  11.834  12.436 -0.2771  0.0150  0.0136
26804W        W43651   2.975  16.289   4.378  0.4148 -0.1229 -0.1454
26805W        W43652   4.517  15.641   2.420  0.0355 -0.0339  0.0275
26806W        W43653   9.105  14.745  12.474  0.1922 -0.1214 -0.1445
26807W        W43654  15.847  12.688   1.385 -0.0216  0.0528 -0.0392
26808W        W43655  16.729   4.840   2.991  0.3578 -0.1924 -0.1744
26809W        W43656  13.539  15.447   1.730 -0.0818 -0.0139  0.1316
26810W        W43657  13.347  13.012   4.336 -0.2037 -0.1472  0.0927
26811W        W43658  16.506   2.471   2.829 -0.0759 -0.1448  0.2397
26812W        W43659   9.229   7.993  14.402 -0.1603  0.0670 -0.1114
26813W        W43660  10.883   5.136  13.879 -0.0673  0.1367  0.1040
26814W        W43661   3.460  12.180  13.655 -0.2117  0.0744  0.0745
26815W        W43662  16.809   0.528  12.196 -0.0961  0.0545  0.0191
26816W        W43663  11.692   4.434   2.453  0.0769 -0.0241 -0.0578
26817W        W43664   3.197  12.386  11.753 -0.1428 -0.2042  0.4079
26818W        W43665   0.948   0.050   4.473  0.1932 -0.1363 -0.0347
26819W        W43666   0.431  11.398   3.969 -0.1363  0.2139 -0.0943
26820W        W43667   1.394   0.081  15.704 -0.0248  0.0009  0.0696
26821W        W43668   4.479  17.655  12.448 -0.1880 -0.1151  0.1347
26822W        W43669   0.745  14.152   0.726  0.0292 -0.3095 -0.0381
26823W        W43670  14.886   9.212   2.875 -0.1791  0.1324 -0.0587
26824W        W43671   2.947   8.655  12.831  0.1514 -0.0070  0.1919
26825W        W43672   5.283   7.334   3.512 -0.0510  0.2671  0.1347
26826W        W43673   4.689  10.057  12.115  0.0276  0.1193 -0.0674
26827W        W43674   3.594   8.618   1.621  0.0773 -0.0103 -0.1427
26828W        W43675   7.483   1.874   2.283 -0.0554 -0.0746 -0.1168
26829W        W43676   4.381  13.411   4.423  0.0991 -0.0322  0.2249
26830W        W43677  16.942   9.361   0.110 -0.2178 -0.1521  0.0061
26831W        W43678   8.518  11.689  13.654 -0.0553 -0.1759 -0.1970
26832W        W43679   5.228   7.559   1.241  0.1125 -0.0648 -0.0382
26833W        W43680   0.177  12.228  12.373 -0.1597  0.1876 -0.3749
26834W        W43681   6.684   4.904   5.814 -0.1914  0.0623 -0.0081
26835W        W43682  11.045   4.868  13.315 -0.0461  0.1063 -0.0895
26836W        W43683  14.365   0.167   0.342 -0.0532  0.2601  0.1258
26837W        W43684  15.688   4.350   3.810  0.0978  0.1269  0.1761
26838W        W43685  15.239  10.808  15.800  0.0879 -0.1523  0.1474
26839W        W43686  15.618   5.887   4.435  0.1992 -0.4156  0.0893
26840W        W43687   0.928   0.192  15.373 -0.0075  0.1466  0.0180
26841W        W43688   8.534  12.647   0.653 -0.6032 -0.1030  0.0230
26842W        W43689  15.153   9.515  15.895 -0.2752  0.0708  0.3833
26843W        W43690   6.683   3.817  13.172  0.0429  0.0100 -0.1397
26844W        W43691   6.347  14.161  15.983  0.1501 -0.0856  0.0328
26845W        W43692  10.952  13.533   0.035 -0.1404  0.0338  0.0701
26846W        W43693   4.941   6.149   1.689 -0.0913  0.1284 -0.1074
26847W        W43694  12.546  16.334  11.711 -0.2021  0.4975 -0.1243
26848W        W43695  14.051  17.109   2.977 -0.1794 -0.1049  0.3430
26849W        W43696   7.191  17.248  14.977 -0.2222 -0.1089 -0.0024
26850W        W43697  11.900  12.551   1.278 -0.1156  0.1689 -0.1516
26851W        W43698  12.584  15.150  15.368 -0.0327 -0.1015 -0.2420
26852W        W43699  18.229  11.150   3.946  0.2459  0.1694  0.2973
26853W        W43700  15.463  13.064  12.328  0.1490 -0.1401 -0.2467
26854W        W43701  12.859  15.794   5.556 -0.1160 -0.2536  0.2887
26855W        W43702   8.553  13.371   4.361  0.2411 -0.0475 -0.0121
26856W        W43703  15.481  11.434  11.004  0.4576  0.1114  0.0402
26857W        W43704   9.055   0.106   1.642  0.0466 -0.0897  0.1434
26858W        W43705   6.938  14.238   2.307  0.1440  0.0139  0.0491
26859W        W43706   4.097   7.873   0.098 -0.2008  0.2649 -0.2219
26860W        W43707  17.421  14.218  12.781 -0.1461  0.2886 -0.0732
26861W        W43708   9.199   8.570  12.596  0.2323  0.2372  0.1785
26862W        W43709  11.128  11.928   2.296 -0.2403  0.0985  0.1642
26863W        W43710  13.787   6.962   3.089 -0.3378 -0.0998  0.1989
26864W        W43711   3.647  14.885  14.827  0.3682  0.0459  0.0076
26865W        W43712  11.394  17.008  11.841  0.1365 -0.1250  0.0840
26866W        W43713  15.071   5.385   3.352 -0.3418  0.1205  0.2207
26867W        W43714  11.844  12.553  13.462  0.0313  0.1301 -0.1888
26868W        W43715   8.535   4.977   5.608 -0.0021 -0.0501 -0.2175
26869W        W43716   9.084  18.103  13.794  0.0778  0.0719  0.0600
26870W        W43717   2.948   3.585  12.707 -0.3231 -0.2815 -0.0204
26871W        W43718   5.253   5.622  15.132 -0.0988 -0.2171 -0.3820
26872W        W43719  13.432   3.913   1.777 -0.1632  0.2377 -0.0732
26873W        W43720  16.178  11.961  14.781 -0.1662  0.1050  0.0359
26874W        W43721   0.807  14.106   1.589 -0.3971  0.0667 -0.0344
26875W        W43722  15.921   1.619  15.809  0.1093 -0.1868 -0.0911
26876W        W43723   2.526  10.408   1.031 -0.1118  0.1979 -0.2880
26877W        W43724   7.790   0.840   5.823  0.2090  0.2764 -0.0907
26878W        W43725  15.989   5.613  10.466  0.0451 -0.1847  0.0616
26879W        W43726  17.924  17.319  13.857 -0.2641 -0.1336  0.2231
26880W        W43727   4.688  16.350  10.299  0.3022 -0.0708 -0.0079
26881W        W43728  17.365   3.370  11.945  0.3129 -0.1738  0.0905
26882W        W43729  11.589  11.368   3.329  0.5756  0.2627 -0.0150
26883W        W43730  17.026   0.426   3.775 -0.1068  0.0669 -0.2039
26884W        W43731  17.760   0.453   5.451 -0.0623  0.1465  0.2536
26885W        W43732  17.469  16.818  14.933  0.1673 -0.0610 -0.4109
26886W        W43733  17.537  14.571   3.102 -0.0232  0.2621  0.0513
26887W        W43734   8.458   6.023  12.725  0.0469  0.0724 -0.0197
26888W        W43735   9.015   9.395   5.147 -0.1997 -0.2208 -0.1732
26889W        W43736   7.552   4.181  11.209 -0.1202 -0.3111 -0.0929
26890W        W43737   0.271  12.283  10.314 -0.1819 -0.0839 -0.2632
26891W        W43738  14.981  10.044  15.629 -0.0257 -0.1815 -0.1380
26892W        W43739   6.522   6.125  14.878 -0.2050  0.0817  0.0808
26893W        W43740  11.349  10.003   5.268  0.1569 -0.0004  0.0708
26894W        W43741  13.919   2.521   4.195  0.0861 -0.5434  0.0404
26895W        W43742   8.080   4.724  14.755 -0.1293  0.0547  0.0288
26896W        W43743   4.775  15.517  12.230 -0.0053 -0.1577 -0.2352
26897W        W43744   5.939  11.949   4.179  0.0220 -0.0403  0.1698
26898W        W43745   8.734   4.921  13.556 -0.1263 -0.1778  0.0147
26899W        W43746   9.129  11.095  12.566 -0.0569 -0.0594 -0.1175
26900W        W43747   7.909  13.444  14.464 -0.1073  0.1542 -0.4231
26901W        W43748   1.521   1.146   1.522  0.0304 -0.0733 -0.1719
26902W        W43749   5.507   0.224  15.331  0.2533  0.0335 -0.0874
26903W        W43750   9.361   6.132   2.174  0.0938  0.0297 -0.0617
26904W        W43751   5.221   9.985   1.543 -0.0182  0.5145 -0.0595
26905W        W43752  12.076  10.320   5.194  0.0082 -0.2150 -0.1912
26906W        W43753   1.417   7.285   0.174  0.3332 -0.1555 -0.1424
26907W        W43754  13.231   5.362  10.864 -0.3546  0.0104 -0.0811
26908W        W43755  17.080  18.190  13.378  0.0582 -0.1830  0.2290
26909W        W43756  14.261  16.704   3.252  0.2140  0.2906 -0.1396
26910W        W43757   5.737  11.066  12.648 -0.0127 -0.0184  0.2538
26911W        W43758   1.377   7.014   1.304 -0.3940  0.1212  0.0763
26912W        W43759   5.231   0.295   0.067  0.0613  0.1014  0.1155
26913W        W43760   3.767  15.006   5.230 -0.0102 -0.1026 -0.0309
26914W        W43761   7.551   6.437   4.148  0.2696 -0.0232 -0.2779
26915W        W43762  14.610   3.399  14.569  0.0389 -0.0748  0.1715
26916W        W43763  14.655   7.926  15.934 -0.1339 -0.0664 -0.3275
26917W        W43764   6.490   4.671   1.069  0.0597 -0.3181  0.0407
26918W        W43765   5.308   1.464   3.621  0.1617 -0.2294  0.0447
26919W        W43766   2.701   3.262   3.799 -0.0330 -0.2430  0.1318
26920W        W43767   4.029   5.848  15.966  0.2823  0.1134  0.0852
26921W        W43768  11.065   2.268   3.879 -0.2091 -0.0605  0.0682
26922W        W43769   9.589   0.342   5.314  0.3790 -0.1517 -0.1157
26923W        W43770   1.495   2.390  12.300  0.1476  0.2217  0.3618
26924W        W43771   0.770   1.977   3.322 -0.1686  0.1498  0.0557
26925W        W43772  13.521  14.964   0.482  0.0765 -0.1094  0.0847
26926W        W43773   4.559  11.714  14.767  0.1915 -0.0399 -0.4142
26927W        W43774   5.765  16.216   3.963  0.0011  0.1523  0.2048
26928W        W43775   9.497   3.773   1.184 -0.0139 -0.2818 -0.2696
26929W        W43776  13.526   1.995  15.394  0.1919  0.0110 -0.1784
26930W        W43777  18.136   6.265  15.263  0.3028 -0.0516  0.0956
26931W        W43778  11.809  13.479  15.660 -0.2538  0.0349 -0.1567
26932W        W43779  18.151   3.465   0.292 -0.1210  0.0357  0.1395
26933W        W43780  13.862   9.247  15.375  0.1248  0.1607  0.4642
26934W        W43781  14.506  16.950   1.962  0.0399 -0.4360  0.0529
26935W        W43782   2.070   1.660  15.802 -0.0516  0.1813  0.3678
26936W        W43783   1.022   1.421   6.029  0.0635 -0.2184  0.0743
26937W        W43784  14.150  16.343  10.648  0.1307 -0.3678 -0.0195
26938W        W43785  16.866  16.831  16.075 -0.1942 -0.3198  0.0445
26939W        W43786  16.925   0.658  13.427  0.0566 -0.0071  0.0781
26940W        W43787  17.476  16.966  13.289  0.1943 -0.0015 -0.1957
26941W        W43788  12.828  18.220   4.900 -0.2778 -0.0673 -0.1123
26942W        W43789  18.080   3.054  10.868  0.0758 -0.0306  0.0297
26943W        W43790   6.489  15.288  10.687 -0.1757  0.0947 -0.0864
26944W        W43791  14.643   1.309   4.607  0.3422 -0.0415  0.0415
26945W        W43792   5.229  13.583   0.083 -0.0724  0.1860 -0.2063
26946W        W43793  17.557  17.483  11.404  0.0138  0.2446 -0.0249
26947W        W43794  15.671  12.170  14.478 -0.0338 -0.0219  0.2127
26948W        W43795   6.181   1.677   2.708  0.2366  0.1192  0.0502
26949W        W43796  14.107  16.824   0.636 -0.1587  0.0893  0.1826
26950W        W43797   0.563  16.328   4.064  0.0912  0.0368  0.0266
26951W        W43798   2.572   3.567   5.942 -0.2030  0.1142  0.0288
26952W        W43799  10.182   5.920  11.714 -0.0624  0.2748  0.1298
26953W        W43800   9.351   8.176   2.074 -0.0910  0.2358 -0.1191
26954W        W43801  12.919   1.879  15.356  0.1908  0.2101 -0.0442
26955W        W43802   6.997  10.975   3.165 -0.5115  0.1643  0.0749
26956W        W43803  14.695  11.802   2.227  0.2549  0.2026 -0.1187
26957W        W43804  17.580   9.840   3.920 -0.2889 -0.0037 -0.1361
26958W        W43805   5.512   9.968  11.676 -0.1020  0.0770  0.0279
26959W        W43806  14.202   6.942   1.450 -0.0582  0.0601  0.2324
26960W        W43807   1.340  11.272   2.947  0.0716 -0.2168 -0.3640
26961W        W43808  13.641   8.478   3.747 -0.1604  0.2406  0.0796
26962W        W43809   0.809  16.410   2.139  0.2749 -0.3314  0.1303
26963W        W43810  17.103   8.708   4.720  0.0124  0.0817 -0.2125
26964W        W43811   9.071  13.873   2.819  0.0129  0.1574 -0.0548
26965W        W43812   6.711   8.302   1.081  0.3316 -0.0838 -0.3787
26966W        W43813   0.246  17.909  15.191  0.2278 -0.0821 -0.5110
26967W        W43814   8.663   2.710   1.341 -0.0998 -0.3044 -0.2806
26968W        W43815  18.284   0.752  10.639  0.1252  0.1575 -0.0341
26969W        W43816   1.315  10.659   4.585 -0.2900  0.0233  0.1038
26970W        W43817  12.060   0.008   3.619 -0.1985  0.2572  0.2358
26971W        W43818   6.667  11.743   6.284 -0.4539  0.1432  0.1034
26972W        W43819  13.408   4.347   2.981 -0.0644 -0.1487 -0.0969
26973W        W43820   2.342  15.926  13.475 -0.2222  0.1470 -0.1176
26974W        W43821   2.388  17.255  12.516  0.0614  0.0830  0.1403
26975W        W43822  15.022   8.920  14.280  0.1453  0.3299  0.1032
26976W        W43823   7.154   9.992   0.700 -0.4488 -0.1854 -0.2395
26977W        W43824   2.858   5.697   2.062  0.0355 -0.2614 -0.1178
26978W        W43825   1.906  13.426   0.814 -0.5279  0.2057  0.1489
26979W        W43826  14.478  12.124   3.717  0.2786 -0.1902 -0.0781
26980W        W43827   5.211  18.030  13.058 -0.2857  0.0257  0.5508
26981W        W43828   6.528  11.170  15.204 -0.0569  0.2646 -0.0175
26982W        W43829   3.630   3.157   0.694 -0.3322 -0.2215  0.0528
26983W        W43830  10.417  11.651   1.798  0.1321 -0.2716  0.0374
26984W        W43831   4.348   4.535  12.356 -0.0367  0.1740  0.0790
26985W        W43832   8.160   8.221  16.057 -0.1599  0.0691  0.0781
26986W        W43833  12.903   0.750   4.816  0.2264 -0.0686  0.0556
26987W        W43834  14.989   8.809  11.489  0.1968  0.0142  0.0933
26988W        W43835   3.270   0.424  10.867 -0.0290  0.0987 -0.0118
26989W        W43836   1.087   3.040   2.046  0.2008  0.1518 -0.2082
26990W        W43837   9.929   6.967   2.931 -0.1947 -0.0757  0.4128
26991W        W43838   6.940   7.702  14.323  0.2990  0.1502  0.2581
26992W        W43839   1.966   6.454  14.985 -0.1007  0.3749 -0.1197
26993W        W43840   9.655   2.333  14.501 -0.3298 -0.0262 -0.1094
26994W        W43841   7.074   9.745   3.194  0.0749 -0.1894 -0.0517
26995W        W43842   4.433   4.851  12.768  0.0726 -0.2117 -0.0988
26996W        W43843   3.390   4.896   2.475  0.0775 -0.0682 -0.2432
26997W        W43844   5.085  11.506  14.830  0.0949  0.3550 -0.1287
26998W        W43845  15.982   4.462   3.411  0.1394 -0.2667 -0.2135
26999W        W43846   4.933  13.718  11.530  0.0538  0.0654 -0.0690
27000W        W43847   4.908  11.968  13.848 -0.1592  0.3309  0.2436
27001W        W43848   7.214  11.414  14.294 -0.2379  0.2234  0.0269
27002W        W43849   4.972   5.863  12.464  0.1892 -0.1717 -0.1245
27003W        W43850   9.432  10.675  13.943  0.3605  0.1383 -0.2401
27004W        W43851  16.891   7.026  14.078  0.2491 -0.1127 -0.2034
27005W        W43852   4.233  11.569  13.503 -0.2414  0.0012 -0.0687
27006W        W43853   3.009  16.986  13.977  0.0375 -0.0099  0.3184
27007W        W43854  16.776   4.531   2.147  0.0168  0.0569  0.0277
27008W        W43855   6.796   0.594   3.684 -0.0625  0.0336 -0.0554
27009W        W43856  15.341   8.177   3.994  0.3768  0.0437 -0.3109
27010W        W43857  11.438  16.212   5.061 -0.2807 -0.0432  0.1539
27011W        W43858   5.111  13.277  12.621 -0.2468  0.1224 -0.1769
27012W        W43859  14.755  17.206   2.354  0.4281  0.1735  0.1619
27013W        W43860   0.176   9.839   4.677 -0.0003 -0.3579 -0.0499
27014W        W43861   5.912  14.694  13.361 -0.0016 -0.1109 -0.1825
27015W        W43862   0.731   9.688   3.598 -0.0310  0.1422 -0.4008
27016W        W43863  12.829  14.965   0.200 -0.2075  0.3606 -0.1672
27017W        W43864   7.705   6.331  13.205 -0.3130  0.1526  0.0817
27018W        W43865   5.930   6.264   3.967  0.0001 -0.0732 -0.0003
27019W        W43866  11.911  13.825  13.190  0.2009 -0.3165  0.0535
27020W        W43867  10.439   4.170   1.881 -0.1251  0.2115  0.3007
27021W        W43868  11.906   0.484  13.712  0.0647  0.0475  0.1818
27022W        W43869   6.925   7.255   1.892  0.1894 -0.3066  0.1561
27023W        W43870  15.510   6.871   4.814  0.2434 -0.1210 -0.2408
27024W        W43871   7.378   3.877   2.230  0.0137 -0.1793  0.1768
27025W        W43872   0.169  11.633   0.799 -0.2146 -0.3740 -0.0707
27026W        W43873  12.263   6.859   0.244  0.2659 -0.1788  0.4535
27027W        W43874  13.879   2.041  14.765  0.1644  0.1316 -0.0016
27028W        W43875   8.695  10.339   2.969 -0.1828 -0.0576 -0.0233
27029W        W43876   1.329   7.335   0.882  0.3182  0.0732  0.2074
27030W        W43877  14.544   7.086  12.777  0.1439  0.1753 -0.0427
27031W        W43878  17.887   7.181   2.533 -0.2662 -0.1884 -0.0460
27032W        W43879  12.021  16.308   1.614  0.0276 -0.0960 -0.1743
27033W        W43880  17.877   5.242  12.477 -0.0691  0.2603 -0.1107
27034W        W43881   2.233  11.440  13.789 -0.1217  0.2058  0.0241
27035W        W43882   5.235  13.534  12.187  0.3497  0.0858  0.1106
27036W        W43883   1.009   1.749   2.183  0.1420  0.3082  0.0618
27037W        W43884   8.701   4.936   3.050 -0.0154  0.1203 -0.1064
27038W        W43885   1.915  11.987  15.770  0.0428  0.0819 -0.0073
27039W        W43886   0.520   4.832  14.382 -0.0897 -0.0549 -0.2521
27040W        W43887   6.835  15.956   2.292  0.1968  0.0332 -0.1029
27041W        W43888  11.778  12.039   1.521  0.0067  0.1715 -0.0009
27042W        W43889   8.889  14.188  13.246  0.0038 -0.1033 -0.0120
27043W        W43890   7.366  13.216   5.034 -0.1448 -0.0803  0.1031
27044W        W43891   9.601  16.622  10.333 -0.2136 -0.0794 -0.0238
27045W        W43892   6.824  17.314  15.408 -0.0463  0.1608 -0.2372
27046W        W43893   6.693   1.948  15.411 -0.1376 -0.0332  0.2252
27047W        W43894  16.028   8.544  14.915 -0.0237 -0.0023 -0.0364
27048W        W43895  17.584  10.166   1.900 -0.1081  0.0597 -0.1113
27049W        W43896  15.008   0.217   3.608  0.1115 -0.0002 -0.0292
27050W        W43897   8.177  10.596   3.819 -0.0089 -0.4604 -0.0289
27051W        W43898   4.630   5.165  14.910 -0.2496  0.5409  0.1556
27052W        W43899   4.952  16.975   5.457  0.0739  0.2195 -0.1553
27053W        W43900   1.688  13.971   5.621  0.0698  0.1529  0.4738
27054W        W43901   2.183   0.398  12.648 -0.0863  0.2580  0.0737
27055W        W43902  17.264   0.688   0.734 -0.1506 -0.0161  0.0030
27056W        W43903  15.832   5.862   2.822  0.1723 -0.1653 -0.0233
27057W        W43904   9.262   0.739   3.067 -0.1660  0.2131 -0.2398
27058W        W43905   8.522   8.190  15.668  0.0212  0.2554 -0.1744
27059W        W43906   4.817  14.238  15.994 -0.0182  0.2370  0.3787
27060W        W43907   6.370   1.879   2.228 -0.0008 -0.0975 -0.1586
27061W        W43908   2.469   5.590   3.541  0.1175  0.1253  0.1187
27062W        W43909   0.292   9.440   1.248  0.0464 -0.0970 -0.0490
27063W        W43910  17.207  12.892  11.683 -0.1140 -0.1076 -0.0181
27064W        W43911   7.962  11.300  13.246 -0.0240  0.4850 -0.2707
27065W        W43912   8.754   8.363   3.736 -0.1193 -0.0434 -0.0653
27066W        W43913  16.432  16.073  11.167  0.2188  0.0942  0.1066
27067W        W43914   5.663   1.567   2.628  0.2748 -0.0520  0.1451
27068W        W43915  14.745  18.057  13.245  0.2152  0.0658 -0.0525
27069W        W43916   2.260   9.493   3.284 -0.2102 -0.2197 -0.0648
27070W        W43917   4.154   8.506   1.816  0.0950  0.1885  0.0088
27071W        W43918   6.963   4.690   4.923 -0.0484  0.2954  0.0690
27072W        W43919  16.378  11.738   1.494 -0.1439  0.1752 -0.2741
27073W        W43920  18.119  12.375   5.199  0.0349 -0.0623 -0.0752
27074W        W43921  16.673  11.473  15.361 -0.0077 -0.0381 -0.5005
27075W        W43922   4.204   5.429  16.108 -0.2443  0.1907 -0.2344
27076W        W43923   2.838  17.749   2.557 -0.0024 -0.2695 -0.0786
27077W        W43924   0.990   1.684   4.599 -0.0580 -0.0968  0.2049
27078W        W43925  10.781   1.182   4.448 -0.2928 -0.1018 -0.0569
27079W        W43926  12.448   3.388  13.215  0.0217  0.0090 -0.0201
27080W        W43927   6.615   7.778   1.968 -0.0597  0.0700 -0.0978
27081W        W43928   5.030  10.835   3.099 -0.0410  0.2198 -0.4908
27082W        W43929  17.160   4.572  13.108 -0.2567 -0.4643  0.0493
27083W        W43930  11.050   5.777   3.959  0.0743  0.0784 -0.0797
27084W        W43931  12.782   8.878  12.002 -0.5638  0.0804  0.0378
27085W        W43932  13.706  13.785  11.827  0.0309  0.0946 -0.0995
27086W        W43933   8.616   7.598  11.425 -0.0205 -0.2414  0.2120
27087W        W43934   2.822  10.311   0.166 -0.2462  0.0439  0.0441
27088W        W43935   2.080   9.954  15.691 -0.0912  0.0916 -0.0164
27089W        W43936   6.798  14.014  14.042 -0.1604  0.5852  0.3629
27090W        W43937  17.058  14.020  15.292 -0.1183 -0.2238  0.0021
27091W        W43938  17.282   3.870  11.726 -0.2330 -0.0710 -0.4698
27092W        W43939   9.870   8.215   4.648 -0.3087 -0.5145  0.2854
27093W        W43940   7.550   1.212   2.729 -0.0832  0.2127 -0.1247
27094W        W43941   6.791   2.426  12.389 -0.0037 -0.0211 -0.2238
27095W        W43942   1.033  14.819   3.582 -0.1763  0.2037  0.1470
27096W        W43943  17.607   9.615   3.096 -0.1197  0.2266  0.0789
27097W        W43944   0.443  12.412  13.592  0.2701  0.1679  0.2011
27098W        W43945   2.887  13.830   2.753  0.0432  0.0277 -0.1357
27099W        W43946   8.647   3.566   0.505  0.3530  0.1135 -0.0598
27100W        W43947   5.024  10.046  13.060  0.0990 -0.0068 -0.0518
27101W        W43948   7.818   1.616   2.682  0.0458 -0.2942 -0.0801
27102W        W43949   1.680  14.766  13.937  0.0409 -0.0550 -0.0030
27103W        W43950   1.032  15.033   0.336 -0.4039  0.2066 -0.1039
27104W        W43951  10.290   6.160  16.138  0.2165  0.2522  0.1958
27105W        W43952  16.090  14.281  12.096 -0.3388 -0.3581  0.0685
27106W        W43953  12.208  12.044  14.635 -0.2885 -0.1356 -0.0231
27107W        W43954   1.871  14.381   4.891 -0.1752  0.1436 -0.0367
27108W        W43955  14.246   9.727   0.093 -0.1231  0.1467  0.1837
27109W        W43956  10.112  17.347   4.109  0.0191 -0.2108  0.3131
27110W        W43957   8.295  15.460   4.287  0.1601  0.0180  0.3012
27111W        W43958  11.805   6.753  11.641 -0.0681 -0.1764 -0.2400
27112W        W43959   5.193  14.903  14.443  0.0225  0.3628 -0.0139
27113W        W43960   7.007   1.337  11.455  0.0718 -0.1367  0.0198
27114W        W43961   4.413  16.264   3.560  0.2529 -0.0752 -0.3095
27115W        W43962   6.927   6.289  15.261  0.1660  0.1499  0.4755
27116W        W43963   0.589  11.984   1.930  0.0391 -0.1201 -0.1438
27117W        W43964   1.119   0.915   5.200  0.0398  0.4507 -0.0793
27118W        W43965   3.560   9.808   3.268  0.0284  0.0797 -0.0278
27119W        W43966   0.226  11.575   0.280  0.2322 -0.0387  0.0301
27120W        W43967   6.375   6.912   2.937 -0.1761  0.0442 -0.0677
27121W        W43968   5.088   4.960   4.763 -0.0788  0.0671  0.0566
27122W        W43969  17.470   7.919  15.140 -0.1536 -0.1322  0.1659
27123W        W43970  11.687  13.942   4.424  0.1058  0.1002 -0.0439
27124W        W43971  17.012  16.935   2.062  0.0957  0.2355  0.0283
27125W        W43972   9.693   2.672  12.547 -0.2753  0.3901 -0.0654
27126W        W43973   1.795  11.195  15.845  0.1978  0.3294  0.2333
27127W        W43974   0.357  15.592  14.101 -0.0091  0.2568 -0.0893
27128W        W43975   8.021  14.401   5.238 -0.1688 -0.0222  0.0408
27129W        W43976   3.661  12.476   1.954  0.4340 -0.0723  0.1853
27130W        W43977  10.229  12.842   2.014  0.3105  0.3848  0.1974
27131W        W43978  17.987   3.644   1.921  0.0360  0.1177  0.1385
27132W        W43979  16.447   9.138   3.436  0.0317  0.2666 -0.0514
27133W        W43980   7.038   1.429  15.451  0.0470  0.1754  0.0744
27134W        W43981   2.676   8.229   0.861  0.1610 -0.0314  0.0288
27135W        W43982   2.114  10.630   2.519  0.0489 -0.2502 -0.0644
27136W        W43983  15.538   7.162  14.401  0.1758 -0.1648  0.3050
27137W        W43984  12.130   2.423  13.281  0.1964 -0.4190  0.2598
27138W        W43985   2.308   8.970  12.719 -0.1942  0.1683 -0.2499
27139W        W43986   2.210  16.450  13.446  0.0193  0.1953 -0.0695
27140W        W43987   1.048   4.374  15.196  0.0362  0.1231  0.3606
27141W        W43988   7.497   4.294  14.802  0.0324 -0.3285  0.0719
27142W        W43989   5.050   9.086   3.234  0.0146 -0.0738 -0.1738
27143W        W43990  14.163   0.219   1.878  0.0176  0.0173 -0.1596
27144W        W43991  18.063   6.959  15.572 -0.2966 -0.1337  0.0369
27145W        W43992   8.580  10.656   0.919 -0.0554  0.2097 -0.1749
27146W        W43993  12.086  12.541   5.003 -0.1209  0.0272  0.0705
27147W        W43994   1.598   4.752  14.564 -0.2519 -0.1416  0.1044
27148W        W43995   1.572   3.609   4.453  0.2067  0.0552 -0.4223
27149W        W43996  12.573   6.127  13.447  0.0688 -0.1239  0.0907
27150W        W43997  17.959  11.234  15.838  0.1393  0.1595  0.0887
27151W        W43998   4.756   9.147   1.821  0.1577  0.1001 -0.0694
27152W        W43999   7.400  15.443   1.556 -0.0804  0.2157  0.2512
27153W        W44000  15.804  11.641  15.446  0.2230 -0.0672  0.2208
27154W        W44001   2.118  18.029   1.713 -0.0277 -0.0929 -0.1139
27155W        W44002  13.829  17.277  14.571  0.0994  0.1861  0.0666
27156W        W44003   2.368  11.474  12.165 -0.2805  0.0890  0.1551
27157W        W44004   9.490   6.447  13.828 -0.0949  0.1495  0.2572
27158W        W44005  12.042   4.121   2.565 -0.1771  0.0317 -0.2206
27159W        W44006   4.859   8.711   3.949  0.1846 -0.0504 -0.0578
27160W        W44007   0.627   4.849   0.305  0.1685  0.2625 -0.0383
27161W        W44008   4.140   3.331   3.425 -0.2039  0.2664  0.2476
27162W        W44009   0.481  15.101  15.688  0.1884  0.0477  0.0975
27163W        W44010  13.007  11.120   4.513  0.1982  0.1977 -0.0314
27164W        W44011   6.611   0.615   1.090 -0.1647  0.2184 -0.2613
27165W        W44012   8.846   6.820  14.800  0.0167 -0.1390  0.2229
27166W        W44013   0.095  17.811   4.522 -0.2145 -0.1331 -0.2744
27167W        W44014   0.638  16.907   2.279 -0.0134  0.2097  0.0434
27168W        W44015   2.016   8.057   3.954  0.2037 -0.1428 -0.2212
27169W        W44016   4.724  15.861  15.114  0.5776  0.1639  0.0571
27170W        W44017   6.977   0.568  12.953  0.2644  0.3750  0.0044
27171W        W44018   2.664  12.027   2.925 -0.2171 -0.0448  0.0533
27172W        W44019   6.714  10.608   1.420 -0.1671 -0.1448 -0.0587
27173W        W44020   9.811  11.543  11.532 -0.0294  0.3013 -0.0501
27174W        W44021   2.507   9.577   0.412  0.0239 -0.0911 -0.0146
27175W        W44022  12.975   6.125  13.823  0.0901  0.1850 -0.3934
27176W        W44023  17.560  15.748   0.415 -0.4273 -0.1983 -0.1438
27177W        W44024  10.978   7.669   3.590  0.0656  0.1024  0.3740
27178W        W44025   8.960   8.390  15.871 -0.3216 -0.2318 -0.0957
27179W        W44026  12.152   5.959   4.990 -0.2649  0.1357 -0.0652
27180W        W44027  13.367   2.038   3.613  0.3348 -0.2629  0.2267
27181W        W44028   0.499   4.877   5.253 -0.0900  0.0710 -0.0285
27182W        W44029  15.805   3.615  15.816  0.1201  0.2710  0.1986
27183W        W44030  10.326   0.735   3.786 -0.0652 -0.0286 -0.2102
27184W        W44031   9.938  16.917   3.098  0.2972  0.0003  0.1741
27185W        W44032  14.319   8.815   2.715 -0.0165  0.0841  0.0236
27186W        W44033   5.648   8.366   4.513  0.0609 -0.0030  0.0485
27187W        W44034  13.879  15.344  12.691 -0.1442 -0.2574 -0.0196
27188W        W44035  17.552   7.649   5.505 -0.0468 -0.1011  0.3843
27189W        W44036  13.510   8.916   0.348  0.0379  0.0414  0.0551
27190W        W44037   8.494  18.237   3.860 -0.0345  0.1944  0.1537
27191W        W44038  12.279   0.617  12.296 -0.0032  0.0535 -0.0343
27192W        W44039   3.115   5.731   5.188  0.1374 -0.1283  0.1300
27193W        W44040  16.943   2.052   1.579 -0.3050  0.1469 -0.1741
27194W        W44041   3.857   1.703   1.333  0.1942 -0.2262 -0.1443
27195W        W44042  16.850  14.369  15.638  0.1019  0.0154  0.0630
27196W        W44043  12.826   5.403  11.304 -0.0968  0.0760 -0.0818
27197W        W44044   1.009  12.576   3.350 -0.0047 -0.0895 -0.0702
27198W        W44045   6.763   2.852  12.171 -0.0458 -0.0949  0.1472
27199W        W44046  14.738  12.319  14.855 -0.0152 -0.1889  0.1048
27200W        W44047   9.026   4.052  13.614  0.2443  0.0943  0.2727
27201W        W44048   7.283  17.584  16.071  0.3688 -0.0856  0.5063
27202W        W44049   6.836   2.888  13.757 -0.2707  0.0421  0.2891
27203W        W44050   9.968  13.105  12.507  0.2844 -0.1321  0.1960
27204W        W44051  12.457  15.575  13.586  0.0540  0.0974 -0.0687
27205W        W44052  13.543  15.686  11.976 -0.0063 -0.2833 -0.1528
27206W        W44053   7.516   7.184   0.571  0.0846  0.1923  0.2181
27207W        W44054   2.871   8.492  14.203 -0.0715  0.0751 -0.2801
27208W        W44055   7.030  15.117   2.629 -0.0202 -0.0130 -0.0437
27209W        W44056  10.137   6.148   2.956 -0.1418 -0.3386  0.1603
27210W        W44057   2.129   3.547  15.081  0.0048  0.1273  0.1592
27211W        W44058  11.619   8.877  14.336 -0.1135  0.1442 -0.0762
27212W        W44059  16.987  16.013   2.570  0.0056 -0.1967 -0.0278
27213W        W44060   4.857  12.348   3.359 -0.1751  0.1366 -0.0019
27214W        W44061  18.309   1.600   5.027 -0.3672 -0.0110 -0.0176
27215W        W44062   8.238  12.247   4.915  0.1216 -0.1946 -0.0460
27216W        W44063  12.768  10.616  11.375 -0.2542 -0.1079 -0.0208
27217W        W44064  12.164  10.562   0.840  0.0041  0.0262  0.1982
27218W        W44065   5.701   2.655   3.370  0.1262  0.0832  0.0429
27219W        W44066   9.225  15.049   3.882 -0.1070 -0.0461  0.1000
27220W        W44067  10.711   7.882   1.648  0.0705  0.2712 -0.1816
27221W        W44068   4.827   7.183   3.767  0.1382 -0.3148  0.1736
27222W        W44069   3.012   7.074   6.063 -0.3106 -0.0253 -0.0712
27223W        W44070  11.934   2.157  12.774 -0.0151  0.1360  0.3722
27224W        W44071   1.032  11.843   1.806 -0.3576  0.3266 -0.1371
27225W        W44072  17.418   9.328  13.920 -0.3134 -0.2404  0.2234
27226W        W44073   6.878   4.491   3.244  0.0562  0.0123 -0.0387
27227W        W44074  12.561   8.136   2.499 -0.0628 -0.2741  0.0342
27228W        W44075   7.256  12.879   2.411  0.0486  0.1240 -0.0422
27229W        W44076   6.266  16.390  10.617  0.1928  0.0694 -0.0766
27230W        W44077   0.108   5.224  11.160  0.1984  0.0939 -0.2284
27231W        W44078   0.224   2.891  13.311 -0.1265 -0.0313  0.0420
27232W        W44079   2.632  13.871   4.607  0.1822  0.1140 -0.1552
27233W        W44080  12.928   8.957  11.065  0.0045 -0.1479 -0.1185
27234W        W44081   2.908  17.476   4.307 -0.2085 -0.0695 -0.2409
27235W        W44082   9.084   8.090  15.449 -0.0050  0.1018 -0.1542
27236W        W44083   8.107  17.055   2.894 -0.0488  0.0024  0.0072
27237W        W44084   2.141   3.038  14.894 -0.0710  0.2751 -0.1557
27238W        W44085   8.852  14.377  16.160 -0.0804  0.0232  0.0224
27239W        W44086   6.690  16.383  11.262 -0.0602  0.2068  0.1594
27240W        W44087   4.910   2.368   2.896  0.0468 -0.2021  0.0128
27241W        W44088   8.158   3.751  12.994 -0.0519  0.1930 -0.2083
27242W        W44089   8.918   8.757  14.105  0.1529  0.1275 -0.0404
27243W        W44090   3.167  16.522   3.953  0.1124  0.0981 -0.1213
27244W        W44091  16.970   9.224   3.815  0.2243 -0.1736 -0.2172
27245W        W44092  13.337   6.405  14.316 -0.0273 -0.0501 -0.1153
27246W        W44093   6.957   3.988  15.272 -0.0425  0.0928  0.0083
27247W        W44094   3.315   2.695   5.018  0.0042  0.1315  0.1850
27248W        W44095  11.677   0.989  11.166 -0.1714  0.0004  0.0791
27249W        W44096   4.834  17.669   2.106  0.0350 -0.0683 -0.2158
27250W        W44097  15.588  10.101   1.346  0.0258  0.0761  0.0528
27251W        W44098  13.028   3.229   1.257 -0.0885  0.1200  0.0303
27252W        W44099   6.865   8.624   5.138 -0.1283  0.2384  0.1347
27253W        W44100  10.716   8.167   3.290 -0.0038 -0.1965 -0.3517
27254W        W44101  12.913  10.983  14.237  0.4626 -0.2039 -0.1633
27255W        W44102   2.568  16.333   2.051  0.1339  0.1285  0.3057
27256W        W44103   1.603  16.111  12.785  0.0608  0.0548  0.2053
27257W        W44104  16.080   7.901   3.357 -0.0126  0.1964 -0.3240
27258W        W44105  14.127  10.414   4.272 -0.1403  0.0928  0.0194
27259W        W44106   3.624  11.363   2.730 -0.3286  0.1058 -0.2302
27260W        W44107  17.264  16.788   0.671 -0.0027  0.0109 -0.1241
27261W        W44108  16.331  14.842   3.982  0.0272  0.0655  0.1523
27262W        W44109   8.394   0.755  15.760 -0.2090  0.1802  0.0679
27263W        W44110   5.966   7.420  13.612 -0.0008  0.0943 -0.0363
27264W        W44111  16.781  10.082   1.562  0.1682 -0.1369  0.0894
27265W        W44112   9.698   7.232  14.738 -0.0390  0.2692 -0.1395
27266W        W44113   8.018   3.350  13.241  0.1041 -0.2801 -0.0710
27267W        W44114  16.171  13.249   4.625  0.1025 -0.2022  0.1004
27268W        W44115   5.964   0.906   0.818 -0.1842 -0.2952 -0.1345
27269W        W44116  13.902  11.252  13.063 -0.1405 -0.2403  0.1774
27270W        W44117   4.883  12.821   5.559  0.2193  0.2765  0.0580
27271W        W44118  10.413   4.075  11.956 -0.1009  0.3192  0.1496
27272W        W44119   7.321   3.045  12.993  0.0945  0.1030 -0.2576
27273W        W44120  10.638  11.604   6.273 -0.2877  0.3506  0.2007
27274W        W44121  15.255   7.342   5.099 -0.1796  0.0348 -0.0182
27275W        W44122   5.217   1.865   1.333 -0.1829 -0.0055  0.0321
27276W        W44123  18.007  11.101  12.936  0.1279  0.1939  0.2663
27277W        W44124   7.927  13.030   4.325  0.1471  0.2288  0.2043
27278W        W44125   3.738   8.546  13.369 -0.1829  0.2631 -0.0019
27279W        W44126   4.861   6.040   0.324  0.2277  0.5743  0.0678
27280W        W44127  10.868   7.615  15.300  0.2183  0.1571  0.4458
27281W        W44128   8.905  14.515  14.789  0.0678 -0.0327 -0.0027
27282W        W44129  10.850  14.456  11.064  0.3713  0.0674  0.0213
27283W        W44130   0.304   3.036   2.955  0.2067 -0.2510 -0.2686
27284W        W44131   1.379   6.425   0.120 -0.1285  0.4220  0.3277
27285W        W44132  16.832  15.880   4.596  0.1113 -0.1609 -0.1048
27286W        W44133   8.732   0.578   2.638  0.1638 -0.1684  0.1494
27287W        W44134  16.725  17.946  11.921 -0.1650  0.1158  0.0625
27288W        W44135   5.883   9.919  15.736  0.1030 -0.0524 -0.1002
27289W        W44136   5.846  15.429  15.121 -0.0738 -0.0989  0.0649
27290W        W44137   5.608   0.869   4.346 -0.0846 -0.1729  0.0565
27291W        W44138   7.269  12.737   3.305 -0.0435 -0.1773  0.1245
27292W        W44139  10.018   5.403  15.062 -0.2501 -0.0680  0.2961
27293W        W44140  13.254  17.051   5.023  0.0901 -0.0114 -0.0684
27294W        W44141   4.059   3.144  13.319  0.1089  0.1768  0.0887
27295W        W44142   8.308  17.822  11.431  0.0022  0.1032  0.0453
27296W        W44143  14.300   5.734  13.328 -0.0904 -0.0678 -0.0477
27297W        W44144   7.584   1.092   1.861 -0.2073 -0.0984  0.0030
27298W        W44145   7.237  12.117  14.998  0.0795 -0.0262 -0.0504
27299W        W44146  13.147   2.612  11.588  0.1879  0.3038  0.1301
27300W        W44147   0.727  16.135  16.127 -0.1443  0.1879 -0.0834
27301W        W44148   1.348   5.599   4.619  0.1724  0.1599 -0.0374
27302W        W44149  12.353  12.425   2.714  0.0378  0.1205 -0.1235
27303W        W44150  17.712  10.143  11.672  0.2896 -0.0113 -0.0664
27304W        W44151   9.278   9.924  13.048  0.1918  0.0931  0.0075
27305W        W44152  15.402   7.707   1.834 -0.0661 -0.1520  0.2463
27306W        W44153  10.772   7.991  14.736 -0.1095 -0.0957  0.0133
27307W        W44154  12.391   4.083  13.900 -0.0045  0.2124 -0.0867
27308W        W44155   8.809   4.523  15.028  0.0890  0.2199  0.1208
27309W        W44156  17.924   8.841  11.984 -0.2763 -0.3345  0.1781
27310W        W44157  10.608  12.872   2.749  0.2119 -0.0873 -0.0565
27311W        W44158   4.994   2.643  14.040 -0.2971 -0.1059 -0.0935
27312W        W44159   7.062  16.020   1.826 -0.3015 -0.1303  0.0607
27313W        W44160  16.289  12.887  14.776  0.1218  0.3069  0.4014
27314W        W44161  16.379   4.945  13.278 -0.2065  0.0455  0.0728
27315W        W44162   4.207  11.599   1.132 -0.2653 -0.0150 -0.0278
27316W        W44163   3.430  13.459   4.710 -0.2761  0.1971  0.3894
27317W        W44164   7.923   9.900   5.792 -0.1118 -0.3853 -0.2246
27318W        W44165   8.802  13.202  11.474  0.1646 -0.0236  0.1166
27319W        W44166  17.527  18.171  12.474  0.0051 -0.1192 -0.0481
27320W        W44167   8.554   3.058   1.761 -0.0213 -0.0778 -0.1109
27321W        W44168   8.783  14.301  12.598 -0.1411 -0.2463  0.0725
27322W        W44169   6.550   6.914  16.163  0.2293 -0.0352 -0.0160
27323W        W44170   3.205  11.369   1.972 -0.0362 -0.0701 -0.2224
27324W        W44171  17.173   0.920  14.832  0.0475  0.0937  0.0286
27325W        W44172   5.315   7.281   3.052 -0.0798 -0.0850  0.0743
27326W        W44173  12.082   2.375  15.840  0.0359 -0.0575  0.2215
27327W        W44174   0.882  12.464   0.549 -0.2985  0.2556 -0.0508
27328W        W44175   2.360  14.620   0.058  0.0561 -0.5511 -0.3357
27329W        W44176  15.279  15.003  12.715  0.0420 -0.1141 -0.2990
27330W        W44177   6.740  17.282   3.506 -0.1231 -0.3311 -0.3916
27331W        W44178   3.835  13.751  14.104 -0.2334  0.0955 -0.0723
27332W        W44179   4.291  16.596  11.551  0.0756 -0.2675  0.0950
27333W        W44180   2.170   8.923   0.434  0.1710  0.1175  0.1826
27334W        W44181  17.434  10.880  13.714  0.3907  0.1716  0.0947
27335W        W44182  13.500   3.697   3.521  0.0392 -0.4358 -0.0972
27336W        W44183   8.315  14.250   1.920 -0.3894 -0.1558 -0.0420
27337W        W44184   1.965  12.690  13.662 -0.1795 -0.0990 -0.3084
27338W        W44185  11.790   4.004   3.958  0.1809  0.2114  0.1840
27339W        W44186  11.420   7.185   0.681 -0.0485 -0.2563  0.0162
27340W        W44187   4.140   8.356  16.116  0.0177 -0.0325 -0.3797
27341W        W44188  18.327   1.691   3.414 -0.0680  0.1006 -0.0509
27342W        W44189   2.839  18.188  14.668 -0.0528  0.2322  0.1086
27343W        W44190   7.253   4.128   3.211 -0.3880  0.4218  0.0566
27344W        W44191  15.807  14.899   5.041 -0.1547  0.1963  0.2100
27345W        W44192  13.410   3.825  15.619 -0.2932  0.1344 -0.2087
27346W        W44193   4.184  15.178   2.648  0.2043  0.1976 -0.1415
27347W        W44194   6.300   9.865   2.399 -0.1425  0.3458  0.1173
27348W        W44195   9.340   3.303   4.672  0.1323  0.3471 -0.1273
27349W        W44196   8.511   2.489  14.829 -0.0146 -0.2095 -0.0214
27350W        W44197   6.060  12.519   2.894  0.0007  0.1933  0.1726
27351W        W44198  11.226   0.174   3.086  0.0610 -0.1269 -0.0168
27352W        W44199  13.649  13.735  14.314  0.0430 -0.1968  0.2172
27353W        W44200   1.239  14.118   2.559  0.2263 -0.1007 -0.2404
27354W        W44201  18.237  17.109   1.923  0.1755 -0.1809  0.0614
27355W        W44202  15.375  18.242  14.168  0.1796 -0.0919 -0.2293
27356W        W44203   1.266  13.610   4.535  0.0924  0.1437 -0.0920
27357W        W44204   0.549  12.134  15.335  0.1635  0.0833 -0.2025
27358W        W44205  12.927  10.434   0.784 -0.0342 -0.0660  0.0204
27359W        W44206   3.675   4.490  15.098  0.0704  0.0973 -0.1358
27360W        W44207  16.083   1.345   0.452  0.1735 -0.1278  0.3469
27361W        W44208  10.710   9.265  16.104  0.1337 -0.0922  0.0618
27362W        W44209   8.361   0.705  12.921 -0.1612 -0.1119  0.0506
27363W        W44210  13.264  11.597  15.387  0.2234  0.0506  0.1672
27364W        W44211  15.331   2.700  10.812  0.2113 -0.1274 -0.3004
27365W        W44212  17.120   4.479  14.401 -0.0660 -0.1392  0.0681
27366W        W44213   9.630   8.455   2.431 -0.1949 -0.5001  0.0569
27367W        W44214   3.152   2.099  13.870 -0.2161  0.2306  0.0439
27368W        W44215  14.931  15.030  11.872  0.0149  0.3690  0.0805
27369W        W44216   3.975  15.743  13.246 -0.0100  0.0748  0.1647
27370W        W44217   8.873   4.985   3.508 -0.0816 -0.0784 -0.5066
27371W        W44218  12.221  13.756   0.797 -0.1647  0.0538  0.0013
27372W        W44219  17.631  14.183  13.277 -0.2788  0.4520 -0.2596
27373W        W44220   6.248  16.865   4.227 -0.0016 -0.2964 -0.1011
27374W        W44221   4.812  13.495   4.669 -0.1763 -0.0290 -0.0796
27375W        W44222  13.078   0.856  13.043 -0.0000 -0.1447  0.1208
27376W        W44223  16.854   7.353  15.548 -0.1302 -0.1486  0.0116
27377W        W44224  16.188   8.179  11.774 -0.0008 -0.1190 -0.1047
27378W        W44225   8.623  13.519   5.295  0.0938  0.1256 -0.2475
27379W        W44226  17.728  17.524   4.830  0.1423 -0.0148 -0.0906
27380W        W44227  16.123   8.228  10.851  0.1344 -0.2679 -0.0967
27381W        W44228  13.976  17.118   4.531 -0.1527 -0.1215  0.0481
27382W        W44229  12.685  17.564  13.334  0.0491 -0.0392  0.1162
27383W        W44230   0.571   4.790  12.832 -0.0997 -0.3171  0.1038
27384W        W44231   7.632  18.249   5.206 -0.0259  0.3542  0.0677
27385W        W44232  10.155  15.039   1.070 -0.2165  0.2047  0.1070
27386W        W44233   2.840  16.720   0.469 -0.1340 -0.1188  0.1386
27387W        W44234  16.777  17.083   0.335 -0.1532 -0.2811  0.1317
27388W        W44235  18.205   9.802  13.564  0.2800  0.0913 -0.1116
27389W        W44236  16.565  15.426  13.806  0.3192 -0.2366  0.1227
27390W        W44237   0.730  15.380   2.830 -0.1450 -0.1101  0.1977
27391W        W44238  10.695  17.614   3.143 -0.1466 -0.4225  0.1798
27392W        W44239  15.846  15.664  14.067  0.1131  0.0685 -0.0136
27393W        W44240  11.237   3.612  15.925 -0.0221  0.1894 -0.2046
27394W        W44241   9.881   4.635   3.197 -0.0003 -0.4473  0.0256
27395W        W44242  15.269   4.833  11.635 -0.1394  0.0577 -0.0854
27396W        W44243   1.920   7.734  12.785  0.2606  0.3123 -0.0162
27397W        W44244   1.959   9.021   3.459  0.0889  0.0974  0.0330
27398W        W44245  17.259   9.979  11.864 -0.2826 -0.1911  0.4035
27399W        W44246   4.307  17.459   0.598  0.0695 -0.1560 -0.2212
27400W        W44247  14.947  14.023   0.099  0.2383 -0.3169  0.1960
27401W        W44248  12.954  16.746   0.130  0.1333 -0.1753 -0.0757
27402W        W44249   2.069   1.953  11.903 -0.3200 -0.1847  0.3488
27403W        W44250  14.224   2.709  12.706  0.0628  0.2972 -0.0025
27404W        W44251   4.149   7.899  12.629 -0.1804  0.0031  0.1282
27405W        W44252  17.356   1.388   4.036  0.1053 -0.2102  0.0908
27406W        W44253  15.536  17.725  12.813 -0.2159 -0.1759 -0.0013
27407W        W44254   0.054   9.314   4.911 -0.0148 -0.0181  0.0100
27408W        W44255   1.386   0.236  14.371 -0.0026 -0.0894 -0.0356
27409W        W44256   6.703   8.556  13.798  0.2386  0.0412 -0.0894
27410W        W44257   2.538  14.874   1.980 -0.1163 -0.1710 -0.0604
27411W        W44258  15.854   0.188   2.319  0.1753 -0.1171 -0.0385
27412W        W44259  13.475  17.653   5.722  0.0178 -0.0553 -0.4399
27413W        W44260   6.723   0.963   4.228 -0.0005  0.1393 -0.2369
27414W        W44261  15.581   1.116   3.018  0.3413  0.0413 -0.0078
27415W        W44262   5.622   6.153  11.874 -0.3237 -0.2365  0.4229
27416W        W44263  11.277  15.386   4.906  0.0840 -0.1376  0.0218
27417W        W44264   3.353   5.189  13.257  0.0242  0.0265 -0.1429
27418W        W44265  13.497  15.717   3.872  0.0539  0.0640  0.1129
27419W        W44266   6.534  13.889   1.240  0.0158  0.0205 -0.0698
27420W        W44267  10.093  18.042   0.673  0.0881  0.0389  0.3271
27421W        W44268   7.252   0.149  12.270  0.2530  0.1985 -0.4690
27422W        W44269   1.304  14.951  13.541 -0.2996 -0.1048  0.1153
27423W        W44270  14.471   7.989  13.395 -0.2607 -0.2448 -0.0737
27424W        W44271  17.229   7.824   4.853 -0.3748 -0.0222 -0.1786
27425W        W44272  10.551  15.267   1.356 -0.0387  0.1871  0.2703
27426W        W44273  16.278   0.735   1.608 -0.0262  0.2073  0.0506
27427W        W44274  10.505   2.113   4.743  0.3735  0.3282  0.1799
27428W        W44275   2.659   8.305   3.347  0.0568  0.0488  0.0029
27429W        W44276   3.913   9.013   5.919  0.0789 -0.0112 -0.1178
27430W        W44277   2.668  11.117   3.770 -0.0099  0.1772  0.1085
27431W        W44278  14.066  11.628  15.639 -0.1171 -0.0805 -0.0334
27432W        W44279  17.890   2.688   2.859  0.4287 -0.3148  0.0823
27433W        W44280  16.006  17.707   4.137  0.0864 -0.3262  0.0895
27434W        W44281  14.916   9.335  13.448 -0.0894 -0.2402 -0.2528
27435W        W44282  17.634  11.274   1.219  0.1212 -0.1743 -0.1279
27436W        W44283  17.143   2.714   0.107 -0.0570  0.0519  0.1895
27437W        W44284  17.428   8.420  13.503  0.1335  0.0160 -0.2985
27438W        W44285   2.125   6.219   0.457  0.2896  0.1455 -0.1699
27439W        W44286  12.450  13.003  13.618 -0.1573  0.4355 -0.1173
27440W        W44287   8.953   6.305  11.386  0.0300  0.1088 -0.1649
27441W        W44288   5.754   1.761   1.230 -0.1626  0.1980 -0.1742
27442W        W44289   7.723  17.061  13.504  0.0036  0.0880 -0.1259
27443W        W44290   3.329   8.130   5.164  0.2131  0.0248  0.2294
27444W        W44291  16.332   1.665  14.079 -0.1753  0.0398  0.0173
27445W        W44292  15.895  10.240   2.595 -0.1799  0.2503 -0.1335
27446W        W44293   6.533   4.553  13.334 -0.0698  0.0124 -0.1994
27447W        W44294   2.078  16.007   2.736 -0.1129 -0.2661 -0.1115
27448W        W44295   3.333   3.937  11.700 -0.0388 -0.0356  0.2030
27449W        W44296   0.730  15.899   0.642  0.1061 -0.2190 -0.1591
27450W        W44297  17.471   0.643   3.487  0.0477  0.1723  0.1537
27451W        W44298  13.018  13.861   5.227  0.0197  0.3543 -0.2459
27452W        W44299   1.873   7.739   0.692 -0.0498  0.0756 -0.1434
27453W        W44300  11.480   7.365  14.100 -0.0540  0.2431 -0.0035
27454W        W44301  14.564  13.486  11.978  0.0460  0.2250  0.1150
27455W        W44302  17.860  12.184  11.647  0.0937  0.0659 -0.2794
27456W        W44303   2.245  10.253   3.417  0.0009  0.0542 -0.1369
27457W        W44304   3.420  17.510   0.484  0.1465 -0.3646  0.1496
27458W        W44305   3.222   2.097   5.089  0.0099 -0.2058 -0.0669
27459W        W44306  16.523  14.091  11.857  0.1794  0.0232 -0.2234
27460W        W44307   2.419   0.257   2.457  0.3076 -0.0290 -0.3244
27461W        W44308   7.835   6.361   3.710 -0.0355 -0.1808 -0.1601
27462W        W44309   1.963  14.248  15.059 -0.3045  0.2287 -0.2418
27463W        W44310  16.846  11.216  10.455  0.1039 -0.1072 -0.1137
27464W        W44311  15.916   4.308   5.603 -0.3697  0.1128 -0.2109
27465W        W44312  16.728   8.378   2.838 -0.1667  0.0853 -0.0755
27466W        W44313  14.304  17.760  13.100  0.1979 -0.2623 -0.0469
27467W        W44314   2.418  15.309   1.093  0.1643 -0.0488 -0.0071
27468W        W44315  11.793  10.332   4.654  0.0208  0.0571 -0.1799
27469W        W44316   5.320  16.220  13.398 -0.0614 -0.2084  0.0837
27470W        W44317   2.842  12.068   3.374 -0.2634  0.3460 -0.0006
27471W        W44318  10.138  17.229  13.766  0.0041 -0.1524  0.2750
27472W        W44319   1.258   7.611   2.143  0.1093 -0.3023 -0.0648
27473W        W44320   7.429  16.916  11.302  0.0563  0.0571 -0.0172
27474W        W44321  10.273   9.650   2.913  0.1314  0.1511  0.1728
27475W        W44322  14.049   4.619   3.335  0.1261 -0.0596 -0.4198
27476W        W44323  17.501   6.504   4.630  0.1180  0.2478  0.2292
27477W        W44324  11.202   4.361  11.518 -0.2280 -0.0104 -0.1681
27478W        W44325  10.956  11.867   0.725  0.1157  0.3211  0.0482
27479W        W44326   7.996  12.447  12.547  0.2268 -0.1247 -0.2175
27480W        W44327   9.613  10.347  15.239 -0.4239 -0.1646  0.3047
27481W        W44328  11.443   1.374   0.110 -0.3255 -0.0677  0.0699
27482W        W44329  15.550  15.362   3.003 -0.1745 -0.1451  0.1737
27483W        W44330  13.990  11.371   4.220 -0.0119  0.1299 -0.0713
27484W        W44331   4.041   3.616  13.601  0.1702  0.0329 -0.1923
27485W        W44332  14.034  10.464   2.647 -0.0231  0.1249 -0.2123
27486W        W44333   1.112   0.920   0.000 -0.1503 -0.1570 -0.0097
27487W        W44334  13.041   9.472   0.837  0.0669 -0.0058 -0.2191
27488W        W44335  13.851   2.175   0.138 -0.2981  0.2747  0.1781
27489W        W44336   9.720  16.940   5.457  0.0162 -0.2291  0.1702
27490W        W44337  11.288  17.206   4.320  0.1421 -0.1538 -0.0820
27491W        W44338   3.052   9.432  15.549 -0.0232 -0.1962 -0.1017
27492W        W44339   6.829   3.380   5.268 -0.2029 -0.1539 -0.2923
27493W        W44340  14.954  11.675  13.793 -0.0195  0.0065  0.4703
27494W        W44341   7.929   5.934  12.952  0.0349  0.0452 -0.0437
27495W        W44342   7.175  15.326  14.896 -0.1520 -0.2374 -0.3748
27496W        W44343  15.953   1.186   2.656 -0.2563  0.1304 -0.0555
27497W        W44344  15.677  14.838  14.484 -0.2137 -0.1105 -0.2311
27498W        W44345   2.320  10.925   0.806 -0.2306  0.2534 -0.0382
27499W        W44346  13.513   2.023  11.953 -0.0111  0.1802 -0.0313
27500W        W44347   9.405   8.827  15.912 -0.3525 -0.0769  0.0747
27501W        W44348   2.573   1.127   0.138 -0.0592  0.1014 -0.4477
27502W        W44349  16.362  12.497   3.618  0.0906  0.0236 -0.4178
27503W        W44350   0.546   2.590   3.791 -0.0143  0.1982  0.1534
27504W        W44351   1.047  11.842  14.652  0.3166  0.0393  0.1344
27505W        W44352  17.418  11.159  15.236 -0.0389  0.0654 -0.2357
27506W        W44353  16.661  17.565  12.209 -0.0897 -0.0556 -0.0358
27507W        W44354   7.852  12.739   5.460 -0.1422 -0.0461 -0.2894
27508W        W44355   5.208  10.285  12.600 -0.0427  0.3747 -0.0928
27509W        W44356   3.494   8.316   3.494  0.0589  0.1434 -0.0187
27510W        W44357   3.106  14.156   1.055 -0.1156  0.0198  0.3919
27511W        W44358  15.788  11.640  14.371  0.2207 -0.2027  0.2891
27512W        W44359  15.138   7.718   1.349  0.1571 -0.1465 -0.3689
27513W        W44360  16.927  13.685   0.226 -0.0314  0.0410 -0.1722
27514W        W44361   7.859  15.517  15.275  0.2667 -0.3393 -0.1226
27515W        W44362   3.494  17.031   3.170 -0.1830 -0.2683 -0.0658
27516W        W44363  18.031   0.493  14.971  0.0558  0.2078  0.1103
27517W        W44364   1.778  11.966   5.388 -0.0243 -0.0317  0.0061
27518W        W44365  16.834  16.801   5.021  0.3618  0.1538 -0.0803
27519W        W44366  16.665   5.186  10.625 -0.0861 -0.1589  0.0385
27520W        W44367  12.403   8.116   2.995 -0.2485 -0.0916 -0.1376
27521W        W44368   1.743   8.784   4.936  0.2165  0.0582 -0.1311
27522W        W44369   6.307   6.107   0.426 -0.1531  0.1756 -0.4452
27523W        W44370  13.785  17.236   5.464  0.1577  0.2529 -0.0749
27524W        W44371  10.328   3.376   1.514 -0.0327 -0.2618  0.1590
27525W        W44372  17.435  13.512  11.835  0.1201  0.1041 -0.0235
27526W        W44373  12.673  17.248   0.256  0.2194  0.1565  0.0367
27527W        W44374  16.092   9.289  14.175 -0.2376  0.2270  0.1234
27528W        W44375   5.424  10.387   1.677 -0.0012  0.0195  0.0560
27529W        W44376  16.577  11.626   2.439 -0.3348 -0.1122  0.0295
27530W        W44377   5.473   0.481   5.609 -0.1696  0.2232 -0.1563
27531W        W44378  11.512   3.449   4.383 -0.2720 -0.0784 -0.2011
27532W        W44379   6.930   0.028  11.601  0.1529  0.2025 -0.3726
27533W        W44380  14.988   1.509  12.455  0.0671  0.2152  0.0227
27534W        W44381   3.365  11.460  15.308  0.0972 -0.1704  0.1054
27535W        W44382   8.344  15.109  14.064  0.0244 -0.1777 -0.1091
27536W        W44383   2.217  13.534   1.994 -0.1200 -0.2066  0.0919
27537W        W44384   6.769  13.863  15.262  0.1786  0.0148 -0.0412
27538W        W44385  11.790   1.405  14.062 -0.0396 -0.0369 -0.1948
27539W        W44386   6.689  14.272   1.463 -0.0740  0.1665 -0.2385
27540W        W44387   7.006   5.414  14.087  0.2049  0.3930  0.0737
27541W        W44388   3.554  13.158   3.794 -0.0228 -0.0028  0.0457
27542W        W44389   7.242  12.986  14.340  0.0777 -0.1544  0.2095
27543W        W44390  11.708  17.933  15.273  0.1746 -0.1992 -0.3705
27544W        W44391  12.660   0.376  12.368  0.0343  0.1632  0.0129
27545W        W44392   5.087  16.857  16.143 -0.2755  0.0106  0.3582
27546W        W44393  16.287   0.655   5.324  0.1230  0.2006  0.0958
27547W        W44394   9.729  17.406   3.444  0.0789 -0.1654  0.1145
27548W        W44395  10.066   9.297  12.975 -0.0169  0.0161  0.0027
27549W        W44396   6.782   6.930  11.900 -0.0001  0.3265  0.1759
27550W        W44397   0.768  13.799  15.851 -0.0679  0.0523  0.3169
27551W        W44398  18.247  13.814   3.114  0.0012 -0.1340 -0.0699
27552W        W44399   0.698   9.938  15.746 -0.2533  0.1778 -0.0384
27553W        W44400   3.268   0.627   5.542 -0.0432 -0.0129  0.0738
27554W        W44401  12.803   1.657   4.170 -0.4293 -0.0309 -0.2000
27555W        W44402  16.679  14.678   3.211  0.2196  0.2514 -0.0084
27556W        W44403   8.406   5.152   3.611  0.1130  0.0607  0.1469
27557W        W44404   7.536   4.267  13.173 -0.0258 -0.1540  0.0151
27558W        W44405   7.062  11.283  15.196  0.0981 -0.0531  0.2709
27559W        W44406  12.264   9.631  13.585  0.2102 -0.0755  0.1887
27560W        W44407   4.809  17.375  16.016 -0.1973  0.1883 -0.0417
27561W        W44408   0.362  11.786   3.655 -0.1569  0.0149 -0.1264
27562W        W44409  15.925  15.153  12.541 -0.1288  0.3476 -0.1039
27563W        W44410  17.026  10.890   3.919  0.0261  0.1290 -0.3073
27564W        W44411  14.541  12.480  11.317 -0.0679 -0.2823 -0.0942
27565W        W44412  18.031   1.255  13.432  0.0979 -0.1046 -0.1038
27566W        W44413  14.869   8.498   0.397  0.1651 -0.0364  0.0473
27567W        W44414  12.894   8.486  14.157  0.1544 -0.0706 -0.0538
27568W        W44415  11.007  16.182  13.320 -0.0893 -0.0464 -0.2715
27569W        W44416   6.235  17.948   0.884 -0.1732 -0.0308  0.1542
27570W        W44417  10.158   1.618  13.381 -0.1892 -0.2088 -0.1159
27571W        W44418   4.680  10.410   2.318  0.1154  0.2155 -0.1022
27572W        W44419  13.570  13.343   2.492 -0.1854  0.0141  0.0082
27573W        W44420  12.474  12.035  12.362 -0.2548 -0.0394 -0.1381
27574W        W44421  11.620   3.474   0.052  0.0018  0.3784 -0.1375
27575W        W44422  17.943  16.813   2.386  0.1100 -0.3298 -0.0275
27576W        W44423   6.642  11.207   3.565  0.0825 -0.1290 -0.0243
27577W        W44424   7.058  12.105   1.478 -0.0573 -0.0540  0.4088
27578W        W44425  17.075   3.324   3.239 -0.2423  0.2103  0.1371
27579W        W44426   9.515  17.008   4.735 -0.1549 -0.0129  0.1494
27580W        W44427  12.708  12.629   5.939  0.2054 -0.1542  0.2337
27581W        W44428  11.331  11.778  13.579  0.1931 -0.0657  0.3175
27582W        W44429   4.854   2.535  15.391  0.4547  0.0205  0.0962
27583W        W44430  11.551  15.529   0.325 -0.1874 -0.1096  0.0120
27584W        W44431   3.945  17.319  15.966 -0.1990  0.3459 -0.0688
27585W        W44432   6.741   7.984   2.421 -0.1855  0.3414 -0.1008
27586W        W44433   6.845  14.982  12.202 -0.1215 -0.2821  0.2062
27587W        W44434  12.780   4.285   5.530 -0.0069 -0.2062  0.0425
27588W        W44435  11.328   5.882   3.184 -0.1949 -0.2141 -0.0494
27589W        W44436   6.949  16.391  14.316 -0.0471  0.0025  0.3995
27590W        W44437  14.813  16.405  12.180  0.1436  0.1296  0.2364
27591W        W44438  15.037   1.951   2.911  0.1649  0.1593  0.3467
27592W        W44439   4.183   8.648   4.363  0.1481  0.0356 -0.1622
27593W        W44440   1.809   6.313   1.425 -0.1310 -0.2397 -0.1289
27594W        W44441  11.787   1.163   5.278 -0.2289  0.1978 -0.1251
27595W        W44442   8.196   8.387  12.370 -0.2034  0.3871 -0.0343
27596W        W44443   8.923  15.334  15.028  0.0236  0.0283 -0.2170
27597W        W44444  17.345   1.127  12.355  0.1195  0.0308 -0.0873
27598W        W44445   2.656  10.763   4.314  0.0486 -0.0409  0.1828
27599W        W44446   0.065  15.298  11.454  0.0433 -0.0464 -0.3176
27600W        W44447  15.041  13.775  11.252  0.0928 -0.2832  0.2649
27601W        W44448  17.199  18.172  12.869 -0.1037 -0.0068 -0.1496
27602W        W44449   2.921   4.972  15.584 -0.2640  0.2663 -0.1512
27603W        W44450  17.749  16.438  15.810  0.1487 -0.3708 -0.1064
27604W        W44451  15.506   4.764   9.574  0.0752  0.3148  0.0794
27605W        W44452   9.394   8.355   1.637  0.0058  0.1775  0.1615
27606W        W44453   5.262   1.018   2.405  0.0013  0.2414 -0.0053
27607W        W44454   3.289   5.486  14.904  0.2564 -0.1053 -0.2841
27608W        W44455  15.052   2.233   2.134 -0.2221 -0.1175 -0.2287
27609W        W44456  13.792  13.254   3.628 -0.1683  0.3063 -0.2323
27610W        W44457  11.191  11.167   2.111 -0.1788  0.2238  0.0612
27611W        W44458   2.010   0.406  10.154 -0.0017  0.1282  0.0386
27612W        W44459  17.952   7.378  12.324 -0.0174  0.0416  0.3241
27613W        W44460  12.726   4.223   2.088  0.0019  0.0267 -0.0124
27614W        W44461  11.729   7.926   5.485 -0.1005  0.0413  0.1210
27615W        W44462  16.775   6.941  15.815  0.1380  0.0174 -0.0878
27616W        W44463   0.179  14.233   4.920  0.1968  0.0590 -0.1540
27617W        W44464   5.822  13.287   1.275 -0.1895 -0.0288 -0.0144
27618W        W44465  18.073   1.630  10.132  0.0220  0.0198 -0.3549
27619W        W44466  13.172  15.702   1.375 -0.3464 -0.0416 -0.1587
27620W        W44467   7.138   6.351   2.037 -0.0875 -0.1959 -0.1340
27621W        W44468   8.826   3.684  15.899  0.0488 -0.1192  0.1600
27622W        W44469  18.030  16.252  15.396  0.1386 -0.0458  0.1195
27623W        W44470   7.890   9.178   4.681 -0.2049  0.2195 -0.3538
27624W        W44471  15.325  15.891   3.430  0.0425 -0.0299  0.1740
27625W        W44472   4.030  16.869  12.601 -0.1216 -0.2404  0.2192
27626W        W44473  13.560   4.946  12.431 -0.2445 -0.0074 -0.0753
27627W        W44474  15.370   0.207   2.413  0.0650  0.2434 -0.1837
27628W        W44475  11.929   4.523  12.314  0.1633 -0.1258  0.0855
27629W        W44476  10.126  10.466   2.493  0.2320 -0.0543 -0.3803
27630W        W44477  13.080  17.655   1.788  0.1021  0.1102 -0.0249
27631W        W44478   9.577  17.331  15.934  0.1633  0.1236  0.0151
27632W        W44479   4.876   7.501   5.770  0.1203  0.0929 -0.0372
27633W        W44480   5.127  11.155   4.951 -0.2160 -0.2163 -0.1154
27634W        W44481  16.589   1.848  10.914 -0.0282 -0.2254 -0.0224
27635W        W44482  14.265   4.388   0.662  0.2026  0.1003 -0.5368
27636W        W44483  16.415   6.933   1.551  0.0361 -0.0653  0.2455
27637W        W44484  14.087   4.687  12.457 -0.0374 -0.1337 -0.3937
27638W        W44485  16.111   6.831  13.455  0.0583  0.1140 -0.0742
27639W        W44486   7.932  11.919   3.284 -0.2244  0.0651  0.1444
27640W        W44487  13.977  10.306   1.793  0.1212 -0.2574 -0.1528
27641W        W44488   4.464   1.432   5.231 -0.1057  0.2264  0.1191
27642W        W44489   7.083   9.034  14.230  0.0005 -0.0357  0.0792
27643W        W44490   7.951  12.601  13.056  0.2687  0.1043 -0.1391
27644W        W44491  12.416   9.983  11.176  0.2237  0.0362  0.0728
27645W        W44492   6.976  16.941  12.995 -0.1113 -0.0427 -0.1059
27646W        W44493   8.199   9.668   1.314 -0.1635  0.1236 -0.2823
27647W        W44494   6.316   7.371   5.586 -0.0086 -0.0506 -0.3504
27648W        W44495   3.474   7.320   1.691 -0.1512 -0.1429 -0.0249
27649W        W44496   4.081   7.216   5.346 -0.1652 -0.1188 -0.0053
27650W        W44497   1.196  16.629   0.696 -0.3017 -0.0514  0.0028
27651W        W44498   3.855  16.678  14.256 -0.0371 -0.1082  0.1420
27652W        W44499   2.595   5.381  14.164  0.1321  0.3063  0.0926
27653W        W44500   1.645   6.666  12.925  0.1965  0.1338 -0.0968
27654W        W44501   6.359  11.816   2.371 -0.0588  0.2477  0.2768
27655W        W44502  14.188  11.666  13.142  0.1543 -0.1837  0.0423
27656W        W44503   1.377  13.809   3.130 -0.0006 -0.0381  0.2195
27657W        W44504  17.718  12.190   5.860 -0.2071  0.4066  0.0294
27658W        W44505  17.694  11.393   1.941  0.0055  0.1168  0.0347
27659W        W44506   8.118   4.247   4.378  0.1659  0.0829  0.1113
27660W        W44507   2.906   9.408   0.200 -0.1385  0.3152 -0.1470
27661W        W44508  17.952  12.895  12.160  0.0556  0.1568  0.0684
27662W        W44509   2.145  10.672   1.803  0.0321  0.1256 -0.1070
27663W        W44510   0.419  15.490   4.824 -0.2197 -0.0122  0.1383
27664W        W44511   2.557   3.303  12.300  0.1987  0.0183 -0.0003
27665W        W44512   8.096   3.035   1.503  0.0262 -0.0575  0.1054
27666W        W44513   0.448   1.862   0.489 -0.4055 -0.0987 -0.0638
27667W        W44514   2.799  14.508  15.011 -0.0047 -0.0365  0.2398
27668W        W44515   9.317   3.919  16.078 -0.0258  0.1968  0.1353
27669W        W44516   4.248   6.108   0.980  0.1214  0.1861  0.2419
27670W        W44517  10.776  12.463   5.262  0.4607 -0.2425 -0.2413
27671W        W44518   1.969  17.835   2.143  0.2431 -0.2752  0.0088
27672W        W44519   8.760   3.451   1.594  0.0600 -0.0008  0.0773
27673W        W44520   2.085  11.611   5.134  0.0168 -0.0912  0.1977
27674W        W44521  12.009   0.813   4.774 -0.0175  0.1318  0.2612
27675W        W44522  16.487  17.257  16.057  0.1272  0.0054  0.0219
27676W        W44523   0.352  13.350  12.461  0.1762  0.3146  0.0624
27677W        W44524  14.093   1.999   2.967  0.1686 -0.1611 -0.0910
27678W        W44525  17.042  11.126  13.674 -0.0988 -0.3821  0.3435
27679W        W44526  11.932  17.568   4.932  0.0017 -0.3164  0.0247
27680W        W44527  18.224  10.212  15.385  0.0612 -0.2743  0.1677
27681W        W44528   2.638  12.847   1.719 -0.3290  0.1804  0.2672
27682W        W44529  10.970  18.192   3.454  0.0089 -0.3070  0.1469
27683W        W44530   4.590   6.974   4.918 -0.1370  0.0188 -0.1796
27684W        W44531   1.046   2.359  11.645 -0.0308  0.1995  0.1395
27685W        W44532   1.814   9.164   0.143 -0.0248  0.0584 -0.2865
27686W        W44533  18.231  10.868   2.895  0.1148  0.0010 -0.0501
27687W        W44534   6.593   7.328   1.062 -0.0866  0.4413  0.1356
27688W        W44535  13.407  15.007   2.083 -0.3027 -0.1361  0.2383
27689W        W44536   2.622   6.620   4.838 -0.0844 -0.0746 -0.0120
27690W        W44537   5.260  17.235   1.687  0.0438 -0.2262 -0.1227
27691W        W44538   7.217   7.924  14.785 -0.1830 -0.1283 -0.1934
27692W        W44539   8.415   3.907   2.313  0.1034 -0.0916 -0.1075
27693W        W44540  18.128   5.391  11.594 -0.0527 -0.1929 -0.1851
27694W        W44541   8.587   7.889   0.414 -0.1170  0.0049 -0.0271
27695W        W44542   0.147   5.743   0.810 -0.0756  0.2718 -0.1436
27696W        W44543   4.260  12.905   1.790  0.0997  0.1257  0.1386
27697W        W44544   7.348   1.925   0.086 -0.0459  0.0538 -0.0597
27698W        W44545  15.269   7.331   2.194  0.1562 -0.3369  0.2007
27699W        W44546   2.159  12.932   1.050  0.0036  0.1124 -0.2166
27700W        W44547   8.164  15.473   5.368  0.2215 -0.2862  0.2107
27701W        W44548  12.037  10.668  12.112 -0.0082  0.2490 -0.1022
27702W        W44549  10.607  12.886  14.873 -0.0344  0.2058 -0.0692
27703W        W44550   4.625   6.280  12.820  0.0851  0.1294 -0.0781
27704W        W44551  15.295  10.906  13.145  0.1284 -0.1214 -0.0733
27705W        W44552   7.543   2.863   3.477  0.0486  0.2778 -0.0923
27706W        W44553  17.353  14.881  14.373 -0.2344  0.1288  0.1263
27707W        W44554   0.985   5.224  15.729  0.0613  0.0617  0.0192
27708W        W44555   2.973   0.844  15.395  0.0979 -0.2353  0.1601
27709W        W44556  16.249   0.520   2.053 -0.0614 -0.0875 -0.0284
27710W        W44557   6.428  17.601  14.376  0.0181 -0.0925 -0.0457
27711W        W44558   6.906  15.561  14.532 -0.2574  0.1061 -0.1368
27712W        W44559  12.240  12.899  12.424  0.0404  0.1231 -0.0463
27713W        W44560  14.647   2.254   0.525  0.2280  0.1856  0.0441
27714W        W44561  14.042   2.430   0.509 -0.0315  0.1419 -0.0839
27715W        W44562   0.963  14.433   0.396  0.0035  0.0732  0.1371
27716W        W44563   7.460  18.087  15.588  0.0783 -0.2785 -0.0047
27717W        W44564  17.503   2.628  12.610 -0.2661  0.0179  0.3342
27718W        W44565  10.558  11.774   1.069  0.3260  0.0643  0.0375
27719W        W44566   9.498  15.426  13.678  0.0626 -0.1236  0.0078
27720W        W44567   2.374   4.657  15.496 -0.1270  0.1553  0.0065
27721W        W44568  15.110  17.630   0.489 -0.2402  0.3573  0.2017
27722W        W44569   5.789   3.965  15.274  0.0463 -0.0775  0.1978
27723W        W44570  15.446  12.644  11.339  0.1486  0.0451 -0.1285
27724W        W44571  15.519  18.145  14.738  0.1581 -0.2300  0.1244
27725W        W44572   4.235   2.783  11.407  0.1939  0.4409  0.1256
27726W        W44573  13.234   6.328  15.089 -0.1337  0.0734  0.1236
27727W        W44574   3.444  14.797  11.143  0.0848 -0.0229  0.0156
27728W        W44575  13.347   4.358  10.684 -0.0488  0.1429  0.2337
27729W        W44576   6.878  11.782  15.124 -0.0148 -0.0947  0.0067
27730W        W44577  11.921   0.550   5.154  0.0490  0.1858 -0.1660
27731W        W44578  14.480   6.945   4.894 -0.0294 -0.1092 -0.0290
27732W        W44579   2.133  13.987   3.334  0.1747  0.0578  0.0942
27733W        W44580  14.717   0.264  13.397  0.1792 -0.0495  0.2785
27734W        W44581   4.269   7.538  12.236 -0.2373  0.0545  0.1179
27735W        W44582   5.487   2.293  14.167  0.6139  0.2782  0.1094
27736W        W44583  16.295  14.717   5.823  0.1214  0.0091 -0.0291
27737W        W44584   3.103   7.426  13.380  0.0185 -0.0338  0.2424
27738W        W44585  13.823  14.583   2.157  0.1931 -0.0655 -0.1502
27739W        W44586  13.165   0.563  12.593 -0.0515 -0.1364 -0.1152
27740W        W44587   3.576  14.965   0.095  0.0904  0.3364  0.1014
27741W        W44588  13.462   4.751  15.940 -0.0684 -0.2956  0.1374
27742W        W44589   8.054   1.669   4.309 -0.1712  0.0483  0.0244
27743W        W44590   4.986   3.800  12.001 -0.0173 -0.0620  0.1560
27744W        W44591  14.757  15.039  12.954 -0.0362  0.3200  0.2882
27745W        W44592   1.239  12.912   0.499  0.0365 -0.0299  0.0277
27746W        W44593   3.449  18.095   4.939 -0.3488 -0.4798  0.0316
27747W        W44594   7.790   2.905  15.467  0.2649 -0.2441  0.0398
27748W        W44595  10.014  17.041   1.459  0.1041  0.3006  0.0907
27749W        W44596   8.931   3.483   3.698  0.0049  0.1494  0.1204
27750W        W44597  11.339   1.899   0.990 -0.1719  0.0105  0.0148
27751W        W44598   6.206  15.069   3.182  0.0010 -0.0355 -0.2488
27752W        W44599   1.643   2.416  12.847  0.3036  0.1411  0.1756
27753W        W44600   8.918  16.531   0.389 -0.0739 -0.0490 -0.0385
27754W        W44601   7.720  10.394   4.001  0.0218  0.1499 -0.2246
27755W        W44602   3.359   1.007  15.167 -0.1101  0.2479  0.1833
27756W        W44603  12.541  14.698   4.924 -0.2211  0.1485 -0.0392
27757W        W44604  12.065  15.937  11.055 -0.0137  0.0690  0.0293
27758W        W44605  11.857   5.811   4.126  0.0547  0.3122 -0.0927
27759W        W44606  16.705   1.744  10.470 -0.2523 -0.0851  0.3164
27760W        W44607  16.046  13.133   1.233 -0.0334  0.0636  0.2030
27761W        W44608   1.288  16.468  12.579 -0.0608 -0.1965 -0.0422
27762W        W44609   4.060   7.867  15.185 -0.0217 -0.1088 -0.2048
27763W        W44610   1.760  13.102   2.801  0.1291 -0.4132  0.0053
27764W        W44611  13.626  15.256   0.073  0.0315  0.1942 -0.1497
27765W        W44612   8.664   7.939   4.132 -0.0788  0.0899  0.2498
27766W        W44613   0.949   8.369   3.591 -0.1988 -0.3505  0.0362
27767W        W44614  11.103  11.996  16.072  0.1933  0.0645  0.1318
27768W        W44615  15.650  11.054  14.815  0.2784  0.2308 -0.1772
27769W        W44616   0.979   7.762  11.419 -0.0451 -0.1580  0.1368
27770W        W44617   4.805  11.508  12.929  0.0492 -0.3063  0.1943
27771W        W44618   1.629   6.332  15.815  0.0295  0.2769  0.1862
27772W        W44619  16.745   5.883  13.980  0.0439 -0.0103 -0.3112
27773W        W44620   8.821  12.507   1.556  0.6424 -0.0774  0.0637
27774W        W44621   1.843  13.256   1.868  0.0634 -0.1979  0.2604
27775W        W44622   6.169  13.644  13.572 -0.0877 -0.0566 -0.2078
27776W        W44623  13.216  16.908  15.793 -0.1103 -0.0446  0.1273
27777W        W44624   7.508   5.174   3.700 -0.1573  0.0607 -0.1557
27778W        W44625   2.866  11.428   0.052  0.2560  0.1499 -0.1681
27779W        W44626   8.488   9.182  13.432  0.0566 -0.0929 -0.1869
27780W        W44627  14.488   8.088   4.031  0.2007 -0.0239  0.2300
27781W        W44628  16.723   1.899  13.826  0.2111  0.1415 -0.0869
27782W        W44629  12.791  12.237  11.978 -0.3292  0.0266  0.2264
27783W        W44630   9.312   9.205   4.695 -0.0456  0.0888  0.1005
27784W        W44631   7.793   7.744  11.978 -0.0039 -0.3967  0.3766
27785W        W44632   5.178  16.460   0.929  0.0904 -0.2095 -0.0493
27786W        W44633   1.571   5.594   0.673  0.0770 -0.1316 -0.0292
27787W        W44634  16.400  15.199   2.458 -0.0788  0.0738 -0.0689
27788W        W44635  11.791   6.253   0.893 -0.1262 -0.1681  0.0275
27789W        W44636   7.686   3.067   4.947  0.0417 -0.0415  0.1816
27790W        W44637  16.907  11.823   4.337  0.0950 -0.1444 -0.2685
27791W        W44638  16.648   9.206   1.273 -0.3177 -0.2459 -0.0036
27792W        W44639  15.525  18.137  13.749 -0.0674  0.1267  0.1234
27793W        W44640   8.190  12.892   3.329 -0.1471 -0.1076  0.3330
27794W        W44641  18.029  11.059   1.000  0.1772 -0.3605 -0.0962
27795W        W44642   4.923  13.663   2.134  0.2966 -0.1872 -0.0541
27796W        W44643   9.126   8.875   3.337  0.0469  0.2960 -0.0071
27797W        W44644  13.284  15.076   3.352 -0.1505 -0.1433  0.0567
27798W        W44645  16.572   4.656   0.329 -0.0280  0.4290 -0.0951
27799W        W44646  10.140   1.214  12.210 -0.1209  0.2734  0.1581
27800W        W44647   3.831  17.215   4.763  0.0510 -0.2139 -0.0580
27801W        W44648   4.123   0.620  12.830 -0.0420  0.2789  0.0977
27802W        W44649  13.742  12.697   1.142  0.4064  0.1664  0.1141
27803W        W44650  15.040  15.615  13.652 -0.2065  0.1890  0.3720
27804W        W44651  13.152  10.010   1.771 -0.1195  0.0669 -0.2287
27805W        W44652   9.064   5.398  12.339  0.0094 -0.0500 -0.0155
27806W        W44653  12.250  15.534   2.519  0.2907 -0.0311 -0.1827
27807W        W44654   1.343  12.638   1.716  0.1144  0.1286 -0.0655
27808W        W44655   8.466   7.888   3.574 -0.3778 -0.2224 -0.0517
27809W        W44656   6.318   5.410   4.047  0.1676 -0.0733  0.1123
27810W        W44657   1.528  17.650  12.235  0.0658  0.0135  0.2206
27811W        W44658  12.849  18.326   3.224 -0.1155  0.1786 -0.1580
27812W        W44659   8.059   9.030  15.362 -0.2880  0.0979 -0.1728
27813W        W44660   4.653   2.265   4.737  0.1490 -0.0971 -0.2307
27814W        W44661  17.724  14.789   5.478 -0.0852 -0.2098  0.0358
27815W        W44662  18.155  15.054  14.600 -0.0780  0.1328 -0.1348
27816W        W44663   1.855   8.555   4.211  0.1033 -0.4068 -0.0710
27817W        W44664   4.008   4.007   5.830  0.0531  0.3554 -0.0216
27818W        W44665   3.861  10.270  15.099 -0.1138  0.0895 -0.1883
27819W        W44666  14.091  14.193  13.836  0.0527  0.0160 -0.3271
27820W        W44667  13.322  17.327  14.404 -0.0646  0.5122  0.2749
27821W        W44668  11.774   7.895   1.086  0.0120 -0.2306 -0.3407
27822W        W44669   1.262   8.622   5.783 -0.2299 -0.1161 -0.3071
27823W        W44670  13.657  16.547   0.410  0.1907  0.0519 -0.1600
27824W        W44671  13.046  15.562  12.002 -0.0272 -0.0293 -0.0931
27825W        W44672  13.932   9.747   5.372  0.0550 -0.3150  0.0457
27826W        W44673   6.108  11.648   0.258 -0.2230  0.0752 -0.0444
27827W        W44674   1.793  10.887   0.716 -0.0384  0.1643 -0.2906
27828W        W44675   0.245   9.984   4.191 -0.2842 -0.1008  0.0146
27829W        W44676   2.953   5.885   0.931  0.0298 -0.2425 -0.0377
27830W        W44677   8.983   6.725   0.381  0.1010 -0.0934 -0.0381
27831W        W44678  14.860   4.755   3.955 -0.2550  0.1840 -0.1380
27832W        W44679   7.142   0.597  15.095  0.2137  0.0481 -0.0694
27833W        W44680   7.517   6.233  12.642  0.3588  0.1893  0.0896
27834W        W44681  18.302   9.441  14.861  0.1656  0.3033  0.2497
27835W        W44682   8.249   2.412   3.412 -0.2696  0.1689  0.3068
27836W        W44683  17.028  15.334  15.816  0.2167 -0.1658  0.0163
27837W        W44684   0.251  10.646  15.472 -0.0164  0.0381 -0.1335
27838W        W44685  17.170  11.437  15.574  0.1551 -0.1983 -0.1378
27839W        W44686   3.423  11.134   3.169 -0.2101  0.2739  0.0331
27840W        W44687   4.955   5.927   5.796  0.2505  0.0696  0.2049
27841W        W44688  15.468   2.970  14.445  0.0043  0.2944  0.0274
27842W        W44689  18.273   2.139   0.470 -0.1575  0.1856  0.1792
27843W        W44690   9.819   2.710   5.169  0.0396  0.1189 -0.0065
27844W        W44691   7.656   2.790   1.457 -0.1577  0.2247  0.0197
27845W        W44692  10.181   1.186   3.128  0.0060 -0.0427  0.1211
27846W        W44693   4.487  12.097  12.586 -0.0505  0.0761  0.0278
27847W        W44694  15.924  17.057   0.035  0.1627  0.1297  0.1612
27848W        W44695   4.403  18.227   5.313 -0.0219 -0.1855  0.2835
27849W        W44696  15.029   9.898  11.298 -0.0061  0.3487 -0.2343
27850W        W44697  15.378   6.254   0.880  0.1188  0.2834 -0.2055
27851W        W44698  10.060  11.639   4.782  0.1597  0.2036  0.3242
27852W        W44699   8.490   7.061   1.032 -0.0024 -0.0637  0.1868
27853W        W44700  10.826  12.232  15.761  0.0551  0.1940  0.0790
27854W        W44701   7.271   3.108  15.626 -0.0633 -0.1060 -0.3360
27855W        W44702  13.188   4.645  12.766 -0.0891 -0.1195 -0.0088
27856W        W44703  15.964   8.100   5.058 -0.0983  0.1681 -0.0838
27857W        W44704   1.348   1.883  15.400  0.3300 -0.1916  0.0244
27858W        W44705  13.174  10.841   3.530  0.0357  0.0434 -0.0360
27859W        W44706  17.497  14.236   0.999 -0.0159 -0.1183  0.3846
27860W        W44707  17.516   5.623  13.641 -0.1963  0.0574 -0.2012
27861W        W44708  13.661   3.176  11.397 -0.0594  0.2649  0.0447
27862W        W44709   4.965   6.506  15.081  0.0520  0.1131 -0.0899
27863W        W44710   2.033  12.981  11.391  0.2405 -0.3606 -0.0372
27864W        W44711  14.821  18.178  14.153  0.0491  0.1834  0.0853
27865W        W44712  15.919   3.978   0.709 -0.1630 -0.0378 -0.2990
27866W        W44713  10.974  10.205   3.610  0.2181 -0.0304  0.1643
27867W        W44714   2.552   6.921  13.855  0.1877 -0.1545  0.0709
27868W        W44715  16.581  14.520   4.413  0.0500  0.1827 -0.2904
27869W        W44716   9.031  12.764   2.776  0.0008  0.0867 -0.0464
27870W        W44717  14.171  15.339   5.563 -0.5202  0.1361  0.0123
27871W        W44718  12.234   4.998   4.618 -0.1731  0.0104  0.1326
27872W        W44719   6.023  16.101   2.608  0.1500 -0.1302 -0.3337
27873W        W44720  10.838   5.697  14.105 -0.1092 -0.1716 -0.0025
27874W        W44721  16.716  12.170  12.604  0.3574  0.1611  0.0376
27875W        W44722  16.916   1.325  14.682  0.3599 -0.3265 -0.2622
27876W        W44723  12.520   0.852   3.124  0.0914 -0.2779  0.1675
27877W        W44724  12.762   1.076   5.759  0.2089  0.0154  0.1279
27878W        W44725   7.253   6.368  15.664 -0.5098 -0.2813 -0.2436
27879W        W44726   0.625   0.834   2.644  0.1769  0.0311  0.2514
27880W        W44727  17.102   6.858   0.646 -0.2217  0.1106 -0.0270
27881W        W44728  13.669   4.215  15.336  0.0723 -0.0338  0.0084
27882W        W44729   2.326   1.323   4.383 -0.2201 -0.1257 -0.1073
27883W        W44730   6.001   3.449   3.340 -0.0055  0.0479  0.1248
27884W        W44731   6.175  17.181  11.097  0.1506 -0.1649  0.0624
27885W        W44732  18.151   4.740  13.842  0.1663 -0.1930  0.0040
27886W        W44733  12.363  11.175  11.865  0.1441 -0.1683  0.1709
27887W        W44734  11.051   2.118   0.651  0.0104 -0.0985 -0.1225
27888W        W44735  14.468  14.526   3.571 -0.0834 -0.1292  0.2254
27889W        W44736   3.412   5.757   3.303  0.2748  0.1168 -0.1493
27890W        W44737  15.092  10.714   3.828 -0.0136  0.0382 -0.1505
27891W        W44738   5.321  11.398   1.148 -0.0060 -0.1202  0.1811
27892W        W44739  10.041  15.197  13.566  0.0661  0.0706 -0.2979
27893W        W44740   1.971   3.318   2.387 -0.1551 -0.1605  0.1108
27894W        W44741   1.049   1.397   3.186  0.0803  0.3926  0.0198
27895W        W44742  16.460  15.538   3.530  0.2670  0.0162  0.0833
27896W        W44743   3.327  13.685  14.555 -0.0855  0.0067 -0.0067
27897W        W44744  14.265   9.431  11.450 -0.1017 -0.1455  0.1165
27898W        W44745   0.286   8.247  13.112  0.0884 -0.0857  0.0743
27899W        W44746   5.230   7.570   1.726  0.0895 -0.0343 -0.0328
27900W        W44747   6.671  17.149   4.005  0.0720  0.1320  0.2366
27901W        W44748   0.725   2.113   5.276  0.1210  0.1616  0.1346
27902W        W44749   6.813   2.466  15.291  0.3397  0.2149  0.1002
27903W        W44750  17.176   9.032  12.750  0.1824  0.5617  0.0609
27904W        W44751  16.904  14.940  14.557  0.6104  0.0099  0.0601
27905W        W44752   2.768  10.984   6.339  0.0347 -0.1996 -0.0589
27906W        W44753  12.235  15.070   2.146  0.0835  0.0021 -0.1787
27907W        W44754  10.053  15.448   4.328 -0.2636 -0.2514  0.4519
27908W        W44755  16.009  11.738  12.295  0.2100 -0.2487  0.1511
27909W        W44756   4.777  12.493   2.903  0.0476 -0.1204 -0.3150
27910W        W44757  10.338   3.996  14.056  0.0970 -0.1823 -0.0376
27911W        W44758   3.508   0.806   4.572 -0.0959 -0.0501  0.1544
27912W        W44759   6.699  10.720   5.905  0.0895  0.1280 -0.0905
27913W        W44760  13.938  15.416  11.869  0.2211  0.0944  0.0835
27914W        W44761  18.215   6.503  14.624  0.1596 -0.0869 -0.1178
27915W        W44762   5.072  16.026  15.906  0.1697 -0.1663 -0.1632
27916W        W44763   1.285  15.070   4.639 -0.0728 -0.1371  0.0098
27917W        W44764   2.053  15.191   4.013  0.0304  0.0733  0.0440
27918W        W44765  13.395  12.527   0.751  0.0026  0.2311  0.0608
27919W        W44766  15.586   6.960  12.855  0.0819  0.1082  0.2313
27920W        W44767  15.464   7.460   4.703 -0.0853  0.2497 -0.1767
27921W        W44768  14.228   6.477  14.232 -0.0776 -0.0023  0.1762
27922W        W44769   8.362   7.767  12.904  0.0121 -0.2960 -0.1184
27923W        W44770  15.166  12.955   4.732  0.2121  0.1465 -0.2967
27924W        W44771   3.020  13.007   6.167 -0.0384  0.1536  0.1048
27925W        W44772   4.655   9.554  13.951  0.2414  0.3228 -0.0115
27926W        W44773   2.003  13.234  14.393 -0.1023  0.1279  0.2562
27927W        W44774  16.729   2.048   3.486  0.1155 -0.0289  0.4590
27928W        W44775   0.869   2.895   1.134  0.4244  0.0110 -0.2199
27929W        W44776   8.217   4.964   2.265 -0.0168  0.1359 -0.0186
27930W        W44777  16.141   0.384  11.291  0.0304  0.4199  0.0530
27931W        W44778  12.242  11.185   5.040 -0.1285  0.2732 -0.3747
27932W        W44779   8.504   8.971  13.960 -0.1927 -0.1525  0.2363
27933W        W44780   9.043  14.975   2.490 -0.3182 -0.0447  0.1327
27934W        W44781  18.084   5.525   2.564 -0.0388 -0.1849 -0.0236
27935W        W44782  12.740   0.298   2.343  0.1763  0.2525 -0.0308
27936W        W44783   8.255  13.239   1.348 -0.1116  0.1395 -0.1800
27937W        W44784  15.570  13.659   2.936  0.1542  0.0880 -0.2196
27938W        W44785  14.916   2.368  10.864 -0.1410 -0.2724  0.2264
27939W        W44786   2.445   0.780  16.032 -0.2558  0.0867  0.3633
27940W        W44787  17.717   0.438   0.893  0.1550 -0.1264  0.1401
27941W        W44788   0.099  10.373  11.196 -0.2409  0.1412 -0.2140
27942W        W44789   0.283   0.359   2.319 -0.0027  0.0720 -0.0273
27943W        W44790  14.746   0.068   4.669 -0.0653 -0.3220  0.0475
27944W        W44791  11.979  10.029   2.380  0.0219 -0.1510  0.0210
27945W        W44792   9.179  11.565   0.834  0.1921  0.0474  0.0085
27946W        W44793   1.814  15.201   4.725  0.1377  0.0362 -0.0128
27947W        W44794   9.628  15.155   2.852  0.0318  0.0492 -0.3073
27948W        W44795  12.730   3.281   2.933 -0.0496 -0.1316 -0.1289
27949W        W44796   7.751   1.240   4.276 -0.1560 -0.0392 -0.1716
27950W        W44797   9.773   2.485   3.233 -0.0787 -0.0783  0.1435
27951W        W44798   4.437   1.722   2.337  0.0362 -0.2572 -0.1757
27952W        W44799   0.319  10.397   2.752 -0.0728 -0.0699 -0.1667
27953W        W44800  16.709  11.212   3.673 -0.0626  0.0630  0.0989
27954W        W44801  18.034  12.940  15.117  0.1147  0.0402 -0.1096
27955W        W44802   5.867   8.581  15.740 -0.3001 -0.3521  0.2334
27956W        W44803  17.697  12.208   1.683  0.1111  0.0325  0.1965
27957W        W44804   7.929   5.878   4.060 -0.0850 -0.0015  0.1991
27958W        W44805   7.048   2.192  14.679  0.2144  0.0660 -0.1412
27959W        W44806   3.242   5.538   2.842 -0.0518  0.2695  0.2490
27960W        W44807  10.830   2.718  15.057  0.3192 -0.4363  0.0803
27961W        W44808  18.208   8.976  14.681 -0.1690 -0.0828 -0.3215
27962W        W44809   1.997  10.317  11.789  0.1754  0.1317 -0.3100
27963W        W44810   4.819   7.805   1.912 -0.0966  0.0300 -0.0996
27964W        W44811   8.786  11.498   0.016 -0.1662  0.0734 -0.0962
27965W        W44812  11.875   2.785   3.582 -0.0178  0.1556  0.0693
27966W        W44813   9.576   1.099   4.884  0.3516 -0.1737 -0.0644
27967W        W44814   6.192   8.494   5.602 -0.0612 -0.0905  0.0174
27968W        W44815  16.247  16.551  11.486 -0.1273  0.4024 -0.3127
27969W        W44816   9.660  10.204  15.747 -0.2922  0.3461 -0.3596
27970W        W44817   0.061   2.695  12.439  0.1120 -0.1693  0.1645
27971W        W44818   7.162   7.449   0.266  0.0939 -0.1755  0.0685
27972W        W44819   2.822   3.479  11.882  0.0133  0.0171 -0.0040
27973W        W44820   2.060   7.207   6.479  0.1378  0.1708  0.2732
27974W        W44821   1.602   2.966   2.987  0.1417  0.1701  0.2614
27975W        W44822  18.062   7.064   0.568 -0.0948 -0.1094 -0.2130
27976W        W44823   0.433   8.619   5.343  0.0410  0.0940  0.1551
27977W        W44824   4.804  12.095  15.904  0.3670 -0.0012  0.1948
27978W        W44825   9.744   7.903   1.728  0.2326 -0.3925 -0.1589
27979W        W44826   3.995  10.326   3.910  0.2394 -0.0922 -0.1962
27980W        W44827   7.086   7.082   3.891  0.1518 -0.0940  0.0975
27981W        W44828   4.419   8.455   4.911  0.0058 -0.0599 -0.2996
27982W        W44829  12.931   4.080   5.118  0.0665 -0.0889  0.1908
27983W        W44830  12.014  15.333  13.369  0.3467 -0.0693  0.0136
27984W        W44831   9.467   5.024   1.971 -0.0531 -0.0146 -0.3450
27985W        W44832   7.497   8.567   4.337  0.0269 -0.2394  0.0318
27986W        W44833   2.713   9.824  13.645 -0.0535  0.1375  0.1239
27987W        W44834   8.920   6.457   2.979 -0.1262  0.1715  0.2423
27988W        W44835  15.751  10.189   3.070  0.0442  0.0786 -0.1108
27989W        W44836   1.348  11.813   4.964 -0.2974 -0.0989 -0.0820
27990W        W44837  16.037  16.615  15.582 -0.1751 -0.0487  0.1304
27991W        W44838  15.042  18.043  11.554  0.1861 -0.1023  0.0037
27992W        W44839   4.434   0.011   4.676 -0.0092  0.1380  0.0976
27993W        W44840  13.456  14.670   1.237 -0.0826 -0.1282 -0.3110
27994W        W44841   6.272   6.008   5.900 -0.0970 -0.2742  0.0407
27995W        W44842  12.002   8.608   1.486 -0.0041 -0.0842  0.2697
27996W        W44843   1.402   5.271  11.789 -0.0805  0.0600  0.4155
27997W        W44844  15.350   4.168   2.928 -0.1582  0.0390  0.2310
27998W        W44845  13.910  16.532  16.157  0.2136  0.2254  0.0987
27999W        W44846  15.763  18.193   0.753 -0.3111 -0.1259  0.0062
28000W        W44847   1.158  14.902   4.102  0.0771  0.1832 -0.0645
28001W        W44848  10.484  14.941   0.621 -0.0583  0.0075 -0.1434
28002W        W44849  17.168   1.677  13.724  0.1005 -0.0723 -0.0521
28003W        W44850   1.832   0.343  13.600  0.1737 -0.0225  0.1131
28004W        W44851   2.681   1.128   3.521 -0.1127  0.3101  0.0041
28005W        W44852   5.785  17.788   4.602  0.0340 -0.1086  0.3402
28006W        W44853  16.449   5.264  15.190  0.2339  0.1679  0.0167
28007W        W44854  11.102   6.030   2.651 -0.3515 -0.4747 -0.1265
28008W        W44855   6.161   0.084   4.046 -0.0384  0.1581  0.2389
28009W        W44856  13.401  11.153  12.898  0.1423 -0.0043 -0.1249
28010W        W44857   6.187   5.732   3.260  0.4006  0.1245 -0.2380
28011W        W44858   8.254   4.428   3.185  0.3061 -0.2226 -0.1500
28012W        W44859   4.372  15.648   5.193  0.0847 -0.0143  0.0802
28013W        W44860   6.427   9.871  12.288  0.1611  0.0864 -0.0509
28014W        W44861  14.730  16.385   2.495  0.1424  0.1793 -0.2065
28015W        W44862   1.056   5.509  12.624  0.3348 -0.1251 -0.2298
28016W        W44863  15.768  14.547   3.314  0.2566  0.2243 -0.0792
28017W        W44864  16.059   8.810   2.923  0.2304  0.2167  0.0060
28018W        W44865   2.335   1.547  13.669  0.0891  0.2041 -0.0236
28019W        W44866   2.008   0.072  12.962  0.2833 -0.4203 -0.0940
28020W        W44867   9.802   2.144  12.321  0.0072 -0.2734  0.1396
28021W        W44868   3.453  11.204  10.263 -0.2435  0.0400  0.1288
28022W        W44869  16.232   3.895  15.646  0.2321  0.1504 -0.0438
28023W        W44870   8.506  13.495  13.887 -0.1817  0.0646 -0.0549
28024W        W44871   0.546  11.406  12.822 -0.1021  0.0659  0.3934
28025W        W44872  13.731   1.413   1.946  0.0100  0.1014 -0.2029
28026W        W44873   9.767   9.394  12.505  0.1298  0.0392 -0.1647
28027W        W44874   1.327  10.485  12.875 -0.0209  0.4008 -0.0169
28028W        W44875  15.777  17.654   2.851  0.1406  0.4775  0.1128
28029W        W44876   4.601   5.929  14.493  0.2603  0.2865 -0.0328
28030W        W44877   2.045   3.143  12.251 -0.0581  0.1212  0.2762
28031W        W44878   4.037  15.558  13.740  0.1553 -0.0132  0.1135
28032W        W44879   6.891   1.423  12.740  0.1993 -0.0077 -0.1251
28033W        W44880   1.105  16.001   1.437  0.0801  0.0037 -0.0685
28034W        W44881  16.084   0.953   0.089  0.1841  0.4117  0.1543
28035W        W44882   3.357  18.111  16.047 -0.3751 -0.2844 -0.0084
28036W        W44883   6.106  15.972   0.345  0.1105  0.1269  0.4228
28037W        W44884  16.849   9.154   4.712 -0.0693  0.2636 -0.2772
28038W        W44885  17.853   0.030  12.894 -0.1337  0.1272  0.0996
28039W        W44886   3.186  18.057   0.368  0.0086 -0.0646  0.0269
28040W        W44887   0.195   5.599  11.773  0.0804  0.1885 -0.0580
28041W        W44888   6.771   3.891  11.170 -0.1279 -0.1352  0.2699
28042W        W44889   6.957   6.681   3.000  0.1095 -0.0994  0.1369
28043W        W44890   4.987  14.778   3.309  0.1449  0.0240  0.0255
28044W        W44891   8.806   1.004  15.716 -0.0923 -0.1783  0.3504
28045W        W44892   9.491  15.571   5.040 -0.1629  0.0616  0.0971
28046W        W44893   1.242  12.249   2.532  0.0749  0.2311  0.1403
28047W        W44894   6.969  16.445   1.570  0.0414  0.1777  0.2265
28048W        W44895  13.919  11.427   3.554 -0.2827 -0.0779 -0.0387
28049W        W44896   7.028  13.235   0.654  0.2189  0.0886 -0.0859
28050W        W44897  11.805  14.218   1.316 -0.2094 -0.0411  0.1738
28051W        W44898   7.786  13.611   3.142  0.2875  0.3195  0.1642
28052W        W44899  15.205   2.935  13.806 -0.2081 -0.0429 -0.0997
28053W        W44900  10.604   7.327   1.810  0.3502  0.1119  0.2092
28054W        W44901   1.556  11.355   3.944  0.2630  0.2475  0.1189
28055W        W44902   2.834  10.905  15.881  0.0123  0.0076 -0.0084
28056W        W44903   9.176   5.618  14.325  0.2110  0.2985  0.3421
28057W        W44904   1.666  13.981  15.596 -0.1927 -0.0278  0.0181
28058W        W44905  17.319   3.080   0.771  0.1911  0.1636  0.1967
28059W        W44906   9.133   7.907  15.993  0.1159 -0.0231  0.0384
28060W        W44907  10.722  16.440  11.596  0.2978 -0.1482  0.0965
28061W        W44908  14.978   2.997  14.695  0.0629 -0.0848 -0.0254
28062W        W44909   8.503   9.529   3.019 -0.2851 -0.2029 -0.0695
28063W        W44910   4.046  18.228   4.051  0.3861  0.4681 -0.0960
28064W        W44911   6.971   0.340  14.598 -0.1335 -0.1222  0.2662
28065W        W44912   1.403   3.730   0.688 -0.3706  0.2419  0.4073
28066W        W44913  15.232  17.443  13.066 -0.1541  0.0034  0.1496
28067W        W44914   9.101   6.906  13.081  0.0506 -0.0066  0.0601
28068W        W44915   8.026   3.136  14.339 -0.0727  0.0906 -0.0528
28069W        W44916  11.452  12.002   5.375 -0.1297  0.1766  0.1445
28070W        W44917  16.364  10.239  15.425  0.1339  0.1335  0.1001
28071W        W44918  16.847  16.822   1.584  0.0384 -0.1243  0.2840
28072W        W44919  17.102   1.696   1.963 -0.1156 -0.0867  0.1727
28073W        W44920  18.287  10.169  12.660 -0.0103  0.0331 -0.1154
28074W        W44921   1.529   4.129  12.161 -0.0759  0.2126  0.2583
28075W        W44922   0.672   4.628  11.635  0.0798  0.3331 -0.2050
28076W        W44923  12.302  17.279   5.747  0.1400  0.0691 -0.3079
28077W        W44924   6.140   6.941  12.057  0.2725 -0.0834 -0.2192
28078W        W44925   3.026  11.410  14.074  0.0905  0.0120  0.3111
28079W        W44926  15.703  14.659   0.100  0.1479  0.1899  0.1854
28080W        W44927   3.699   6.265   1.912  0.2988 -0.0765  0.2059
28081W        W44928   3.427  17.916  11.859 -0.0484  0.4464  0.2526
28082W        W44929   4.334   9.207  13.672  0.0468  0.2105 -0.0212
28083W        W44930  16.939  15.894   1.542 -0.0330  0.0007  0.1716
28084W        W44931  14.245   7.546  11.343 -0.0356 -0.1652  0.0438
28085W        W44932   6.609   5.903   1.290  0.0370 -0.2383 -0.1347
28086W        W44933  11.806  15.999   2.026 -0.0647  0.0705  0.1077
28087W        W44934  10.744   2.061  14.184 -0.0246 -0.3935 -0.0749
28088W        W44935   9.758   7.814  12.941  0.0753 -0.2579  0.1478
28089W        W44936   9.062  14.987   4.348 -0.3609  0.1254 -0.0856
28090W        W44937   3.433  13.752  13.658 -0.3076 -0.0362 -0.0027
28091W        W44938   1.081  14.545  14.463  0.1949  0.2503 -0.3033
28092W        W44939   3.586  12.282   0.299 -0.0589  0.0107 -0.3317
28093W        W44940   1.643  12.410  10.879  0.1092  0.0106  0.0724
28094W        W44941   9.638  16.013   3.216  0.1700 -0.1192  0.0061
28095W        W44942  16.997   4.823   1.148  0.1927  0.0416  0.0416
28096W        W44943  10.980   7.206   2.912 -0.2708 -0.0203 -0.0746
28097W        W44944  15.840  16.751   2.713  0.2495  0.1212 -0.0628
28098W        W44945   7.415  10.156   3.191  0.0198  0.1189  0.0650
28099W        W44946  18.174   6.274   1.575  0.0202 -0.2664  0.0150
28100W        W44947   3.435   2.735   4.555  0.0240 -0.0682  0.2724
28101W        W44948   6.631  15.162  14.442 -0.1897 -0.1840 -0.1291
28102W        W44949   8.296   0.945   4.172 -0.0915  0.0553  0.0782
28103W        W44950  13.849   8.654  13.533  0.1084 -0.0505 -0.0039
28104W        W44951   2.566  13.057   0.791 -0.3022  0.2552 -0.3804
28105W        W44952   5.969  12.486   4.254 -0.0332  0.2087  0.1263
28106W        W44953  13.306   9.957  12.255  0.1273  0.1039  0.0041
28107W        W44954  10.757   3.102   0.875 -0.0627 -0.2926 -0.2671
28108W        W44955   4.655   8.670  12.406  0.0331  0.0221  0.2448
28109W        W44956  14.404   9.945  13.627 -0.2949 -0.0544 -0.2032
28110W        W44957   1.391   4.057  11.581 -0.1059  0.1949  0.3026
28111W        W44958   0.371  15.790  13.597  0.0884 -0.0250 -0.1743
28112W        W44959  17.203   0.102  15.970  0.3468  0.0391  0.1465
28113W        W44960  14.568   4.136  11.852 -0.1242  0.1112 -0.0154
28114W        W44961   8.621  15.608  14.176  0.0201 -0.0866 -0.1651
28115W        W44962  12.850   8.070  15.254 -0.0988  0.0897 -0.0959
28116W        W44963   8.419   5.240  12.019  0.2400 -0.0083 -0.0142
28117W        W44964  13.333   8.298   2.877 -0.1355  0.1770 -0.3650
28118W        W44965  16.104   6.438   4.514  0.0842 -0.0450 -0.3473
28119W        W44966  10.668   5.538   2.116  0.3719  0.4913 -0.0139
28120W        W44967   6.937  15.401   0.521  0.1463 -0.1903  0.1126
28121W        W44968   6.507  14.289  11.762  0.1627 -0.0674 -0.0679
28122W        W44969   5.399   4.762   0.689 -0.4363  0.0623 -0.0841
28123W        W44970   1.773   0.034   4.244  0.6414  0.0116  0.2388
28124W        W44971   4.974  12.553  15.757  0.1011 -0.1851  0.3136
28125W        W44972  14.317  15.973  14.083  0.0140  0.1349  0.0356
28126W        W44973   5.158  14.729  12.445 -0.1393 -0.0025  0.0397
28127W        W44974   3.327  14.872  13.400  0.0962 -0.2814  0.3599
28128W        W44975   2.654  15.631   4.675 -0.1892  0.1779 -0.2333
28129W        W44976   3.519   8.519   3.012 -0.0348  0.1823 -0.0103
28130W        W44977  10.847   8.000  13.625  0.3384  0.1527 -0.0298
28131W        W44978  10.620  14.957  12.704  0.0412 -0.0943 -0.0621
28132W        W44979   7.304   0.240  15.370  0.0343 -0.1197  0.1464
28133W        W44980   6.108   8.042   4.121  0.2101  0.1892  0.0767
28134W        W44981  14.317   7.801   4.901 -0.0002  0.0473  0.1765
28135W        W44982   2.335   2.703  16.054  0.5227 -0.2695 -0.1118
28136W        W44983  16.962   8.720   3.875  0.0982  0.2638  0.1870
28137W        W44984  14.440  12.492  11.939  0.2359  0.1633 -0.3351
28138W        W44985  10.509   2.883   2.183 -0.1490 -0.1179 -0.1136
28139W        W44986   6.599  16.539   4.093 -0.0280 -0.1251 -0.1963
28140W        W44987   0.611   7.174   1.685  0.0121 -0.3524 -0.1491
28141W        W44988   4.511   3.304  15.461 -0.1467 -0.0655  0.0538
28142W        W44989  11.801   3.147   1.014  0.1304  0.2017  0.1493
28143W        W44990   0.585   1.963  13.476 -0.1769 -0.0461  0.0522
28144W        W44991   1.309   0.410   5.404  0.3028 -0.0169 -0.1832
28145W        W44992   9.886  13.452  13.404 -0.2328 -0.1735 -0.0016
28146W        W44993   0.039  17.142  12.299  0.2817 -0.0236  0.5175
28147W        W44994   4.435   4.014   4.555  0.2758  0.0644  0.4042
28148W        W44995  10.903  11.086   3.370  0.0519  0.0861 -0.3615
28149W        W44996  16.221   1.794  12.920 -0.0274  0.0882  0.1155
28150W        W44997   4.890  10.324   3.787  0.1335 -0.0596 -0.1659
28151W        W44998   7.160   9.640   2.582 -0.0839  0.2070 -0.2717
28152W        W44999   9.746   1.903  15.178 -0.3824 -0.1738 -0.1691
28153W        W45000  17.947  10.571  12.962  0.0685  0.0688  0.0531
28154W        W45001   4.087  13.748   3.222 -0.1269  0.2222 -0.2976
28155W        W45002  11.385   0.562   1.203 -0.2053  0.0844  0.2384
28156W        W45003  16.006  12.406   0.900 -0.3365 -0.0463  0.1307
28157W        W45004  18.058  12.554   1.087  0.1844 -0.2441 -0.0323
28158W        W45005  14.079   2.434  15.043 -0.3526  0.0826  0.0593
28159W        W45006  13.938   2.811   2.430 -0.2378 -0.1044  0.1304
28160W        W45007  14.887   2.787   4.051  0.2135  0.1334  0.1792
28161W        W45008   3.874  13.098  11.364  0.0424  0.2184 -0.1130
28162W        W45009   0.325  12.574  10.784 -0.3619  0.1274 -0.3943
28163W        W45010   2.201  16.932   4.329  0.2656  0.1125  0.1440
28164W        W45011  12.712   5.747  12.238  0.0396  0.4842 -0.0693
28165W        W45012   2.559  10.751   3.336 -0.2807 -0.1040 -0.0098
28166W        W45013   1.277  15.151  15.683  0.0537 -0.0459 -0.0632
28167W        W45014  12.366  18.257  13.068 -0.0110 -0.0904 -0.1411
28168W        W45015   4.910  12.452  12.635  0.2474  0.0548 -0.1042
28169W        W45016  17.585   3.430  15.541  0.4299 -0.1541 -0.1187
28170W        W45017  16.162   0.188   2.710  0.1120 -0.1214  0.3122
28171W        W45018  10.887   7.674   5.701  0.1420 -0.0903 -0.1078
28172W        W45019   2.209   4.651   2.043 -0.2648 -0.1935  0.2786
28173W        W45020   4.723   4.492  11.281 -0.2698 -0.3129 -0.2052
28174W        W45021   5.794   9.924   0.246 -0.1202 -0.2649  0.1466
28175W        W45022  11.251   4.660   2.361  0.1869 -0.0399 -0.0912
28176W        W45023  13.097   6.332   1.583  0.0429  0.2340 -0.1411
28177W        W45024   5.516   0.383   2.294 -0.0557 -0.0074 -0.2100
28178W        W45025  14.061   8.705  13.061  0.2624  0.0087  0.1647
28179W        W45026   9.692  11.510  10.498 -0.1603 -0.0170 -0.3270
28180W        W45027   6.055   3.118   5.589  0.5412  0.1676 -0.2452
28181W        W45028   8.714   7.106   4.466  0.1160 -0.0605  0.1966
28182W        W45029  10.395   5.709  15.212 -0.1308  0.4286 -0.0847
28183W        W45030   0.739  11.899   3.310  0.1865 -0.1474  0.0441
28184W        W45031   3.537  10.238   4.228  0.1387  0.1883  0.0292
28185W        W45032   6.246   9.670   0.696  0.0299  0.1051  0.1950
28186W        W45033   0.301  10.227  14.618  0.0853  0.0015 -0.1844
28187W        W45034   0.159   5.805   2.321  0.0602  0.1856  0.2298
28188W        W45035   1.302  15.418   2.168  0.3477  0.0428 -0.0313
28189W        W45036   9.149   1.550   4.168  0.0440 -0.0068 -0.0780
28190W        W45037  17.104  10.963   1.809 -0.0629 -0.1652 -0.3954
28191W        W45038  16.847   3.228  13.212 -0.1182  0.0508  0.2176
28192W        W45039   5.838  12.515  11.294  0.1895 -0.2102  0.0109
28193W        W45040  18.027  16.948  11.973 -0.3273  0.1670  0.0050
28194W        W45041  12.904   8.135   1.353  0.0156  0.1140  0.0893
28195W        W45042   6.143   7.699   2.645 -0.0576  0.2330 -0.0401
28196W        W45043  16.041   2.957   4.444 -0.0430 -0.1394  0.0346
28197W        W45044   0.982  17.485  11.549  0.1014 -0.1847  0.2718
28198W        W45045   8.745   1.022   0.312 -0.0562 -0.0926 -0.1894
28199W        W45046  15.537   3.044   4.653  0.0903 -0.2315  0.0908
28200W        W45047   9.077  14.654  14.140  0.0657 -0.2460  0.1090
28201W        W45048   4.026  17.491   5.119  0.1647 -0.3252  0.1523
28202W        W45049  17.125  11.491   4.692  0.0642 -0.2777  0.0518
28203W        W45050  15.177  10.993   2.384  0.3300 -0.1255  0.2074
28204W        W45051  14.540  12.556  13.507 -0.1918  0.1662 -0.2352
28205W        W45052   0.132   1.340   4.449 -0.2562 -0.0368  0.0508
28206W        W45053   7.335  12.364   6.052 -0.1656 -0.1277 -0.1996
28207W        W45054  11.097   3.116  15.563 -0.2209 -0.1322  0.1471
28208W        W45055   8.338  13.788   3.275 -0.0528  0.0901 -0.0686
28209W        W45056   4.350   0.172   3.720  0.1220 -0.3000 -0.0710
28210W        W45057   2.805  12.069   3.903  0.0075 -0.2317 -0.1590
28211W        W45058  10.514   9.857   6.024  0.0298 -0.0262  0.3060
28212W        W45059   7.916  13.253  12.423  0.0408  0.0353 -0.2231
28213W        W45060  18.007  10.864   3.359  0.3167 -0.0656 -0.0229
28214W        W45061  12.366   9.608   4.818  0.0164 -0.0940 -0.3083
28215W        W45062   0.215  13.041  14.977 -0.0243 -0.3062 -0.2514
28216W        W45063   2.354   3.393  14.177 -0.1759 -0.1031 -0.1109
28217W        W45064  15.216   0.730   2.040  0.2710  0.3470 -0.1544
28218W        W45065  10.809  14.057   0.062 -0.1987 -0.0506 -0.1639
28219W        W45066  12.738   2.844  13.713  0.1348 -0.4050  0.3520
28220W        W45067   1.750   8.379  12.102 -0.0818  0.0169 -0.0272
28221W        W45068  17.884  11.563   5.091  0.0603 -0.2576 -0.4459
28222W        W45069   1.243  16.648   2.305  0.2464  0.6618 -0.1517
28223W        W45070   1.022  15.310   5.497  0.1113 -0.1130 -0.2686
28224W        W45071  11.541   8.805   0.214  0.3653 -0.1839 -0.0003
28225W        W45072   1.916   8.559   0.641  0.3858 -0.0054 -0.0311
28226W        W45073   1.186  16.093  13.373  0.1357  0.2628  0.0484
28227W        W45074   1.402  12.516  13.826 -0.1513 -0.0807 -0.2569
28228W        W45075  11.317  17.084   2.133 -0.0413  0.0573 -0.0069
28229W        W45076  10.517  11.891   5.017  0.1183  0.3710 -0.1096
28230W        W45077   4.738  12.062  12.112 -0.2483  0.0924 -0.3063
28231W        W45078   4.284  14.249  13.884  0.0055  0.2264 -0.0185
28232W        W45079  15.238  11.539   4.564 -0.0635 -0.2514  0.1784
28233W        W45080  13.627   9.323   5.481  0.0647 -0.2464  0.0919
28234W        W45081  17.017   7.685  15.154 -0.0578 -0.1393  0.0820
28235W        W45082   3.970  13.725  15.465 -0.0055 -0.2888  0.0218
28236W        W45083   3.259   2.586   2.179  0.1491 -0.1934 -0.0578
28237W        W45084   6.245   2.682   5.708 -0.1521 -0.3240  0.0014
28238W        W45085   5.374   2.695  11.391 -0.2287  0.1180  0.1218
28239W        W45086   1.433  15.536  12.039  0.1229 -0.0979  0.2810
28240W        W45087   5.947   2.450  13.849  0.1414  0.0174 -0.1681
28241W        W45088  14.000  17.751  10.856 -0.0231  0.4639 -0.0280
28242W        W45089  11.105   9.469   5.163  0.1829 -0.0835  0.1290
28243W        W45090   1.950   7.894  12.323 -0.0935 -0.0070 -0.3646
28244W        W45091  12.689   4.554   0.908 -0.1428 -0.1214  0.1040
28245W        W45092  10.890  11.112  14.351  0.1580 -0.1475 -0.0162
28246W        W45093  15.861  13.176  14.896  0.2021 -0.1012 -0.3842
28247W        W45094   0.984  11.378   2.332 -0.2479  0.2614 -0.4216
28248W        W45095  17.151   9.008   4.282 -0.2307 -0.0069 -0.0694
28249W        W45096  10.339  17.940   2.227  0.1214 -0.3041  0.3080
28250W        W45097   2.344  18.072  14.715 -0.3145 -0.1825  0.0326
28251W        W45098   1.546  13.579  16.104 -0.0905  0.1386  0.1270
28252W        W45099  15.509   0.810  13.403  0.0046 -0.0607  0.0841
28253W        W45100   5.139   5.409  12.303 -0.0620  0.0607  0.1522
28254W        W45101  13.007   4.463  11.122 -0.0607 -0.1762 -0.0687
28255W        W45102  15.763   0.179   3.896 -0.0407 -0.1939  0.1068
28256W        W45103  17.119   0.182  11.302  0.0391 -0.0550  0.1337
28257W        W45104   4.773  10.318   4.824  0.0624 -0.0870  0.0028
28258W        W45105   0.566  14.448   3.107  0.1824  0.0713  0.0078
28259W        W45106   1.841   2.997   0.533 -0.1753  0.2195 -0.0543
28260W        W45107   2.550   1.687  11.869 -0.2252 -0.1886 -0.0217
28261W        W45108  11.040   3.596   1.522  0.0242 -0.0920  0.1793
28262W        W45109   8.936   7.943   0.893 -0.1411  0.1612 -0.1246
28263W        W45110  10.206   5.488  12.034  0.0296  0.0557  0.0900
28264W        W45111  17.497   8.719   2.631  0.0134  0.1941 -0.2177
28265W        W45112   4.482  15.206  15.759 -0.0262 -0.0149 -0.0699
28266W        W45113   1.255  13.711   5.478 -0.1209 -0.0419 -0.1329
28267W        W45114   5.036  12.283   0.152 -0.2972  0.0504  0.4330
28268W        W45115  11.665  14.297   3.029  0.0556  0.1236 -0.0666
28269W        W45116  10.614   4.302   2.781  0.2804 -0.0023  0.0596
28270W        W45117  15.697   8.248  14.991 -0.1134  0.4703  0.0091
28271W        W45118  16.603   9.462  11.782 -0.0372  0.2014 -0.0113
28272W        W45119  17.441   0.847  13.437  0.2699  0.0238 -0.3405
28273W        W45120  16.722   5.922  14.869 -0.2835 -0.1694  0.2635
28274W        W45121   4.985   5.581  14.656 -0.1502  0.0347 -0.0880
28275W        W45122   1.281   5.723  13.118 -0.1868  0.0677 -0.1523
28276W        W45123  17.547   4.737  14.542 -0.1557 -0.2271  0.2889
28277W        W45124   5.732  16.508   1.153  0.0058 -0.0846  0.1939
28278W        W45125   0.824  12.406   1.763  0.0006 -0.1099 -0.0155
28279W        W45126  14.623  14.047   5.964 -0.1950  0.0429  0.2621
28280W        W45127  10.340  15.013   5.101 -0.0308  0.0728  0.0224
28281W        W45128   5.662   3.797  15.970  0.0054  0.1079  0.2548
28282W        W45129   2.746   3.961   5.431  0.0630 -0.0091 -0.1282
28283W        W45130  15.985   1.553  10.985  0.0810  0.2922  0.1116
28284W        W45131   8.070  13.451   3.573 -0.1555 -0.1620 -0.1779
28285W        W45132   6.477   5.539  14.349 -0.0593  0.2545  0.1933
28286W        W45133   3.935  10.297   4.582 -0.0704 -0.0947  0.1705
28287W        W45134   8.523   6.734  13.885 -0.1864 -0.1522 -0.1571
28288W        W45135   7.595  10.348   0.756 -0.2023  0.1290  0.2456
28289W        W45136   5.886   2.750  15.263  0.0609  0.1452 -0.1653
28290W        W45137   4.833   3.959   5.371 -0.0973  0.2992  0.0912
28291W        W45138   5.482   1.241  11.767 -0.0144 -0.4586 -0.0205
28292W        W45139  17.906  16.176  14.498 -0.2541 -0.0337  0.1165
28293W        W45140   2.567  18.156   4.838 -0.0642 -0.2946  0.0109
28294W        W45141  14.784  11.194   4.744 -0.0760  0.3468  0.0248
28295W        W45142   3.599   2.256   2.280  0.0933 -0.0958 -0.3197
28296W        W45143  15.617  12.667   4.805 -0.0797  0.1891  0.2577
28297W        W45144   0.046  14.631  13.095 -0.0507 -0.1476 -0.1140
28298W        W45145   9.103   7.469   2.535 -0.0559 -0.2054 -0.1196
28299W        W45146  13.516   9.136   2.717 -0.2474 -0.2145 -0.0252
28300W        W45147   0.018  14.203  14.840  0.2250 -0.1729  0.0787
28301W        W45148   1.616   7.828   1.136 -0.1588  0.5462  0.3469
28302W        W45149  14.417   1.420   0.831  0.3414 -0.1202  0.0195
28303W        W45150  10.935   9.376  14.731  0.4120  0.1747 -0.0984
28304W        W45151  10.637  16.730   4.724 -0.0319 -0.0283  0.0010
28305W        W45152   1.850  17.389  15.269 -0.1156 -0.3703  0.1440
28306W        W45153  17.464   8.251  11.586  0.0622  0.2022  0.3994
28307W        W45154  13.345   5.801  15.272 -0.0459  0.1286 -0.1908
28308W        W45155  18.160  17.696   1.360  0.1548 -0.1681 -0.3828
28309W        W45156   1.964   4.486  14.745  0.1210 -0.0095 -0.1280
28310W        W45157  16.631  14.797   4.890  0.2471 -0.0650 -0.2026
28311W        W45158   0.488   1.578   5.296  0.0889 -0.0933  0.2696
28312W        W45159   5.269   7.843   3.228 -0.2776 -0.2292  0.0979
28313W        W45160  12.230   5.502  12.276 -0.2527  0.1261 -0.0603
28314W        W45161   8.702   3.797  13.915 -0.0449 -0.0209  0.0859
28315W        W45162   4.379  10.933  13.815  0.0915  0.0007 -0.0729
28316W        W45163   1.655  11.839   2.213 -0.3616  0.1310  0.2280
28317W        W45164   7.924   1.135   0.092 -0.2096 -0.0443 -0.0134
28318W        W45165   7.722   8.020  14.068  0.2667  0.0738 -0.3144
28319W        W45166   8.580   5.117   1.163  0.0506 -0.2335  0.1214
28320W        W45167  17.160   8.494  15.804 -0.2052  0.1421 -0.1620
28321W        W45168   9.859  12.607  12.644  0.1029 -0.2912  0.1296
28322W        W45169  17.836   1.189  12.165 -0.0090  0.0739  0.0718
28323W        W45170  14.641  13.357   1.366 -0.0520  0.2590 -0.2304
28324W        W45171  12.994  14.197  10.898 -0.0278 -0.1022 -0.0190
28325W        W45172  17.806   4.260   4.752 -0.1265 -0.1184  0.0794
28326W        W45173  15.079   0.164  12.351  0.4249  0.0890 -0.1253
28327W        W45174   2.948   9.047   2.146  0.6013 -0.2210  0.0923
28328W        W45175  11.704   6.211  13.327  0.0792 -0.1605  0.3359
28329W        W45176  10.148   8.341   5.115  0.0903  0.1701 -0.2504
28330W        W45177   3.293  15.655  12.551  0.0018 -0.1726  0.0470
28331W        W45178   0.817   3.277   5.397  0.0113 -0.0370 -0.0277
28332W        W45179   3.174  14.594   5.745  0.0215  0.1971  0.0156
28333W        W45180   0.926   9.060   1.230 -0.1758 -0.2991 -0.1702
28334W        W45181   7.868   1.279   3.544 -0.0093  0.1562 -0.2315
28335W        W45182   0.644   1.877  12.035  0.0336  0.2114  0.0568
28336W        W45183   8.454  16.925  15.664  0.1269 -0.0792 -0.1054
28337W        W45184   0.171   5.272   4.773 -0.1852 -0.0272 -0.0888
28338W        W45185  11.889  15.133   3.721  0.0793  0.1950  0.0233
28339W        W45186   8.795   6.882   3.642  0.1848 -0.1518  0.2207
28340W        W45187  18.228   1.918  14.492 -0.2934 -0.1460 -0.0621
28341W        W45188   7.100  16.350   3.170 -0.0812 -0.1771 -0.0930
28342W        W45189   7.785  15.176   1.726 -0.0766 -0.1837 -0.4466
28343W        W45190  17.758   7.843  14.675 -0.0753 -0.1548  0.1142
28344W        W45191   6.896   8.011   5.144 -0.0379 -0.0042 -0.0588
28345W        W45192   8.912   8.872  11.189 -0.2724 -0.1207  0.3058
28346W        W45193   8.625   3.967  12.809  0.1040 -0.1189 -0.0568
28347W        W45194  12.267   3.306  14.946 -0.0619  0.2445 -0.4973
28348W        W45195  15.761   6.041  11.083  0.1942 -0.2789  0.1747
28349W        W45196   0.965   5.649   4.887  0.2240  0.1484  0.0220
28350W        W45197  16.960  15.351   1.382  0.0415 -0.2490  0.0800
28351W        W45198   3.959  11.602  13.087  0.0419 -0.0409 -0.0899
28352W        W45199  17.686  10.509   4.181 -0.0457 -0.3091 -0.2645
28353W        W45200   5.953   7.846   0.860 -0.1182  0.2387  0.0357
28354W        W45201  17.500  15.946  15.281 -0.2029 -0.1157  0.0792
28355W        W45202  15.120   9.061   4.341 -0.1958 -0.2406 -0.0131
28356W        W45203   8.465  12.196  14.764 -0.0355 -0.0689 -0.1076
28357W        W45204   9.888  10.076   0.628 -0.2145 -0.2343 -0.1152
28358W        W45205   4.058  11.204   0.912 -0.1053 -0.0343  0.0089
28359W        W45206  13.622  12.003  13.882  0.0076  0.1424  0.1206
28360W        W45207  10.079  17.607   5.137 -0.0887  0.2564  0.1517
28361W        W45208   8.249  18.084   0.034 -0.1217 -0.2160 -0.1432
28362W        W45209  13.146   3.704   3.907  0.0711 -0.1362  0.1758
28363W        W45210   2.272   8.749   3.959 -0.1322 -0.0613  0.1044
28364W        W45211  14.129  11.923   0.593  0.1651 -0.0169 -0.0618
28365W        W45212  16.448   3.013  10.175  0.3272  0.1452  0.0045
28366W        W45213   2.789   5.715  16.183 -0.1653  0.2186  0.1385
28367W        W45214  11.244  14.935   5.052  0.3430 -0.0239  0.3653
28368W        W45215  10.793   3.147   1.424  0.1263  0.2756  0.1051
28369W        W45216   0.756   9.818   3.106  0.1921  0.1243 -0.1439
28370W        W45217  17.102   0.078   4.120 -0.0124 -0.1827 -0.1567
28371W        W45218  12.155  16.773   1.790 -0.0421  0.0830 -0.1591
28372W        W45219   9.237   6.814  16.166 -0.1655 -0.2515  0.2991
28373W        W45220   3.211  12.308   3.711 -0.0174  0.0910  0.1386
28374W        W45221   1.185   4.174  14.747 -0.1717  0.1731 -0.0670
28375W        W45222  14.459  17.812   3.219 -0.1223  0.0832  0.1537
28376W        W45223  17.279  13.022   2.443 -0.0625  0.2246  0.0868
28377W        W45224  15.531   7.936  13.692 -0.1491 -0.0241  0.1863
28378W        W45225  15.468   2.800  11.299 -0.0650  0.0433 -0.4016
28379W        W45226   2.621  17.637   3.946  0.0099  0.0402 -0.0605
28380W        W45227  14.370  14.664  12.486 -0.1180  0.0903  0.0231
28381W        W45228   0.270   6.080  11.432  0.2722  0.2590 -0.1268
28382W        W45229  17.344   6.059   4.394 -0.0819  0.0754  0.0323
28383W        W45230  17.928  10.013   2.255  0.0313  0.1410 -0.0030
28384W        W45231   7.944  11.139   1.526 -0.0181  0.2285  0.1472
28385W        W45232   5.311   0.024   5.747  0.0024  0.1406 -0.1029
28386W        W45233  10.898   9.372   0.574  0.0609 -0.0675 -0.0840
28387W        W45234   2.625  18.162   3.939  0.3579  0.0686  0.1625
28388W        W45235   9.293  15.127   6.031  0.0282  0.2258  0.0575
28389W        W45236  15.292   2.001   3.774  0.2028 -0.2304 -0.1886
28390W        W45237   9.856   0.161   0.634  0.1807 -0.2396  0.1512
28391W        W45238   3.328  14.194   3.576  0.0255  0.0433  0.0400
28392W        W45239   7.791  16.805   2.582  0.1200 -0.2372 -0.2294
28393W        W45240   2.838   5.368   4.327 -0.1943 -0.0804 -0.1342
28394W        W45241   3.214   9.101   0.477  0.0259  0.2916 -0.1439
28395W        W45242   9.234  18.251   3.188  0.0416 -0.2376  0.1566
28396W        W45243   4.963   0.778   5.099  0.2785 -0.0956  0.0384
28397W        W45244   6.022   3.457  14.084 -0.0608  0.0572  0.0814
28398W        W45245   8.097   7.874  12.334 -0.2087 -0.2952  0.2115
28399W        W45246  14.401   3.191  12.993 -0.1213  0.2505 -0.1559
28400W        W45247   5.868   9.353   3.593  0.1904 -0.1400  0.1824
28401W        W45248   0.019  16.638  12.378 -0.2092 -0.2324  0.2450
28402W        W45249  11.822   8.119   2.289  0.1060  0.0256 -0.0913
28403W        W45250  10.175   1.116  15.666  0.1041  0.0689 -0.0005
28404W        W45251   3.431   2.581  13.912  0.2416 -0.1692 -0.1188
28405W        W45252   3.371   4.209  14.790  0.2919 -0.1835  0.2119
28406W        W45253  16.995   4.812  10.981 -0.2592  0.4482  0.2763
28407W        W45254   6.264  14.407   0.550 -0.1631  0.1146 -0.0137
28408W        W45255   6.094  13.404  11.580  0.0855  0.1135  0.1177
28409W        W45256  16.422   9.631   5.024 -0.2103 -0.1961  0.0756
28410W        W45257  16.225   1.829  11.839 -0.1343 -0.3295  0.3739
28411W        W45258  17.613  13.375   2.506  0.1517 -0.1051 -0.0074
28412W        W45259   3.632   8.967   5.137 -0.1475 -0.1951 -0.0895
28413W        W45260   1.558   0.901  12.893  0.2623 -0.1683 -0.4154
28414W        W45261  14.307   0.040  15.472  0.0370  0.0096 -0.0634
28415W        W45262  14.534  17.150  13.436 -0.0068 -0.1435  0.2030
28416W        W45263   8.722  14.106   3.181 -0.0453 -0.2246  0.0083
28417W        W45264   7.502  16.024  12.871 -0.2122  0.0228  0.3619
28418W        W45265  10.236   3.208  11.667  0.0545 -0.4511  0.2378
28419W        W45266  16.604   2.566  12.493 -0.0100  0.3935 -0.4259
28420W        W45267   7.527   2.167   4.859  0.2522  0.1446 -0.1864
28421W        W45268   2.811   8.338   4.223  0.0729 -0.4882 -0.3232
28422W        W45269  13.885   1.789  13.330 -0.0362 -0.0609  0.2331
28423W        W45270   7.140  11.391   5.050 -0.0237 -0.1530 -0.0467
28424W        W45271   5.602  11.936  13.594 -0.0884 -0.1187 -0.0543
28425W        W45272   4.076  13.418  13.156  0.0060 -0.1394  0.2354
28426W        W45273  12.389   3.380  10.464  0.0519  0.1242 -0.3483
28427W        W45274   5.238   9.433   1.444  0.0733  0.0881  0.2041
28428W        W45275  13.708   5.565   5.610 -0.2444 -0.2688  0.1091
28429W        W45276   9.030   1.283   0.709 -0.2131  0.1738  0.2802
28430W        W45277   7.295   6.991   3.380 -0.1566  0.2754  0.1434
28431W        W45278   1.879   1.178  15.597 -0.0382  0.1248  0.0010
28432W        W45279   4.846   0.163  15.934 -0.2717  0.2452 -0.0991
28433W        W45280   1.715   5.021   5.046 -0.0211  0.2678 -0.1674
28434W        W45281  16.220  13.408  12.473 -0.1585 -0.1572 -0.0563
28435W        W45282   8.266  10.461   3.262  0.0544 -0.0778  0.1249
28436W        W45283  13.360   0.607   2.801  0.0476 -0.0014  0.0742
28437W        W45284  16.286   6.273   3.887 -0.0916  0.0565 -0.3401
28438W        W45285   9.134  11.104   4.735 -0.2451 -0.4051  0.0659
28439W        W45286   5.709   9.857   1.604 -0.2696 -0.2760 -0.2275
28440W        W45287   6.267  10.453   1.200  0.1778 -0.2420  0.3211
28441W        W45288   9.777   3.930  13.929 -0.1758 -0.1531 -0.0534
28442W        W45289   5.180  13.207   1.946  0.3428 -0.2085 -0.2471
28443W        W45290   8.614  18.325   0.914  0.0668  0.3101  0.0606
28444W        W45291   0.291   7.176  13.026 -0.0571  0.0705 -0.3137
28445W        W45292   5.159   3.717   4.047  0.2188 -0.2937 -0.1501
28446W        W45293   5.720   1.716  11.963  0.1392  0.0558 -0.2760
28447W        W45294   5.340   8.182  15.460  0.0683 -0.1362 -0.3328
28448W        W45295  15.548   0.156   5.209 -0.4808 -0.1900 -0.1384
28449W        W45296   9.844  15.620  14.481  0.0342  0.0908  0.0465
28450W        W45297   4.083  12.678  14.662  0.3211 -0.1466  0.1882
28451W        W45298  13.161  12.999  12.212  0.0560 -0.0510 -0.0524
28452W        W45299  14.688   6.460   0.872  0.0737  0.1169 -0.3005
28453W        W45300  14.354  11.129  13.201 -0.0294  0.0922  0.0142
28454W        W45301   0.814  16.623  12.947  0.2212  0.0053 -0.2630
28455W        W45302   1.813   6.838   2.133  0.0446 -0.0671  0.0531
28456W        W45303   6.883  13.812   5.541  0.3900 -0.0403 -0.0652
28457W        W45304   9.414   9.881  15.278  0.1565 -0.0239  0.1697
28458W        W45305  11.598   6.076   0.101  0.2723 -0.2550 -0.0279
28459W        W45306  17.999   8.818   1.407 -0.0495  0.2078  0.0349
28460W        W45307   9.127  17.110  16.151 -0.2359 -0.0549 -0.2499
28461W        W45308  15.832   9.028   1.281  0.0608 -0.2357  0.1682
28462W        W45309  16.856  17.198  14.124 -0.0892  0.0427  0.2377
28463W        W45310   3.525  14.524   1.921  0.1478 -0.3115 -0.0549
28464W        W45311   9.098   9.536   2.262  0.2037  0.0436 -0.0142
28465W        W45312  10.962  10.248  11.807 -0.3157 -0.2281  0.0629
28466W        W45313  11.328  11.001   4.347 -0.1976  0.1025  0.3276
28467W        W45314   0.479   6.457   5.019 -0.0924 -0.0282 -0.1893
28468W        W45315   5.598   0.175  14.213 -0.1084  0.3089  0.0224
28469W        W45316  17.125  14.299  16.070  0.1531  0.1676  0.1191
28470W        W45317   1.075   0.048   2.164 -0.1481 -0.1452 -0.2732
28471W        W45318   4.395   3.590   5.218 -0.1310  0.1621 -0.0390
28472W        W45319  16.382   1.864  14.614  0.0379  0.0208 -0.0051
28473W        W45320  13.485   7.708  10.903 -0.0858  0.2874 -0.0391
28474W        W45321   7.505   4.900  15.880 -0.1476  0.0026 -0.2617
28475W        W45322  12.862   4.713  15.617  0.2424 -0.1287 -0.0617
28476W        W45323   7.252   0.910   4.343  0.1149 -0.2300 -0.1378
28477W        W45324   6.849   0.912   2.090  0.0273 -0.3571  0.3670
28478W        W45325   4.412  12.502  15.021 -0.0768  0.1021 -0.0654
28479W        W45326  13.030   8.717  11.503 -0.1465 -0.1462 -0.0473
28480W        W45327   1.952   6.574  16.112  0.1252 -0.2165 -0.1484
28481W        W45328   4.541  15.280   4.327 -0.1869 -0.0690 -0.0665
28482W        W45329  17.066  17.471   0.505  0.0132  0.1157  0.1474
28483W        W45330   2.944  10.959   1.201  0.0464  0.1208  0.0180
28484W        W45331  12.077  12.931   0.927 -0.2933 -0.4396  0.0021
28485W        W45332   1.591  15.254  13.809 -0.0538 -0.0404  0.1427
28486W        W45333  17.850  15.327  15.654 -0.0658  0.1539 -0.4111
28487W        W45334  12.968   3.519  15.919 -0.1590 -0.0136  0.0551
28488W        W45335   7.807   1.423   5.278  0.2237  0.0744  0.2394
28489W        W45336  11.185  17.699   1.544  0.2163 -0.1167 -0.0075
28490W        W45337   7.702  17.563   2.054  0.0259 -0.0722 -0.1033
28491W        W45338   6.249   6.382  12.965  0.1246  0.0678  0.2173
28492W        W45339   0.405   8.965   4.967 -0.3720 -0.1512  0.3018
28493W        W45340   6.424   5.611   0.470 -0.1362  0.0149  0.3189
28494W        W45341  14.033   3.875   5.234  0.0210 -0.0112 -0.1490
28495W        W45342  13.538  11.868  15.752 -0.1708  0.1917  0.1770
28496W        W45343   7.497   4.400  15.849 -0.1693 -0.3233  0.2043
28497W        W45344  10.578   6.997  14.511 -0.0082  0.0527  0.1799
28498W        W45345   3.669  14.376   1.405  0.1099 -0.2559  0.3439
28499W        W45346   8.815   4.073  14.990 -0.1412 -0.1603 -0.0907
28500W        W45347  10.588   0.827  13.367  0.3497  0.1236  0.1019
28501W        W45348  11.030   4.098   4.504  0.1175  0.2054 -0.0065
28502W        W45349  18.188   7.834   3.818  0.0236  0.0826 -0.1258
28503W        W45350   2.030   6.359   4.557 -0.1401  0.0030 -0.3850
28504W        W45351  13.165   9.322  14.471 -0.1859  0.0097 -0.1504
28505W        W45352  18.134   1.287  15.741 -0.0710 -0.1013 -0.3215
28506W        W45353  18.116   1.042   1.811  0.1146 -0.1809  0.0341
28507W        W45354  17.274  13.555   0.605  0.0102  0.2178  0.0317
28508W        W45355   9.442  14.584  11.649  0.3262 -0.0661 -0.0728
28509W        W45356  13.536   1.166  11.880  0.0853  0.1694 -0.2127
28510W        W45357  15.733   7.853  14.396  0.0900  0.1112 -0.2037
28511W        W45358   3.662  13.210  13.281 -0.1599  0.1046 -0.2668
28512W        W45359  17.475   7.983  13.828  0.0557 -0.0676 -0.0057
28513W        W45360  13.845  10.007   4.084  0.0788  0.1811 -0.0763
28514W        W45361  12.605   5.902  12.782  0.1358  0.2408 -0.0801
28515W        W45362   4.415   1.325  13.941  0.0058  0.0230  0.0214
28516W        W45363   4.678  17.718  14.491 -0.1874 -0.3085  0.1832
28517W        W45364  13.624  11.741   1.313 -0.1875  0.2067 -0.0917
28518W        W45365  12.922  12.078   5.382 -0.2466  0.0052  0.2195
28519W        W45366   7.633  13.353  13.466  0.0010  0.0927 -0.1340
28520W        W45367  14.270   4.606   4.163  0.2197  0.0116 -0.0505
28521W        W45368  14.195   9.165   4.690 -0.0121 -0.0113  0.0739
28522W        W45369   2.679   6.111   2.679  0.0760  0.0494  0.2085
28523W        W45370   7.428  16.744  12.761 -0.1291  0.2536 -0.2321
28524W        W45371  11.089   4.360   3.274 -0.0115 -0.0953  0.3294
28525W        W45372   7.329   8.552  15.387 -0.1277 -0.1102  0.3726
28526W        W45373   3.132   8.268   2.846 -0.0745 -0.2443  0.1066
28527W        W45374   5.680   2.087  10.572  0.1041  0.1502  0.0534
28528W        W45375   8.502   2.815   3.077  0.1205  0.1553  0.2776
28529W        W45376  17.072  12.922  16.104 -0.1097 -0.0766 -0.3833
28530W        W45377   5.327   8.739   2.331 -0.2347  0.0180 -0.1701
28531W        W45378   0.969   7.755  12.497  0.1456  0.0443  0.0996
28532W        W45379   2.883   3.578   2.964  0.3255 -0.0890 -0.1408
28533W        W45380  17.517   6.771   0.039 -0.1367  0.3292 -0.1862
28534W        W45381  14.676   8.395  11.468 -0.2032 -0.2155  0.2569
28535W        W45382  15.483  11.490  11.915 -0.0276 -0.0839  0.0821
28536W        W45383  12.332  11.248  14.905 -0.1620 -0.3943 -0.0709
28537W        W45384   7.614   3.373  14.631  0.0834 -0.2094 -0.2821
28538W        W45385  10.349   7.311   0.351  0.5130 -0.0005 -0.1184
28539W        W45386  13.047   4.402   1.720  0.1690 -0.1437  0.0994
28540W        W45387   6.108  10.471   4.196  0.0900  0.2483 -0.0972
28541W        W45388   3.237   4.105   2.411  0.0471  0.2380 -0.2206
28542W        W45389   2.729  12.933   5.117  0.0546 -0.0203  0.1883
28543W        W45390  15.493   1.341  11.156  0.2010 -0.3309  0.2143
28544W        W45391  15.548   9.504   0.078 -0.0131 -0.0108  0.0482
28545W        W45392   1.630   6.733   4.018  0.2118  0.0894  0.2188
28546W        W45393   0.403   3.976   4.191  0.0041  0.1886  0.0350
28547W        W45394   7.849  13.199   0.565  0.1041 -0.3678 -0.0029
28548W        W45395  17.127   6.661   2.974 -0.0107  0.0570 -0.0959
28549W        W45396  14.271  10.346   4.801 -0.2982 -0.2930  0.0544
28550W        W45397   5.981   4.569  11.579 -0.1054 -0.1410  0.1418
28551W        W45398  12.168  13.387   2.638 -0.2003  0.0450  0.1589
28552W        W45399   6.861  11.656   3.451  0.2420 -0.0200  0.1328
28553W        W45400   2.459   2.559  12.712 -0.3148 -0.3476  0.2593
28554W        W45401   7.205   6.855  13.939 -0.2457 -0.1086 -0.1468
28555W        W45402  12.342   0.346   1.668 -0.2153 -0.2476 -0.3312
28556W        W45403  18.179  11.319   3.448 -0.3149  0.1991 -0.1900
28557W        W45404   2.904  17.146  13.335 -0.0238  0.1209  0.0477
28558W        W45405  15.994   4.061  14.738  0.1337 -0.1345 -0.2175
28559W        W45406   1.999  10.435   0.826  0.0341 -0.0573 -0.0404
28560W        W45407  17.891  14.293  14.668 -0.0031 -0.3857  0.2025
28561W        W45408  18.064  10.095   1.758 -0.0699  0.0686 -0.1482
28562W        W45409  17.717   3.781  14.766 -0.4328  0.0669 -0.0628
28563W        W45410  17.370  14.519  13.581 -0.3486 -0.0277 -0.3132
28564W        W45411   1.292  11.577   4.396  0.0880 -0.1322 -0.2097
28565W        W45412  11.237   2.911  13.648  0.0329  0.0534 -0.2322
28566W        W45413  12.880  12.337  12.957 -0.0056  0.2685  0.1509
28567W        W45414  15.332  16.933  15.044 -0.1737 -0.1160 -0.1119
28568W        W45415   1.106   2.783  11.336 -0.4320  0.0024  0.0479
28569W        W45416   7.665  15.360  14.622  0.2681 -0.0830  0.2733
28570W        W45417  15.134  10.785  12.107 -0.4366  0.0575  0.0255
28571W        W45418  12.769   9.505   3.528  0.3483  0.0605  0.3809
28572W        W45419   8.216   0.925  13.374  0.1719  0.0857  0.0861
28573W        W45420   4.330   0.210  12.136 -0.3040  0.2858 -0.1178
28574W        W45421  11.922   6.041  14.676 -0.0244 -0.0791  0.1019
28575W        W45422  11.666   4.957   3.148 -0.0933  0.1542  0.0880
28576W        W45423   1.641  13.796   4.109 -0.0030 -0.1108  0.0453
28577W        W45424  10.310   4.083  13.148 -0.3128  0.1359  0.0629
28578W        W45425  18.171  12.658  12.567 -0.2228  0.1330 -0.1193
28579W        W45426   8.010  14.183  10.334 -0.0842 -0.0883  0.1498
28580W        W45427  15.172  10.309  15.996  0.1495  0.0492 -0.2328
28581W        W45428   1.948  16.543   3.864  0.1699 -0.0048 -0.0996
28582W        W45429  15.253   9.465  12.127  0.0219  0.0066 -0.0664
28583W        W45430  17.108  17.486  11.244 -0.2650  0.2767 -0.1282
28584W        W45431   7.402   5.624   5.264  0.3951  0.0047  0.1049
28585W        W45432  15.631  14.482  14.892  0.1608  0.0500 -0.0888
28586W        W45433   1.889  17.981  13.866  0.2679 -0.1781  0.0634
28587W        W45434  16.593   7.690  16.017  0.0867  0.0283  0.2744
28588W        W45435  14.133   8.204   4.391  0.2168  0.0824 -0.1936
28589W        W45436   3.449   9.693   4.166 -0.1071 -0.0233 -0.1672
28590W        W45437  16.681  13.083  15.134  0.2872 -0.3378 -0.1508
28591W        W45438   0.119   7.261   5.194 -0.0410 -0.0477  0.0235
28592W        W45439  16.246   9.110  11.755  0.0117  0.0861 -0.1620
28593W        W45440   0.615   2.364  15.881 -0.1029  0.0273  0.0915
28594W        W45441   5.454  10.677  13.340  0.0582  0.0638 -0.1712
28595W        W45442  17.406   3.445  12.476  0.1246 -0.2238  0.3025
28596W        W45443   2.617  17.733   1.961  0.0832  0.0416  0.2256
28597W        W45444   3.782   9.400  16.147  0.1291 -0.1987  0.4124
28598W        W45445   2.560  17.867  10.998  0.1486 -0.2292  0.1003
28599W        W45446   5.642  12.989   1.783  0.0791 -0.0202 -0.2183
28600W        W45447  16.403   6.213   3.366 -0.2282  0.2269 -0.3849
28601W        W45448   8.248  14.340   2.394 -0.0287  0.0013 -0.1668
28602W        W45449  12.858  17.734  15.906 -0.1346 -0.1723 -0.0485
28603W        W45450   5.644   8.723   1.922 -0.1305 -0.0470  0.0617
28604W        W45451  14.141  13.426  15.003 -0.4600 -0.1942 -0.1649
28605W        W45452  11.097  13.152   0.999 -0.0019  0.1728  0.0194
28606W        W45453  11.913  13.746  15.055  0.0777  0.1502 -0.2748
28607W        W45454  11.857   7.383   3.337 -0.1485 -0.0243  0.2984
28608W        W45455   6.729   6.032  14.407 -0.1905 -0.1654  0.1836
28609W        W45456   9.090   1.170   3.240 -0.1998 -0.1925  0.3937
28610W        W45457  11.208  11.932  14.777  0.3907  0.0015  0.1197
28611W        W45458   4.013  16.097  12.155 -0.3608 -0.2598 -0.0588
28612W        W45459   1.201   5.492  13.580 -0.1814 -0.0689 -0.0300
28613W        W45460   8.853  13.264  15.170  0.2048  0.1037 -0.0627
28614W        W45461   1.151  12.235   4.754 -0.1607  0.0163  0.0458
28615W        W45462   9.988  11.435  12.810 -0.1889  0.1418 -0.1671
28616W        W45463  15.143   4.082  11.379 -0.0055 -0.0869 -0.2338
28617W        W45464   5.535   7.769  15.747 -0.0523  0.2998 -0.1316
28618W        W45465  16.230   2.390   3.215  0.0242  0.0845 -0.1498
28619W        W45466   2.391   8.002  13.926  0.0222  0.2437  0.3610
28620W        W45467   2.829   2.633  13.157  0.0418 -0.1371  0.1163
28621W        W45468  10.707  16.079  15.134 -0.0153 -0.1892 -0.0488
28622W        W45469  14.859  15.829  14.084 -0.1331 -0.1858 -0.3185
28623W        W45470  12.940   7.378  15.843  0.0371  0.3643 -0.2888
28624W        W45471   8.225   2.884  13.677  0.0539 -0.0783 -0.0886
28625W        W45472   4.709  15.531  16.058  0.1389  0.0588  0.1398
28626W        W45473  15.167  15.753   2.978  0.0898  0.0335  0.1102
28627W        W45474   0.658   9.955  11.843  0.4376  0.0026 -0.0830
28628W        W45475   9.195  10.975  13.588  0.2402 -0.0419  0.0587
28629W        W45476  13.901  15.855   1.703 -0.1946 -0.3820 -0.1946
28630W        W45477  18.282   0.375   3.210  0.0486  0.0352 -0.1881
28631W        W45478   8.215  14.772   2.684 -0.0138 -0.1914  0.1630
28632W        W45479  11.908  11.043   1.026 -0.0349 -0.0136  0.2049
28633W        W45480  17.050  13.053   3.277 -0.0896 -0.0855 -0.0353
28634W        W45481  16.597  12.657   1.762  0.0653  0.2489 -0.1546
28635W        W45482   5.334   1.928   1.852  0.0177  0.0815 -0.1026
28636W        W45483   5.262   8.484   4.812 -0.0602 -0.0557 -0.0264
28637W        W45484   6.697   1.883   3.277  0.4426  0.0251 -0.3147
28638W        W45485  10.027   0.052  14.916  0.0335 -0.0404 -0.1429
28639W        W45486   8.665  17.762   3.617 -0.1131 -0.0404 -0.1616
28640W        W45487  13.398   9.587   2.633  0.0629  0.0005  0.1554
28641W        W45488   8.304   2.396  15.395  0.1434 -0.0508 -0.0261
28642W        W45489   9.632   2.055   1.078 -0.1534  0.2236  0.1179
28643W        W45490  16.279  16.002  12.260  0.0860  0.0485 -0.0601
28644W        W45491   3.524   1.821   6.001 -0.0433  0.0955 -0.0413
28645W        W45492  14.885   0.111   2.752  0.0930 -0.1789  0.1134
28646W        W45493   4.523   0.940   3.537  0.1346 -0.1832  0.2330
28647W        W45494   9.728   8.996   3.996  0.4425 -0.2768 -0.0121
28648W        W45495   4.142   5.270   2.838 -0.1047 -0.1563 -0.0509
28649W        W45496   3.957   2.808   4.409  0.3795  0.2386 -0.0210
28650W        W45497  18.165  13.131  11.789 -0.2445  0.0781  0.0466
28651W        W45498  16.769  12.628  13.857  0.1038  0.1436  0.0203
28652W        W45499   9.577  17.325   2.962  0.0973 -0.2185 -0.0437
28653W        W45500   1.221  13.435   3.949 -0.0951 -0.2282 -0.1366
28654W        W45501   7.794   6.274   0.295  0.2353  0.1145 -0.0559
28655W        W45502   6.365   0.720  14.045  0.0004  0.1131 -0.0787
28656W        W45503  13.911   0.762   4.159  0.0676  0.2670 -0.1896
28657W        W45504  15.636   5.213  11.503 -0.0276 -0.3556  0.1301
28658W        W45505   0.489   1.033  14.352 -0.1876  0.1681 -0.0837
28659W        W45506  12.725   1.621  14.989  0.1361 -0.1090 -0.0202
28660W        W45507   1.297   8.872   4.863 -0.2824 -0.1686  0.2916
28661W        W45508  12.604  13.730  12.251  0.1048 -0.0835 -0.2165
28662W        W45509  15.355  11.821  15.334  0.2239  0.1931 -0.0761
28663W        W45510   4.453   3.161  12.986  0.2472  0.0160 -0.3442
28664W        W45511   2.114  16.220   1.373 -0.1835 -0.0619 -0.0117
28665W        W45512   3.561   9.235   2.340 -0.0517 -0.0020  0.3607
28666W        W45513   3.962  13.769  12.766 -0.2109  0.0244 -0.1597
28667W        W45514  10.858   9.931   5.150 -0.0430 -0.0824 -0.1299
28668W        W45515  15.163   7.848  11.779  0.2313 -0.1171  0.0678
28669W        W45516   8.881  16.104   5.186 -0.0897 -0.0180 -0.2577
28670W        W45517  10.807  10.418   1.024  0.5319  0.4189  0.1400
28671W        W45518  11.460   7.076   3.627 -0.3305 -0.1925  0.0719
28672W        W45519   9.161  16.864  10.347 -0.1521  0.2879  0.1467
28673W        W45520   4.352   7.993   5.017 -0.0553  0.1333 -0.0303
28674W        W45521  18.181   3.203   1.841 -0.0882  0.1497 -0.2235
28675W        W45522   4.487  17.731   2.478  0.1149 -0.3201  0.1768
28676W        W45523   8.997   7.299  14.789  0.2204 -0.3200 -0.1436
28677W        W45524   9.350   5.829   5.027  0.2888  0.0161  0.3151
28678W        W45525   9.008  14.789   5.723 -0.0701  0.0266  0.0348
28679W        W45526  15.730   9.618   3.078 -0.0096 -0.2920 -0.0151
28680W        W45527  16.534   4.804   1.166  0.1624  0.2007  0.0625
28681W        W45528  16.022   7.867  13.884 -0.2513 -0.1583  0.1167
28682W        W45529  12.800   6.296   0.567 -0.3724  0.5282 -0.2682
28683W        W45530   8.014  13.950   3.704  0.0593  0.0506 -0.2224
28684W        W45531   7.080   6.209   3.188 -0.0478  0.2081 -0.1202
28685W        W45532  10.093   3.988   0.473 -0.1297 -0.1052  0.3146
28686W        W45533   5.106  12.914  14.743  0.1175  0.2461  0.2492
28687W        W45534   7.687   9.641   1.392 -0.0373 -0.3417 -0.0938
28688W        W45535  10.938   7.839   4.142 -0.2619 -0.1766 -0.2485
28689W        W45536   8.289   7.122   2.433 -0.0159  0.1840 -0.1307
28690W        W45537   4.446  11.343   2.307  0.0394  0.0481  0.0825
28691W        W45538   1.469  11.498  12.792  0.0113  0.0995 -0.2757
28692W        W45539  13.837   6.533  13.434  0.1162  0.1399 -0.0923
28693W        W45540  12.772  14.206   3.166  0.1264 -0.0571  0.1671
28694W        W45541  15.258   0.431   0.192  0.1082 -0.1073  0.2226
28695W        W45542   8.300   9.977   2.066  0.2861 -0.0330 -0.0871
28696W        W45543  17.607  12.429   5.251 -0.1416 -0.0032 -0.0446
28697W        W45544   6.525  11.703   1.892  0.0991  0.1555 -0.3266
28698W        W45545  11.207  16.602   3.261 -0.4527  0.1779  0.0089
28699W        W45546   7.999   7.519   2.242 -0.2258 -0.1437  0.0626
28700W        W45547  15.230   1.686  11.460  0.2701 -0.2122 -0.0196
28701W        W45548   3.742   1.720  12.887 -0.0699 -0.1684  0.0029
28702W        W45549   1.658  10.675   6.055 -0.0606  0.2650  0.1754
28703W        W45550  11.605   4.342  15.161  0.2256  0.2097  0.0169
28704W        W45551   2.136   5.743  11.612  0.2956 -0.2826  0.3852
28705W        W45552   8.573  11.870   5.425  0.0300 -0.0742  0.1063
28706W        W45553  11.028   6.977  14.886 -0.1333  0.2028  0.0974
28707W        W45554  15.843  15.290  15.394  0.2177  0.0470 -0.1777
28708W        W45555   5.846   1.326   3.054  0.2389 -0.2033  0.3263
28709W        W45556   1.652  17.025  13.771  0.1993  0.1464  0.0440
28710W        W45557   1.770   2.874   4.631  0.1557  0.1292 -0.0287
28711W        W45558  17.809  10.614   2.920 -0.0373  0.0456  0.2692
28712W        W45559   7.641  13.640   4.897 -0.0604 -0.0211  0.2030
28713W        W45560  10.028   9.343   3.258  0.0828  0.1637  0.2435
28714W        W45561  10.797  14.981   0.966 -0.0350 -0.0569 -0.0587
28715W        W45562   0.790  15.225   4.455 -0.0655  0.3082 -0.0161
28716W        W45563   1.973  12.028   4.765 -0.0229 -0.0095  0.3582
28717W        W45564  16.210  11.238   3.824  0.1459 -0.1476 -0.1748
28718W        W45565  10.113  11.945   1.449  0.1003  0.1328  0.0252
28719W        W45566   9.080   1.362  12.519  0.3687  0.0059  0.3725
28720W        W45567   5.155   6.543   0.964  0.1213 -0.1886 -0.0232
28721W        W45568  16.437   7.983   2.755 -0.0083 -0.2088 -0.1560
28722W        W45569   1.640  18.180   1.438 -0.0378 -0.0020 -0.1051
28723W        W45570  12.999  12.689   3.215  0.1074 -0.1322 -0.2734
28724W        W45571   3.695  11.938   2.005  0.0470  0.2595 -0.1262
28725W        W45572  14.002   7.769  12.921 -0.0239 -0.1192 -0.1643
28726W        W45573   4.946   6.952  15.505 -0.0324 -0.2582 -0.0829
28727W        W45574  10.332  17.431   1.322  0.1427  0.0477  0.0206
28728W        W45575  17.844  13.118  14.270  0.3494 -0.3240  0.1251
28729W        W45576   0.493  11.969  14.527  0.2916  0.0184 -0.1610
28730W        W45577   8.831   7.849   2.788  0.1039  0.3669 -0.1774
28731W        W45578  11.324  18.159  16.071 -0.3083 -0.3183  0.2675
28732W        W45579  17.607   6.260   0.082 -0.1249  0.0763  0.1721
28733W        W45580  10.177   8.605   0.463  0.1189  0.0125  0.2131
28734W        W45581   5.866   6.622   5.042  0.3921 -0.2683 -0.0284
28735W        W45582  18.142   3.232  11.702 -0.2789 -0.0135  0.1286
28736W        W45583   2.935  11.429  11.512 -0.1632  0.1996 -0.1095
28737W        W45584  14.060   5.501  14.984  0.0709  0.1847 -0.0190
28738W        W45585   9.221  11.515   3.005  0.1494  0.1360  0.2260
28739W        W45586  17.525   3.586  13.532 -0.0370 -0.0671  0.2336
28740W        W45587   7.940   6.565   1.839 -0.1096 -0.2431 -0.3770
28741W        W45588   0.063   3.766  11.086  0.3694  0.1004  0.0676
28742W        W45589  16.631   6.787   0.793  0.2618 -0.0048 -0.0542
28743W        W45590   5.448   5.177   3.014 -0.1091 -0.0507 -0.0709
28744W        W45591  15.329   2.339   2.698 -0.0868  0.2661  0.0708
28745W        W45592   6.566  11.625   5.801  0.1659  0.0138  0.0775
28746W        W45593   9.576  15.230   0.554  0.1938 -0.3482  0.3806
28747W        W45594   8.954   1.521  13.038 -0.1692  0.2033  0.3334
28748W        W45595   4.557   6.061   1.357  0.0600  0.0423  0.0114
28749W        W45596  14.532  10.192  12.977  0.1268 -0.0377  0.2033
28750W        W45597   2.659   6.883  15.668  0.1855  0.0835 -0.1590
28751W        W45598   7.122   7.647  13.615 -0.2300  0.0582  0.2012
28752W        W45599  11.865   1.904   3.173 -0.2157  0.0853  0.1867
28753W        W45600   1.706   8.254   2.824  0.1651  0.4435  0.2320
28754W        W45601  12.624   1.448  12.379  0.3217  0.1190 -0.0077
28755W        W45602   8.499  16.334   6.091  0.0032  0.0490 -0.1739
28756W        W45603   7.110  16.620   4.697 -0.4012  0.0744 -0.5288
28757W        W45604   9.688   5.749   4.188  0.1447 -0.0999  0.2734
28758W        W45605  12.913  10.820   1.182 -0.0089  0.1214 -0.2389
28759W        W45606  15.174   0.801   3.203 -0.0609  0.0761  0.0320
28760W        W45607   8.650  15.313  14.649 -0.1510  0.2956  0.0858
28761W        W45608   7.811  12.141   4.579  0.0134 -0.2252 -0.1108
28762W        W45609  12.745   6.152   5.577 -0.0917 -0.3525  0.2936
28763W        W45610   3.470  17.235   2.225 -0.1704 -0.0876 -0.2050
28764W        W45611   7.878  13.282   1.057  0.0805  0.1669 -0.0207
28765W        W45612   7.246  17.691  11.812 -0.0381  0.1516 -0.0047
28766W        W45613   5.159  11.113  11.682  0.0618 -0.2301 -0.0846
28767W        W45614   5.107   0.110  12.673 -0.0349  0.1606  0.1239
28768W        W45615  10.087   7.565   9.976  0.1545  0.0825 -0.0372
28769W        W45616   8.411   6.278  11.364 -0.0638  0.0125 -0.1101
28770W        W45617   3.410  13.339   3.265  0.2315  0.0125 -0.0161
28771W        W45618   0.374   5.476  14.073  0.1212 -0.2585  0.0935
28772W        W45619   1.935   0.697   4.992 -0.1150 -0.0341  0.0874
28773W        W45620   1.983   5.634   4.877  0.1961 -0.1782 -0.0635
28774W        W45621   7.233   5.754   2.446 -0.1920 -0.3649  0.1739
28775W        W45622   5.352   8.262   2.583  0.5119  0.0556  0.1169
28776W        W45623   6.516  18.039   2.939 -0.2681  0.0285 -0.0896
28777W        W45624   0.816  10.084   6.253  0.0889 -0.0324 -0.1401
28778W        W45625   1.636   8.282  12.833  0.2522 -0.0445  0.3953
28779W        W45626   2.146  13.170   4.523 -0.1904  0.0115  0.3303
28780W        W45627   0.096  10.438   3.681  0.1257  0.1698 -0.0378
28781W        W45628   1.868  11.226   3.327 -0.0306 -0.1605  0.0190
28782W        W45629  12.587  10.677   2.205 -0.2254  0.0056  0.3051
28783W        W45630  15.307  11.053   4.618  0.2467 -0.0273  0.2042
28784W        W45631  16.441   7.517  13.853  0.1776 -0.1208  0.3500
28785W        W45632   6.801   8.933   3.530  0.0412  0.0762  0.0242
28786W        W45633  12.668   5.297  12.520 -0.2354 -0.1409 -0.2439
28787W        W45634  15.257   1.545   5.339  0.0328 -0.2540 -0.0082
28788W        W45635   9.410   4.572   0.320 -0.0270  0.0859  0.0305
28789W        W45636   8.165   9.212  11.632  0.3080 -0.1164  0.3579
28790W        W45637   6.949   4.217  13.300 -0.0075 -0.0015 -0.0664
28791W        W45638   8.393   5.740   1.693  0.0574 -0.1114 -0.0491
28792W        W45639  13.990   9.475  14.939 -0.2266  0.1308  0.1778
28793W        W45640  16.063   5.049   1.083  0.0196  0.1275  0.2153
28794W        W45641   6.426  15.055   5.356 -0.2659 -0.3031  0.1394
28795W        W45642   4.941   5.653  15.759  0.1061  0.2271  0.1958
28796W        W45643   1.637  17.162   0.827  0.0665  0.1631 -0.4583
28797W        W45644   5.959   5.054   4.219  0.0989  0.2894  0.0234
28798W        W45645  18.282   6.545   5.888  0.1142 -0.0702  0.0478
28799W        W45646   3.639  14.389  15.014 -0.0933 -0.1385 -0.2773
28800W        W45647  10.181   6.707  11.984  0.0304 -0.2883  0.0558
28801W        W45648  13.111  11.685   2.039  0.1654 -0.0128 -0.0660
28802W        W45649   6.031  17.973   1.355  0.3227  0.3082 -0.1081
28803W        W45650   6.359   5.469   1.231  0.0863 -0.1720  0.2458
28804W        W45651   6.840  12.676   2.334 -0.1751  0.0997 -0.0905
28805W        W45652   6.045  16.351  12.682 -0.0065  0.0877 -0.2435
28806W        W45653  14.620  16.354  12.792  0.0463 -0.0581  0.0388
28807W        W45654   0.050  14.025   0.888  0.3060 -0.0940  0.0411
28808W        W45655  17.395   4.142   4.116  0.0615 -0.0667 -0.1286
28809W        W45656   0.249   3.160  15.915 -0.2256 -0.0425 -0.0098
28810W        W45657  10.310   4.685   4.603 -0.0185 -0.3293  0.0560
28811W        W45658   7.324   3.539   0.860 -0.0360  0.1644 -0.1544
28812W        W45659  10.247  16.401   4.110 -0.1720  0.2582  0.1293
28813W        W45660   2.124  15.214   1.644 -0.0875  0.0434 -0.1070
28814W        W45661  14.667   0.105  15.834 -0.3265 -0.2164 -0.2540
28815W        W45662   1.761   7.505  13.511 -0.0548  0.2421 -0.3172
28816W        W45663   5.828   3.083   3.940 -0.1387 -0.1104 -0.1122
28817W        W45664   0.472  14.640   0.361  0.2626 -0.0788  0.1042
28818W        W45665   7.932   3.148  14.937  0.1059  0.1056 -0.1032
28819W        W45666   3.336  16.798  13.128 -0.0118 -0.2888  0.1440
28820W        W45667   3.841   3.217   1.623  0.0900  0.0673  0.1798
28821W        W45668   0.309  15.531   2.165  0.1952  0.6138 -0.1244
28822W        W45669   4.690   6.577   4.487 -0.0846  0.1558  0.2113
28823W        W45670   6.751   8.572  11.179 -0.0772 -0.0881 -0.0787
28824W        W45671   5.392  14.811  15.774  0.2518 -0.0715  0.0598
28825W        W45672   8.233   0.034  14.044  0.2336  0.1141 -0.0833
28826W        W45673   8.651  11.330   0.535 -0.1887  0.2467 -0.1174
28827W        W45674   3.693   9.083   1.044  0.2682  0.2295 -0.1727
28828W        W45675  10.453   7.188   0.874  0.0219 -0.0701  0.1194
28829W        W45676  17.296   9.175   3.125 -0.0507  0.0553  0.1416
28830W        W45677   9.524   4.906   2.426  0.0788  0.0944  0.4018
28831W        W45678   9.387  18.073   1.420  0.0337 -0.0185  0.2992
28832W        W45679   4.479   8.300   3.064 -0.4337  0.0494 -0.2266
28833W        W45680  14.950   6.834   2.183 -0.0823  0.1791  0.0495
28834W        W45681   5.436  10.723  15.557 -0.2764  0.0084 -0.0964
28835W        W45682   6.155  12.525  12.893  0.0508  0.1444  0.0407
28836W        W45683   0.239  10.437   5.007  0.0581 -0.0897 -0.0641
28837W        W45684   0.141   6.349  13.430 -0.0010 -0.3799  0.0643
28838W        W45685   6.531   6.198  10.311 -0.0769 -0.1688  0.0458
28839W        W45686   1.141   8.276   0.999  0.1660  0.1678  0.0105
28840W        W45687  14.802   9.878   3.775  0.1003 -0.1325  0.2718
28841W        W45688   1.687   0.813   1.184  0.0294  0.2436 -0.2315
28842W        W45689   2.849   5.105  12.656 -0.0260  0.0961 -0.1934
28843W        W45690  15.098   2.807  15.797 -0.1837  0.0879  0.0134
28844W        W45691   5.381   8.038  12.974 -0.0175  0.0508  0.0610
28845W        W45692   0.157   5.606  13.654  0.1490  0.1718 -0.1429
28846W        W45693  12.206   2.835  11.166  0.1029  0.0771  0.0619
28847W        W45694  12.300  12.523  13.722 -0.0782  0.0275  0.2014
28848W        W45695   3.533   3.519  11.532  0.0479 -0.3209  0.2535
28849W        W45696   4.947   0.001   6.120  0.2525 -0.2486 -0.0036
28850W        W45697  15.800   7.415   1.916 -0.0222  0.1258 -0.2739
28851W        W45698   4.504   0.402   2.790  0.0106 -0.1398  0.3134
28852W        W45699   6.934  18.053   3.660 -0.2670  0.0188 -0.2876
28853W        W45700   1.900   4.862  15.664  0.4049  0.0503 -0.1951
28854W        W45701  15.064  16.558  14.110  0.0804 -0.1567  0.1335
28855W        W45702   9.762  10.365   3.017  0.1915  0.1963 -0.3959
28856W        W45703  12.421  15.105   5.257  0.1432 -0.0955 -0.0721
28857W        W45704  10.804  11.138   2.491  0.1587  0.0574 -0.1311
28858W        W45705  11.093  13.674   1.116  0.0376 -0.0382 -0.2929
28859W        W45706   6.879  13.743   2.199  0.4652 -0.1762  0.1769
28860W        W45707   8.513   7.576   4.418 -0.0476 -0.1648  0.2461
28861W        W45708   2.046   4.066  12.248  0.2207 -0.2155  0.4963
28862W        W45709   0.637   9.310   1.547  0.1556 -0.0931 -0.2118
28863W        W45710   8.433  15.225   3.335 -0.0390 -0.0465 -0.2330
28864W        W45711   9.021  12.866  14.969  0.1758 -0.1333 -0.1205
28865W        W45712  16.389  15.578  12.456  0.1650 -0.1444 -0.1084
28866W        W45713   2.351   9.808   2.239 -0.1992 -0.1286  0.1233
28867W        W45714  11.328  12.396  13.269 -0.0954 -0.1712 -0.0911
28868W        W45715   6.918   2.031  14.130 -0.0522 -0.2993 -0.0457
28869W        W45716  13.225  17.485   3.265 -0.1569 -0.0192 -0.0649
28870W        W45717   7.149  13.545  15.106 -0.1982 -0.5295  0.1201
28871W        W45718   3.166  15.211   1.278  0.1863  0.2611  0.2094
28872W        W45719   9.197   1.529   1.487  0.1121 -0.0229 -0.1031
28873W        W45720   2.092   6.623   1.754 -0.1420 -0.0282 -0.0513
28874W        W45721  14.956  17.236  15.249  0.2870 -0.0669 -0.2193
28875W        W45722   7.253   8.198   4.797 -0.0130 -0.0107  0.1377
28876W        W45723  10.095   3.764   1.771  0.0274  0.0680 -0.3651
28877W        W45724   4.761   7.531   6.447  0.1294 -0.2454 -0.0441
28878W        W45725   7.528   2.509   4.079 -0.1153 -0.0385  0.1581
28879W        W45726  10.529  15.546  13.994 -0.0335  0.0576  0.1179
28880W        W45727   3.128   4.859   5.505  0.1090 -0.0562 -0.1385
28881W        W45728   8.020   1.911   2.045  0.0973 -0.2240 -0.3566
28882W        W45729   0.955  13.429   5.136  0.0297  0.0967  0.1566
28883W        W45730   8.103   6.346   4.130  0.1367  0.1793 -0.2945
28884W        W45731  11.349   1.510  14.378 -0.0118 -0.2802  0.3340
28885W        W45732  13.062  15.389   2.192  0.1624 -0.2650  0.0597
28886W        W45733  16.684   7.259   0.027 -0.1514 -0.1347 -0.0069
28887W        W45734   8.826  17.037   5.730 -0.0198  0.1878  0.1590
28888W        W45735   6.059   3.858   0.181  0.0656  0.0772  0.2474
28889W        W45736   8.900   1.660   4.619 -0.1018 -0.0333 -0.0095
28890W        W45737   1.085  12.842  11.516  0.2268  0.5174 -0.0977
28891W        W45738  12.206   3.158   3.777  0.0941  0.4863 -0.0017
28892W        W45739  16.583   5.554  14.530  0.0693 -0.1202 -0.0531
28893W        W45740  12.117   0.804   0.650  0.2553 -0.2164 -0.0891
28894W        W45741  12.014  11.730  11.996 -0.1673  0.0758 -0.0928
28895W        W45742   4.081   9.267   4.985 -0.1005 -0.2185  0.5764
28896W        W45743   5.290  15.326  13.651 -0.1977 -0.0353 -0.2862
28897W        W45744  16.664   2.310  15.610 -0.1738  0.0474  0.1330
28898W        W45745   0.457  14.271  14.586 -0.0009 -0.1826 -0.2017
28899W        W45746   9.259  15.353   0.170 -0.2141  0.0015 -0.0760
28900W        W45747   5.447   0.790  16.142 -0.1010  0.2572 -0.0591
28901W        W45748   8.244   5.852  14.685  0.3276  0.2128 -0.3733
28902W        W45749   4.153  12.903  13.041 -0.1711 -0.1860  0.2381
28903W        W45750  13.297  15.251  13.289  0.0734 -0.0483  0.1463
28904W        W45751  10.431  10.421   1.428 -0.1591 -0.1081 -0.2357
28905W        W45752  11.680   9.481  15.460 -0.2352 -0.1295 -0.3398
28906W        W45753   8.516   6.970  15.839 -0.0308 -0.0083  0.1240
28907W        W45754  17.061  15.046   3.178 -0.0658 -0.0109  0.1732
28908W        W45755   8.357   4.396   2.243 -0.1121  0.2061 -0.0152
28909W        W45756   8.333   5.437   0.343 -0.2569 -0.1165 -0.3691
28910W        W45757  15.403  10.678  11.524 -0.0268  0.0008  0.1562
28911W        W45758  18.095   4.737   0.260  0.1058  0.0660  0.0004
28912W        W45759   8.087  15.240  13.421 -0.2874 -0.1419 -0.0478
28913W        W45760   5.454   8.438  12.041 -0.0876 -0.1758  0.0757
28914W        W45761   5.054  17.187  12.064 -0.0236 -0.0057 -0.1142
28915W        W45762   3.801  13.824   1.399 -0.0242  0.0743 -0.0861
28916W        W45763  18.237   2.347  11.480  0.1630  0.0116  0.1663
28917W        W45764  18.245   3.740   2.365 -0.1118  0.1282 -0.0147
28918W        W45765   1.677   9.448   3.301 -0.2005 -0.1091  0.0218
28919W        W45766  13.821   8.838  16.140  0.0805  0.1924  0.0731
28920W        W45767  16.061  15.521  14.474  0.5934  0.0169  0.1077
28921W        W45768  17.186  10.871  10.560  0.0702  0.1583 -0.2431
28922W        W45769  14.734  15.876   2.758 -0.0373 -0.0204  0.0228
28923W        W45770  17.563   0.734  12.214 -0.2784 -0.3476  0.0259
28924W        W45771   6.742  10.022   1.401 -0.1073  0.0638  0.0389
28925W        W45772   1.615   1.362  12.357  0.2571 -0.0068 -0.1225
28926W        W45773  12.450   0.204  14.957 -0.0913  0.0717  0.0185
28927W        W45774   6.534  10.222  14.202 -0.0015 -0.0194  0.1110
28928W        W45775   9.235   5.305  12.879  0.1195 -0.2458 -0.1131
28929W        W45776  10.108   4.371  12.346 -0.1494  0.1802  0.1318
28930W        W45777   1.247   6.093  14.919  0.1556  0.1426  0.2052
28931W        W45778  15.602   2.218  14.063  0.0775 -0.1883  0.0470
28932W        W45779  17.096  12.995   1.540 -0.0010  0.1850  0.0272
28933W        W45780   6.158  13.237   0.908 -0.1006 -0.1919 -0.0282
28934W        W45781  18.127   3.519   4.411 -0.2620  0.1451 -0.1485
28935W        W45782  11.693   8.999   2.087  0.1063 -0.0014 -0.3166
28936W        W45783   7.160   7.653   2.213 -0.2585 -0.0522  0.0600
28937W        W45784  13.034  12.655  11.253 -0.1743 -0.0999 -0.0166
28938W        W45785  10.881   2.241  15.833  0.0589  0.2656 -0.1604
28939W        W45786  12.197  15.713   3.902 -0.0328  0.2309 -0.0093
28940W        W45787   2.817   1.027  15.864 -0.0356  0.1765 -0.1181
28941W        W45788  11.004   5.715  12.147 -0.0845 -0.1806 -0.1707
28942W        W45789   4.113  17.482   2.802 -0.0615  0.0177  0.0826
28943W        W45790   9.544   5.578   3.235 -0.0048 -0.1780 -0.1700
28944W        W45791   9.482  13.759  15.711 -0.0964 -0.1619 -0.2413
28945W        W45792   1.529   5.498   2.510 -0.0093 -0.0998 -0.0836
28946W        W45793   9.315   0.863   5.334 -0.0585  0.1807  0.1576
28947W        W45794   1.220  17.943   1.305 -0.3716  0.2108  0.3007
28948W        W45795  11.200  16.724  11.473 -0.0595 -0.2501 -0.0186
28949W        W45796   3.832  12.704  15.652 -0.2735 -0.2276  0.1926
28950W        W45797   1.761   4.054   3.576  0.1407 -0.3900  0.0438
28951W        W45798  16.420   6.816   0.349 -0.1029  0.0803  0.2675
28952W        W45799  12.557   9.065   0.144 -0.0910  0.3191 -0.3056
28953W        W45800   1.639  12.722  16.080  0.1745  0.0569 -0.1679
28954W        W45801  13.334  10.789  12.479  0.0840 -0.1184  0.2708
28955W        W45802  16.133   2.156   1.855 -0.0752  0.0618 -0.0650
28956W        W45803   8.040   0.373  14.830 -0.1104 -0.0080  0.0264
28957W        W45804  16.822   3.981  13.579 -0.0250 -0.1929  0.1433
28958W        W45805  10.013   8.371  12.669  0.0403  0.2306 -0.0486
28959W        W45806  18.160   0.030   0.039 -0.0382 -0.0468  0.0729
28960W        W45807   7.063   4.251  11.347  0.2036 -0.0378  0.1461
28961W        W45808   0.113  15.908   2.382  0.0089 -0.1042 -0.0210
28962W        W45809   1.920  18.305  12.438  0.1542  0.2812  0.1920
28963W        W45810   2.234  13.961   1.675 -0.0144 -0.1466 -0.2635
28964W        W45811   9.534  14.536   1.225  0.0419 -0.0819 -0.2109
28965W        W45812   1.234  14.852  14.095  0.0839  0.1440  0.1684
28966W        W45813   8.177  11.436   3.353  0.2996 -0.2831  0.2330
28967W        W45814  17.520   2.371   2.673  0.1384 -0.0712 -0.1683
28968W        W45815  16.835  12.544   5.795 -0.2122 -0.2260  0.0299
28969W        W45816   8.607  10.724   2.657 -0.0692 -0.1983  0.0561
28970W        W45817   7.368  10.269   0.297  0.1423 -0.3449  0.0768
28971W        W45818   5.076   7.553  14.155 -0.3777  0.0773  0.1943
28972W        W45819   5.857   4.929   2.665 -0.0255 -0.0104 -0.2016
28973W        W45820   7.165   5.325   3.344  0.1895  0.1125 -0.2546
28974W        W45821  15.517   4.401   4.316  0.0676 -0.2817 -0.0253
28975W        W45822   8.865  10.332   1.189  0.1920 -0.0236 -0.0547
28976W        W45823   5.044   2.831   2.738 -0.1267  0.2140 -0.0635
28977W        W45824   8.143  15.973   2.595 -0.0019 -0.0544 -0.0688
28978W        W45825   7.954  12.941  13.412  0.1530  0.1007  0.1515
28979W        W45826   2.589  13.599   5.838 -0.1188 -0.1638 -0.1135
28980W        W45827  11.192   0.300   3.578  0.0294  0.2815  0.1922
28981W        W45828  11.220   1.642   5.068 -0.1295 -0.2606 -0.0626
28982W        W45829   2.968  12.528   3.217  0.3563  0.0047 -0.0433
28983W        W45830  15.912   1.172  13.444  0.1457 -0.1281  0.0372
28984W        W45831   3.512  12.785   0.868 -0.0273 -0.0300 -0.1248
28985W        W45832   2.227  12.887   2.916  0.0180 -0.3552 -0.2676
28986W        W45833  17.837  15.583   4.289  0.1941  0.1096 -0.0362
28987W        W45834   1.798   6.139   4.119 -0.0517 -0.0507 -0.1421
28988W        W45835  16.728  11.728  12.875  0.1259 -0.1423  0.0308
28989W        W45836   5.537   9.475   0.363  0.0276  0.1030  0.1845
28990W        W45837  12.328   9.831  15.073  0.0277  0.0783  0.0488
28991W        W45838   7.403   4.359  12.209 -0.0793 -0.0106  0.3250
28992W        W45839  13.308   3.639   4.350  0.1660 -0.0053  0.0002
28993W        W45840   4.340   6.996   1.662 -0.1719 -0.0919 -0.0733
28994W        W45841   4.031  15.456   4.870  0.0631 -0.1060  0.1432
28995W        W45842   8.332   6.341   3.606 -0.0555  0.1832  0.0320
28996W        W45843   4.754   3.542   1.467 -0.1393 -0.0507 -0.1422
28997W        W45844  13.555   9.348  13.569  0.0847 -0.2013 -0.0877
28998W        W45845   6.953  10.038   0.229 -0.1766  0.0257 -0.1116
28999W        W45846   7.285  14.391  12.529 -0.2381 -0.2816  0.2243
29000W        W45847   8.689  11.069  13.797 -0.1528  0.0722 -0.1910
29001W        W45848  12.339   0.820  13.630  0.2576 -0.1245 -0.0518
29002W        W45849   9.636   8.817   1.272 -0.1415 -0.2629  0.1130
29003W        W45850  17.409   6.068   4.914  0.2304  0.0008  0.2738
29004W        W45851   5.981   4.578   5.154  0.1135 -0.1962  0.1371
29005W        W45852  12.759   3.489  10.138  0.4907 -0.3897 -0.0302
29006W        W45853  17.920  14.972  16.078 -0.0914 -0.1704  0.1356
29007W        W45854   9.397   4.791   4.426  0.0974 -0.1923  0.0996
29008W        W45855   4.027  13.343  11.922  0.0497  0.0171  0.0642
29009W        W45856   1.164  14.305   6.352  0.0159 -0.0113 -0.0670
29010W        W45857   2.401   6.559   2.630  0.0142  0.1111  0.0451
29011W        W45858  15.810  18.067   1.466  0.1889 -0.0799 -0.0316
29012W        W45859   7.140  14.479   0.187 -0.0697  0.0908 -0.1117
29013W        W45860  11.020   9.331  12.965  0.1256 -0.3308  0.1132
29014W        W45861  14.673  10.601  16.180  0.0220 -0.0181 -0.2247
29015W        W45862  15.909  15.899  15.564  0.0440  0.3680  0.0355
29016W        W45863   2.549   8.069  13.300  0.0091  0.1539 -0.3563
29017W        W45864   2.383   8.709   3.421 -0.0076  0.1770 -0.1667
29018W        W45865   8.420  14.044  15.269 -0.5546  0.0496 -0.1527
29019W        W45866   1.988   1.895  14.975 -0.1266 -0.0546  0.2928
29020W        W45867  18.250   2.161   5.531  0.2040 -0.3224 -0.2373
29021W        W45868  14.608  17.212  11.790 -0.0618 -0.0706  0.0638
29022W        W45869  16.694   1.352  14.070 -0.1909  0.0957  0.0228
29023W        W45870   5.065  10.025   5.586 -0.3513 -0.0810  0.0241
29024W        W45871   7.945   4.680  13.384 -0.1462 -0.0591 -0.0478
29025W        W45872   5.441  15.984   2.443 -0.0476  0.1005 -0.2315
29026W        W45873  18.122   1.444  13.943 -0.0942  0.2386 -0.1236
29027W        W45874  13.795   9.956   0.037 -0.0427  0.1201 -0.1651
29028W        W45875  13.572   7.843  13.263 -0.0294 -0.1205  0.0037
29029W        W45876   7.919  10.361   4.476 -0.1710  0.2728  0.1996
29030W        W45877  13.054  18.215   1.195  0.0726 -0.0400 -0.4780
29031W        W45878   8.558  13.380   3.584 -0.1796  0.0040 -0.0923
29032W        W45879   0.143  12.146   1.804 -0.1817  0.0798  0.1509
29033W        W45880   8.953   7.229  15.882 -0.4141  0.2390 -0.2553
29034W        W45881  12.742  15.207  12.222  0.2294  0.1508 -0.0264
29035W        W45882   3.250  11.077  11.335  0.2480 -0.0527  0.3785
29036W        W45883  12.361   3.062  15.763  0.3247  0.0125 -0.2642
29037W        W45884   3.497   2.155  15.690 -0.0339  0.0464  0.0322
29038W        W45885   9.303   7.278  14.429 -0.2429  0.1730  0.1999
29039W        W45886   0.688  14.053  11.859 -0.0111 -0.3589  0.0612
29040W        W45887   1.572  16.889   3.521  0.2286 -0.0564  0.4876
29041W        W45888  13.711  15.707  14.924 -0.1896  0.0199 -0.0292
29042W        W45889  13.048   2.596  15.416  0.1839  0.0525 -0.0801
29043W        W45890  14.553  13.146   0.953 -0.0001  0.3106  0.1011
29044W        W45891   0.061   4.126  11.944  0.0832 -0.3156 -0.0217
29045W        W45892  11.350   4.487   0.189 -0.1165 -0.0254  0.2630
29046W        W45893   3.447  12.974   5.914 -0.1056  0.1352  0.2351
29047W        W45894  15.819  16.991  13.672 -0.2559  0.0187  0.1107
29048W        W45895  10.731   4.966  15.162 -0.0980  0.1172 -0.0377
29049W        W45896   5.545   8.026   4.088 -0.0873  0.0462  0.0919
29050W        W45897   6.189   1.885  15.312 -0.1195 -0.3386  0.0579
29051W        W45898  12.434   5.435  11.685  0.1920  0.0081 -0.0858
29052W        W45899  16.034   7.103  10.901  0.1110 -0.1544  0.0277
29053W        W45900  10.557   9.681   1.555 -0.1039  0.4070 -0.2769
29054W        W45901  14.457   7.825  15.045 -0.2385  0.0317  0.3706
29055W        W45902   9.328   5.235   3.601  0.2357  0.1084 -0.1021
29056W        W45903   3.095   2.404   5.517 -0.1414 -0.2059  0.0032
29057W        W45904   2.087  13.369  12.886  0.1122 -0.2838 -0.2750
29058W        W45905  14.221   6.649  10.839  0.4852  0.0681 -0.0672
29059W        W45906  10.801  14.881   2.790 -0.3729  0.0447 -0.0552
29060W        W45907  10.408   5.928  12.278 -0.0515  0.0391 -0.1385
29061W        W45908   9.791   4.580   1.852 -0.1495  0.1730  0.0575
29062W        W45909   1.563   0.507   0.819  0.1246  0.0365 -0.1937
29063W        W45910   9.750   4.622  10.872 -0.0316 -0.1562  0.1901
29064W        W45911   9.541  15.622   4.488 -0.1819  0.3821  0.2261
29065W        W45912  11.353   3.749   5.549 -0.0104  0.1970  0.1833
29066W        W45913   7.185  16.084   0.790 -0.1504 -0.0860 -0.0404
29067W        W45914   6.483  13.201  15.750 -0.3489 -0.3339  0.1079
29068W        W45915  10.656   5.634  11.791 -0.1516 -0.0345  0.1660
29069W        W45916  14.978   6.055  12.202  0.0766 -0.1417 -0.0579
29070W        W45917   1.984  17.180  11.070 -0.2614  0.3511 -0.1828
29071W        W45918  14.831   7.905  14.447 -0.1102  0.1682  0.2726
29072W        W45919  14.958   0.483  11.189 -0.1356 -0.4754  0.0057
29073W        W45920   4.696  16.914  14.215  0.1701 -0.0330  0.2748
29074W        W45921   6.033   6.362  14.316  0.3382  0.2321  0.2157
29075W        W45922  14.194  13.838   4.181  0.0340 -0.0777 -0.1789
29076W        W45923   6.370  16.845  12.265 -0.2992 -0.0905 -0.0242
29077W        W45924  14.335  13.998   2.581  0.2416  0.0035 -0.1781
29078W        W45925  16.020  17.272   3.143 -0.1223  0.0081  0.1717
29079W        W45926   0.590   1.731  12.543  0.0988 -0.1024 -0.1813
29080W        W45927  16.895   6.685  11.879  0.1390 -0.2842 -0.2887
29081W        W45928  16.131   8.028   2.299 -0.0837 -0.0877 -0.0404
29082W        W45929  15.966  15.235  12.003  0.2504 -0.2755 -0.3399
29083W        W45930  17.883   3.081   1.464  0.2589  0.2727  0.0470
29084W        W45931   3.794   5.170  11.615  0.0408 -0.3456  0.2318
29085W        W45932   0.260  10.144   1.831 -0.0248  0.1613  0.2262
29086W        W45933   0.725  17.175  13.591 -0.0288  0.1628 -0.2060
29087W        W45934  17.861   2.475   4.537  0.0790  0.0109 -0.1036
29088W        W45935  13.097   5.577  10.026 -0.3582  0.0031 -0.2329
29089W        W45936   6.772   7.721  14.892 -0.0809  0.1364 -0.2172
29090W        W45937  13.346   9.303   3.735  0.0822  0.2844 -0.0254
29091W        W45938   2.290   7.961   1.831 -0.0876  0.2094  0.1021
29092W        W45939  12.342  11.323   0.873 -0.0480  0.0587 -0.0586
29093W        W45940   0.519   2.556   1.149  0.0879 -0.2571  0.1511
29094W        W45941   6.366  14.795  13.550 -0.1673  0.1952  0.4967
29095W        W45942   8.458   3.572   5.195 -0.2338 -0.0971  0.1703
29096W        W45943  11.698  13.236  13.100  0.0788 -0.1068 -0.2117
29097W        W45944   1.127   2.218   1.957 -0.4162 -0.2782  0.0100
29098W        W45945   3.755  14.054   3.416 -0.0725  0.1282  0.2567
29099W        W45946  15.292   5.228   1.529 -0.0691  0.2677 -0.2592
29100W        W45947  17.736   8.843   0.351 -0.0530 -0.0515 -0.0480
29101W        W45948   6.494  12.370   2.138  0.2260  0.1646  0.1059
29102W        W45949   1.442  13.659   2.646  0.2668 -0.0493 -0.0302
29103W        W45950   7.294   6.910  11.760 -0.1225  0.2129 -0.0845
29104W        W45951  17.188   3.707   4.351  0.3408 -0.2929 -0.1064
29105W        W45952   1.327   0.264   4.117 -0.1706  0.3440  0.2469
29106W        W45953  13.524  15.970  11.195  0.0815 -0.1364  0.1412
29107W        W45954   4.298  11.328  12.118  0.0901 -0.2956  0.0624
29108W        W45955  17.030   4.835   5.171 -0.0071  0.2165  0.1874
29109W        W45956   1.130  12.030  16.169 -0.2640  0.1073 -0.1767
29110W        W45957   1.167  16.051   1.945  0.0576  0.0922 -0.0013
29111W        W45958  11.626   2.563  14.079  0.0163  0.2351 -0.0333
29112W        W45959  17.841   2.851  11.861  0.2238 -0.0695  0.1072
29113W        W45960   2.827   4.524  15.314  0.2416 -0.0259  0.2820
29114W        W45961   3.247   1.780  13.501 -0.4067 -0.0702 -0.2688
29115W        W45962  14.188  10.094  14.062 -0.0462 -0.0725  0.3192
29116W        W45963   7.089  17.780   4.757  0.1309 -0.1585 -0.0701
29117W        W45964  11.490   9.464  11.968 -0.0612  0.0743 -0.0878
29118W        W45965  16.505  12.263   0.610  0.0334 -0.0124 -0.1196
29119W        W45966  11.510   6.593  13.085  0.0939 -0.0169  0.1164
29120W        W45967   9.682  13.212   1.395  0.2831 -0.2914 -0.2138
29121W        W45968   4.051  12.377  14.255  0.1552  0.0209 -0.0461
29122W        W45969  16.674   5.575   1.781  0.0612  0.2514 -0.0964
29123W        W45970   3.520  10.516   3.722 -0.0116 -0.0286  0.2177
29124W        W45971   0.241   3.722   4.671 -0.0941  0.1176  0.3109
29125W        W45972  13.777   7.317  13.160  0.0057 -0.2374  0.0268
29126W        W45973  16.816  12.964  13.197  0.2626 -0.2913  0.0403
29127W        W45974  16.973   0.939   0.262 -0.3431 -0.0281  0.0799
29128W        W45975   1.774  15.590   4.207  0.0658  0.2096 -0.1425
29129W        W45976   3.076  11.558   3.095  0.0575 -0.0709  0.1172
29130W        W45977  12.524   2.903  10.741 -0.2650  0.1898 -0.0569
29131W        W45978  14.213  15.428  14.746 -0.0760  0.1915  0.2093
29132W        W45979   2.391  10.390  12.224 -0.0368  0.2837  0.0167
29133W        W45980   7.315  15.367   5.058  0.1178  0.0270 -0.1115
29134W        W45981   9.254   0.233   5.643  0.0487  0.0583  0.1382
29135W        W45982  17.512  13.827   5.464  0.0256  0.0080 -0.0669
29136W        W45983  15.447   5.632  11.306  0.1409  0.0675  0.1973
29137W        W45984   7.973   8.982   0.511  0.1481 -0.1419 -0.1250
29138W        W45985   8.696  17.285  12.601  0.0704  0.0455  0.1021
29139W        W45986  15.352  15.833   4.382  0.0851  0.0044 -0.2559
29140W        W45987   9.106  14.120  12.239 -0.1359  0.2874 -0.0127
29141W        W45988   8.272  13.102  15.973 -0.0450 -0.1750 -0.3088
29142W        W45989   7.128  11.886  11.130 -0.2276 -0.1417 -0.2858
29143W        W45990  16.461  17.659  12.778 -0.2339  0.3376  0.1416
29144W        W45991   1.638  17.552   0.485 -0.1809 -0.1426  0.0895
29145W        W45992   0.752   4.985   2.197 -0.0419 -0.1788 -0.0988
29146W        W45993   1.050   7.694  15.582 -0.1132 -0.1532  0.1147
29147W        W45994  12.719   1.817  15.776  0.0019  0.1661 -0.2149
29148W        W45995  10.715  10.648   0.107 -0.0863  0.1165 -0.1136
29149W        W45996   8.332   3.347   4.393 -0.0114  0.2522  0.0438
29150W        W45997   0.073  17.937  14.224 -0.0598 -0.3170  0.0399
29151W        W45998  17.630  13.507  14.014  0.0994  0.1747  0.0299
29152W        W45999   9.884   5.696  13.075  0.3649  0.2063  0.0802
29153W        W46000   1.128   9.437   3.261 -0.0680 -0.2380  0.1821
29154W        W46001   8.172   3.344   3.173 -0.1221  0.0661 -0.0903
29155W        W46002  16.112   2.606  12.213 -0.1369 -0.0415 -0.0546
29156W        W46003   7.933  10.792  13.895  0.3155 -0.1656  0.2846
29157W        W46004  17.950  12.633   1.599  0.0089 -0.1261 -0.1843
29158W        W46005  11.723   2.731  13.621  0.0634  0.3556 -0.1630
29159W        W46006  16.294  17.139  12.638  0.0548 -0.0375 -0.0974
29160W        W46007  13.920  17.757   5.485 -0.1134 -0.2118  0.0977
29161W        W46008  17.473   9.544  12.160 -0.0604 -0.0767  0.2220
29162W        W46009   2.203   3.292   5.054  0.0267 -0.1798  0.1116
29163W        W46010   4.104  12.299  15.534 -0.0996  0.2251 -0.0558
29164W        W46011   9.944   2.769  14.664 -0.0243 -0.2609  0.0686
29165W        W46012   6.056   3.973   6.070 -0.1573  0.0357 -0.1184
29166W        W46013  12.247   5.514   2.757  0.0774  0.0498 -0.4214
29167W        W46014  13.007  17.560  14.686  0.0773  0.5358  0.2344
29168W        W46015   3.094   8.700   4.456 -0.0591 -0.0114  0.2024
29169W        W46016  14.375   4.804  12.831  0.0337 -0.0170  0.1582
29170W        W46017   7.474  12.773   0.434  0.0238  0.3134 -0.1090
29171W        W46018   1.594   5.846  15.613  0.1040  0.1164  0.1677
29172W        W46019  10.129   2.167   2.281  0.2547 -0.2609 -0.0829
29173W        W46020   3.295  11.324   1.402  0.0455 -0.1873 -0.2911
29174W        W46021  14.137  10.680  12.738  0.0103 -0.1712 -0.1707
29175W        W46022  11.435   1.744   1.807  0.0935 -0.0164  0.3041
29176W        W46023   2.299   1.716   4.669  0.0639 -0.0795  0.0570
29177W        W46024  11.711   8.201  14.457 -0.3971  0.2481 -0.0409
29178W        W46025   4.242  11.705   5.500  0.0270 -0.3970 -0.1600
29179W        W46026   7.744  16.417  12.566 -0.0899  0.2673 -0.1892
29180W        W46027  13.512   9.613  15.522  0.1961 -0.1616  0.0291
29181W        W46028  13.448   9.618   1.592 -0.2395  0.2623  0.2180
29182W        W46029  11.567   1.697   2.577  0.0409 -0.1070 -0.1419
29183W        W46030   4.554  17.093   5.924 -0.3336 -0.1287 -0.1038
29184W        W46031  14.802   6.662   5.144  0.1808 -0.2410  0.1995
29185W        W46032  14.068   1.703   2.159  0.1989  0.0186  0.1813
29186W        W46033  17.459   7.996   2.004 -0.0906 -0.2772 -0.0147
29187W        W46034  12.641  15.958  12.767 -0.1634 -0.0924 -0.2039
29188W        W46035   5.565   0.234   4.551 -0.2002 -0.2506 -0.1264
29189W        W46036   5.801  16.829   2.537  0.0829 -0.0730  0.0549
29190W        W46037  14.510  11.248  10.968  0.0599 -0.0172  0.0221
29191W        W46038   9.309   3.925  15.196  0.2103  0.1431  0.2253
29192W        W46039   9.447  16.162  15.832  0.1801 -0.0971  0.1642
29193W        W46040   3.825   0.823  15.092  0.0157  0.0601  0.5236
29194W        W46041  15.639   4.866   1.693  0.0318  0.0206  0.1127
29195W        W46042  14.751   3.943  10.473  0.0659  0.1336 -0.0144
29196W        W46043   8.384   5.724  14.116  0.1681 -0.3199  0.2641
29197W        W46044  12.549   9.282  12.815  0.2399  0.2815 -0.1687
29198W        W46045   6.894   4.557   2.400  0.2862  0.1254 -0.0059
29199W        W46046  16.572   7.991  11.480  0.0239  0.3581  0.0224
29200W        W46047  16.864   0.523   1.021 -0.0953  0.1136  0.1197
29201W        W46048  17.945   9.815   0.933  0.2013  0.0311  0.1896
29202W        W46049   4.247   1.839   1.840  0.0966  0.0814 -0.0940
29203W        W46050   7.553   0.895  11.936  0.0445 -0.0365  0.0089
29204W        W46051   3.097   1.574  14.094  0.0669 -0.0188  0.2041
29205W        W46052  17.474  15.583   1.277  0.0651 -0.1269 -0.1693
29206W        W46053  12.821  13.279   0.435  0.0340 -0.0219 -0.1419
29207W        W46054   4.880  10.769  15.038 -0.0147 -0.1152  0.0961
29208W        W46055   8.334   0.152  14.513 -0.0491  0.2744 -0.1025
29209W        W46056   2.363   0.653  14.237  0.2077  0.0900 -0.2011
29210W        W46057  17.213   0.916  12.967  0.0813 -0.1913 -0.2044
29211W        W46058   7.109   4.673  14.537  0.0745 -0.2532 -0.1071
29212W        W46059  11.338   4.085  15.610  0.1982  0.1869  0.2489
29213W        W46060   0.355   2.655  12.857  0.2735  0.0688 -0.0670
29214W        W46061   2.247   4.962   4.124 -0.2269  0.4331 -0.0331
29215W        W46062   3.871   7.491   3.919 -0.4427 -0.0104  0.2907
29216W        W46063   2.672   9.305  14.736 -0.0905  0.0091 -0.1588
29217W        W46064   5.245   5.405   4.630 -0.3742  0.0911  0.0050
29218W        W46065   1.189   4.862  10.154 -0.1027 -0.2658  0.0791
29219W        W46066  10.494  15.256  11.971 -0.2658 -0.0279 -0.0390
29220W        W46067   9.986   7.653  14.558  0.0040  0.1263  0.1175
29221W        W46068   2.916  18.234   3.415 -0.1257 -0.4356  0.1388
29222W        W46069  11.051   5.259  16.016 -0.1799  0.1235 -0.3596
29223W        W46070   8.473  10.445   4.369 -0.2432 -0.0038  0.0933
29224W        W46071  18.031   0.048  15.378 -0.0352  0.0298  0.3379
29225W        W46072   7.625   5.778  14.757 -0.1090 -0.2718 -0.0716
29226W        W46073   8.371   2.183   0.024 -0.0273 -0.1704  0.1662
29227W        W46074   5.464   9.311   4.504 -0.1885  0.0731 -0.1627
29228W        W46075   3.864  17.578  14.363  0.4030 -0.0649  0.0902
29229W        W46076  11.710   9.904  14.519 -0.0630  0.4516 -0.1865
29230W        W46077  11.782   5.505  12.542  0.2002 -0.0948  0.3485
29231W        W46078  16.011   5.153   3.998 -0.0942  0.1155  0.3934
29232W        W46079   2.102  11.114   0.377  0.2336 -0.1167  0.1336
29233W        W46080  14.019  15.039   4.226 -0.1700 -0.0846 -0.2628
29234W        W46081  17.148   9.598  15.405  0.1772 -0.2113  0.0573
29235W        W46082  12.429  14.239  15.641  0.2966 -0.0963  0.0399
29236W        W46083   2.549  12.576  13.464  0.0521  0.2580  0.0781
29237W        W46084   9.899   4.634  11.377 -0.0292 -0.1798 -0.3311
29238W        W46085  14.882   5.606  13.754  0.1289  0.0766  0.0178
29239W        W46086   8.239   1.402   2.836  0.2386 -0.0232 -0.1884
29240W        W46087   2.385   1.562  10.521 -0.0992 -0.2021 -0.0723
29241W        W46088  13.707   7.298   1.250 -0.0218 -0.0304  0.0519
29242W        W46089   5.455   8.375  11.100 -0.1004 -0.2618  0.3110
29243W        W46090   4.202   5.270  15.254 -0.1252  0.2510  0.1336
29244W        W46091  17.156   6.298  11.681  0.0496 -0.0031  0.0463
29245W        W46092  16.286  12.576  11.373 -0.1201  0.1474 -0.1363
29246W        W46093   7.791   6.763   0.250 -0.1059  0.2221  0.0816
29247W        W46094  12.462   1.120   4.085 -0.1250  0.2186 -0.1826
29248W        W46095   4.126   5.983   2.670 -0.1384 -0.1086 -0.1540
29249W        W46096  15.009  11.642   5.391  0.0440  0.0739  0.2902
29250W        W46097  15.163   7.658  13.906  0.1550  0.1582  0.3552
29251W        W46098  16.649   2.581   3.325 -0.0071 -0.1682 -0.2133
29252W        W46099  15.790   1.782   4.514 -0.1424  0.0054  0.0987
29253W        W46100   3.178   6.127  11.558 -0.1967  0.0960  0.0657
29254W        W46101  10.529   5.323  16.058  0.0203 -0.2131  0.2930
29255W        W46102   3.481  11.845   2.913  0.0057 -0.1916 -0.0688
29256W        W46103   5.927  12.763   3.753  0.0520  0.1964  0.1813
29257W        W46104  12.735  16.823   4.910  0.1032  0.1041 -0.0652
29258W        W46105   3.255  10.555   5.523  0.1350  0.0611 -0.1469
29259W        W46106   0.528   2.495   5.067 -0.0679  0.1523  0.0390
29260W        W46107   5.217   7.036   1.152  0.0708 -0.2116 -0.0106
29261W        W46108   1.347  13.044   3.626 -0.3340  0.4346 -0.1470
29262W        W46109   0.839   9.793  15.276 -0.1246  0.1990 -0.0256
29263W        W46110   2.331  15.611   3.978 -0.0326 -0.2682 -0.0944
29264W        W46111  15.575   3.621  13.298  0.2679  0.1725 -0.1711
29265W        W46112   3.189   7.989   5.718 -0.1013 -0.0765  0.0472
29266W        W46113   1.857   2.052  14.421  0.0268  0.2149 -0.4422
29267W        W46114   2.184   9.898  15.184 -0.2455  0.0522  0.1090
29268W        W46115   3.610  14.048   1.852 -0.3050  0.3654  0.0682
29269W        W46116  16.057   5.627   1.284  0.2419 -0.0215 -0.3304
29270W        W46117  11.211  12.515  12.375  0.0069 -0.0912 -0.1083
29271W        W46118  13.659   4.436   4.028  0.0546 -0.3496  0.1460
29272W        W46119   1.862  12.905  12.463  0.1734  0.3830  0.0264
29273W        W46120   2.910   5.259  13.423 -0.1170 -0.0571 -0.1356
29274W        W46121   3.454  17.680   2.542  0.2964  0.1356  0.1200
29275W        W46122  12.027  16.498   0.190  0.1324 -0.0207  0.1673
29276W        W46123   1.094  11.447  13.112 -0.0536  0.1067 -0.0516
29277W        W46124   3.755  16.611   2.095  0.2457  0.1244 -0.0872
29278W        W46125  13.346   6.708  11.483 -0.1547  0.1160  0.2494
29279W        W46126   3.259   1.562   3.401 -0.2892  0.2679  0.0547
29280W        W46127   4.662   2.799   3.023 -0.0450 -0.0815 -0.2191
29281W        W46128  15.323   3.668   3.570 -0.2089 -0.4255  0.1578
29282W        W46129   4.205   7.168  12.513  0.0046 -0.0745 -0.3635
29283W        W46130   1.444  17.001   4.487 -0.0077 -0.1367 -0.3758
29284W        W46131  18.006   1.772  15.970 -0.0698 -0.0809  0.0077
29285W        W46132   4.039  12.927   1.241 -0.0705  0.0491 -0.0794
29286W        W46133  18.284   0.648  11.157  0.1575  0.1358  0.1024
29287W        W46134  12.364  16.768  11.679 -0.1846 -0.2213 -0.1896
29288W        W46135   3.514   4.885   3.934 -0.0208  0.0371  0.2176
29289W        W46136  14.782  11.456   1.559  0.2002  0.0578 -0.1240
29290W        W46137  14.224  12.918  11.276  0.3770 -0.1624  0.0941
29291W        W46138  14.576   0.663  15.269  0.1450 -0.1652  0.0546
29292W        W46139  14.562  18.108   0.153  0.1694  0.3777  0.2450
29293W        W46140  12.175   6.608   1.699 -0.1834 -0.0346 -0.3232
29294W        W46141  17.196   1.435  14.196  0.0701 -0.0432 -0.0327
29295W        W46142  13.255  15.327   5.575 -0.2570  0.1421 -0.1953
29296W        W46143  13.603   5.671  11.505  0.1717 -0.1315 -0.0795
29297W        W46144  13.041   0.337  13.908  0.0827  0.2808 -0.0475
29298W        W46145   1.037  11.947  11.987 -0.1883 -0.0355  0.0319
29299W        W46146   2.643   4.247   4.121 -0.0307 -0.2928 -0.0235
29300W        W46147   7.161  13.669   2.636 -0.1117 -0.2263 -0.2567
29301W        W46148   6.723   9.469   3.468 -0.2404 -0.3088 -0.0766
29302W        W46149   1.023  18.066   3.316 -0.0247 -0.0376 -0.1086
29303W        W46150   5.791   1.476   6.475  0.0052  0.0314  0.1753
29304W        W46151   3.194   2.882   0.037  0.0691 -0.3035 -0.0506
29305W        W46152  13.144   0.165   2.647  0.2218 -0.0669  0.3546
29306W        W46153   9.990   2.451  13.157 -0.0239  0.3588 -0.1943
29307W        W46154   6.359   9.038   6.349 -0.2855  0.1652 -0.0208
29308W        W46155   2.414   8.433   0.496  0.1110  0.0583  0.2063
29309W        W46156  15.652   7.815  13.207 -0.0936  0.0226  0.1499
29310W        W46157  13.695   0.517  14.165 -0.1372  0.1001  0.1039
29311W        W46158   1.728  12.217  15.305  0.1651 -0.4256 -0.0969
29312W        W46159  10.514   2.181   0.091 -0.2352  0.2351 -0.0328
29313W        W46160  15.371   6.453  11.671  0.1640  0.3435  0.2793
29314W        W46161   5.004  17.209   0.803  0.1924  0.0902  0.4736
29315W        W46162   1.166   9.940   2.762 -0.2063 -0.0608  0.0710
29316W        W46163   0.715   5.805  13.789  0.0040  0.0842 -0.0670
29317W        W46164  14.781  16.225  14.416 -0.0884  0.4642  0.0288
29318W        W46165  12.802   1.625  13.967  0.0914  0.4366 -0.1956
29319W        W46166  13.946   1.972   1.186 -0.0742  0.1603 -0.1784
29320W        W46167  15.212   7.134  10.582  0.2881 -0.0517 -0.1124
29321W        W46168   5.195   4.407  12.487  0.0492 -0.1687 -0.2232
29322W        W46169  13.299  14.232   5.891  0.0506 -0.0380  0.1281
29323W        W46170   5.626  16.553  12.735 -0.0950  0.1402 -0.0045
29324W        W46171  14.455   4.064  14.996 -0.1190  0.0461 -0.0010
29325W        W46172  14.631  12.592   2.505 -0.0172  0.0957  0.0968
29326W        W46173  14.028   8.803  12.567  0.2545 -0.0893  0.0504
29327W        W46174  17.533  11.268  12.414  0.0161 -0.0736  0.0621
29328W        W46175   3.148   3.275  15.174  0.1200  0.2480  0.1350
29329W        W46176   5.656   5.291  13.459  0.0036 -0.0552  0.2267
29330W        W46177   3.268  11.005   6.181 -0.5443 -0.1253  0.1155
29331W        W46178   8.365  10.015  14.747 -0.3334  0.2232 -0.1464
29332W        W46179  15.789   9.205   2.802  0.0592 -0.1366 -0.2920
29333W        W46180   8.047  10.632  14.381  0.3282  0.0533 -0.1147
29334W        W46181   3.187  14.561   1.369 -0.1039  0.0802 -0.2346
29335W        W46182  15.179   4.960   1.964  0.0923 -0.0897 -0.0429
29336W        W46183   0.885   5.513  14.884 -0.1868 -0.1464  0.2552
29337W        W46184  11.297   3.867  13.442 -0.3439 -0.0912 -0.1067
29338W        W46185  10.476   4.272  10.654 -0.0410 -0.0726 -0.1236
29339W        W46186  14.000   1.162  15.573 -0.0057 -0.0897  0.1241
29340W        W46187   8.469  11.824   4.920  0.0623  0.2044 -0.0328
29341W        W46188   6.522  11.270   5.324 -0.3884  0.1133 -0.0850
29342W        W46189  16.268  17.567   1.937 -0.0663 -0.1743 -0.1454
29343W        W46190   1.530  10.586  15.343 -0.1134  0.2693  0.2181
29344W        W46191   4.558  16.553  15.936  0.2068 -0.0710  0.2993
29345W        W46192  12.501  17.495   4.065 -0.2259 -0.0068  0.1597
29346W        W46193  12.476  13.105   2.231  0.1540  0.1615  0.1006
29347W        W46194   2.383   7.319  15.515 -0.0876 -0.1654 -0.2765
29348W        W46195   8.880   7.516   4.001 -0.1231 -0.0118  0.0158
29349W        W46196   6.454   6.218  13.938 -0.2016 -0.1373 -0.3509
29350W        W46197   3.678   3.192   4.710  0.2096 -0.3716 -0.3139
29351W        W46198  11.045  10.459   5.409 -0.2720 -0.0997  0.2409
29352W        W46199   3.083   4.116   3.095  0.0020 -0.0488 -0.3701
29353W        W46200  15.905  17.809   1.029 -0.2103  0.0214 -0.0698
29354W        W46201   3.955  13.540  13.667 -0.0231  0.0655  0.1511
29355W        W46202   6.333  14.945   1.855  0.2347  0.3009  0.1246
29356W        W46203   2.435  14.037  12.785  0.0826 -0.0704 -0.3427
29357W        W46204   8.577   9.838   3.931  0.0739 -0.1209 -0.1673
29358W        W46205  13.166   8.023   0.870  0.1105  0.0876  0.1839
29359W        W46206   7.445  15.368   0.499  0.3602  0.0153  0.1557
29360W        W46207  14.784   1.180  14.939 -0.0866  0.1377 -0.2142
29361W        W46208   5.243   1.830   4.462  0.1579  0.1660 -0.0316
29362W        W46209   4.917  13.962   4.445  0.2345  0.2691  0.2504
29363W        W46210  16.405   4.009   0.847  0.2783 -0.2310 -0.2465
29364W        W46211  12.452   7.852   4.994  0.0787  0.1294 -0.1233
29365W        W46212  17.193   4.015  12.284 -0.2220  0.1733  0.1046
29366W        W46213   8.043  13.684  14.008  0.2015  0.0331  0.0047
29367W        W46214   6.962   4.053  12.199 -0.3857 -0.5483 -0.6274
29368W        W46215  12.795   6.734   2.338  0.3720  0.2271 -0.1209
29369W        W46216  16.227  12.548  15.737 -0.0819 -0.1567 -0.2250
29370W        W46217  15.498  16.330   2.141  0.0722 -0.1019 -0.1505
29371W        W46218   0.190   5.119   0.250 -0.0514  0.0556 -0.1910
29372W        W46219  13.450   1.996  10.777  0.0704 -0.2724 -0.1334
29373W        W46220  14.166   1.142   1.271  0.0674 -0.1278  0.1731
29374W        W46221  14.138   2.874   0.298  0.1001 -0.1751 -0.0851
29375W        W46222   7.893   8.929  14.691  0.0383  0.1316  0.0065
29376W        W46223   5.375  13.051  12.066  0.0626 -0.0693 -0.2162
29377W        W46224   0.492  10.178   4.583 -0.0876 -0.0243  0.0278
29378W        W46225  13.290  17.161  13.891 -0.3453 -0.0569 -0.1796
29379W        W46226  11.634  16.441   1.906  0.1906  0.0224 -0.1062
29380W        W46227   8.940   0.723  14.837  0.1793  0.3218  0.3144
29381W        W46228  14.597   8.199   4.554  0.1688  0.1566 -0.0324
29382W        W46229  13.018   9.136   0.430  0.1026  0.1907  0.2641
29383W        W46230   0.008  14.398  15.363 -0.0066  0.3995  0.1516
29384W        W46231  16.523  10.786   0.490 -0.1911 -0.2945 -0.2239
29385W        W46232   3.273   5.926   1.928  0.2352 -0.1388 -0.0642
29386W        W46233  13.503  11.539  12.621  0.3567  0.0596  0.2903
29387W        W46234  15.210  16.254   1.362  0.2502  0.3212  0.1151
29388W        W46235  15.536   2.195   4.652 -0.0288 -0.0468  0.0210
29389W        W46236   4.569   3.954   1.868  0.2714 -0.0318 -0.3166
29390W        W46237  15.423  11.596   1.080  0.1081 -0.0895 -0.0883
29391W        W46238  15.667   9.812   0.944  0.1478  0.0517  0.1431
29392W        W46239   6.701  16.507  11.833 -0.0216 -0.1231 -0.1810
29393W        W46240  14.687   9.376   0.800  0.2071  0.1707 -0.1745
29394W        W46241   1.725   8.853  14.518  0.1755 -0.3671  0.1441
29395W        W46242   9.552   4.963  15.135  0.0330 -0.2341  0.0746
29396W        W46243  16.850   1.646   3.187  0.0629 -0.1148  0.2709
29397W        W46244   7.919  18.217   3.838 -0.1070  0.2666  0.0855
29398W        W46245   4.803   1.217   1.427 -0.0544 -0.0509 -0.1931
29399W        W46246  10.222   0.533  13.448  0.2505  0.0616 -0.3306
29400W        W46247  10.542   8.688  12.603 -0.0756 -0.1015  0.1430
29401W        W46248  13.650   8.174  15.273 -0.0406  0.1206  0.1213
29402W        W46249  16.595  15.327  15.610  0.0423  0.1587  0.1692
29403W        W46250  14.761   7.600   3.935  0.0481 -0.0628 -0.1326
29404W        W46251   4.984  13.644  15.077 -0.0705  0.1022  0.1646
29405W        W46252   6.336   7.049  13.551 -0.1071 -0.1789 -0.1708
29406W        W46253   6.045  12.655   2.390  0.0409  0.1231 -0.0628
29407W        W46254  17.116   8.926   2.288 -0.4115  0.1871  0.0008
29408W        W46255   6.743  10.061  15.933  0.0195 -0.0555  0.0099
29409W        W46256  13.883  16.726   2.641  0.4266 -0.0694 -0.0944
29410W        W46257   7.665  18.201  12.926 -0.0016 -0.2741 -0.1469
29411W        W46258   4.133   0.515   1.928  0.2246  0.1899 -0.2697
29412W        W46259   0.345   2.267   0.150 -0.1606  0.2420  0.1268
29413W        W46260   6.329   8.002  13.618  0.0887 -0.0395 -0.1652
29414W        W46261   5.381  14.843   1.422 -0.1991  0.1086  0.0911
29415W        W46262   5.461   5.527  14.440 -0.2489  0.0854  0.0520
29416W        W46263   0.564  10.481  15.820 -0.0413 -0.2063 -0.0406
29417W        W46264  16.326  10.178   5.204  0.2083  0.1883  0.0484
29418W        W46265  15.758   2.486  10.884  0.1644 -0.2895 -0.0671
29419W        W46266   0.514  11.753  14.998 -0.1591 -0.0003  0.3107
29420W        W46267   7.481  17.533   4.466 -0.0960  0.2213 -0.1086
29421W        W46268   5.630  11.455   2.766 -0.2454 -0.1516 -0.0798
29422W        W46269  11.270   6.423   4.291  0.0063  0.3683 -0.0799
29423W        W46270   1.207  17.417   2.649  0.2744  0.0795 -0.2410
29424W        W46271  14.491  16.555   4.776 -0.0297  0.1668 -0.1624
29425W        W46272   9.968  12.039   3.502  0.0090  0.0666  0.3912
29426W        W46273   8.375   6.818   5.894 -0.0094  0.0099 -0.3138
29427W        W46274   9.804  17.957  13.140 -0.0594 -0.2464  0.0235
29428W        W46275  14.556   2.670  11.018  0.1121 -0.0172 -0.2135
29429W        W46276  15.028  12.991   0.226  0.0011 -0.5598 -0.0394
29430W        W46277   4.669   5.650  15.099 -0.1177 -0.1498  0.0402
29431W        W46278   1.852  15.931  11.840 -0.3188 -0.0806  0.0687
29432W        W46279  11.827  15.555  10.860 -0.1382 -0.1303 -0.0616
29433W        W46280   5.133  12.289   3.889 -0.1118  0.0363  0.0851
29434W        W46281  12.735  16.740  15.697  0.1471 -0.1847  0.1096
29435W        W46282  13.054  13.824   4.643 -0.0458  0.1486 -0.2818
29436W        W46283  14.910  16.909  12.678  0.3082  0.1741  0.0151
29437W        W46284   3.055   6.496  13.857  0.1094 -0.3663  0.1509
29438W        W46285   3.667   5.848  13.584  0.0857 -0.0306 -0.0377
29439W        W46286   0.334   0.187   5.329  0.0657  0.3279  0.2105
29440W        W46287  16.731   8.684   1.976 -0.1455  0.0639 -0.1315
29441W        W46288  10.161   9.465   1.225  0.0248  0.0375 -0.2418
29442W        W46289  17.503  11.239  11.831  0.1024  0.4260 -0.2776
29443W        W46290   8.757   8.510  12.333 -0.2802 -0.1157 -0.0607
29444W        W46291  10.033  12.873  15.373 -0.0373 -0.0336 -0.0128
29445W        W46292   6.613  16.029  15.266  0.3009 -0.0447 -0.0155
29446W        W46293  14.418   5.693  12.517  0.0828  0.0535  0.0880
29447W        W46294   7.214   7.698   4.192  0.2129  0.0288 -0.1837
29448W        W46295   3.853  12.938   5.565 -0.0422 -0.0564  0.1803
29449W        W46296   6.667  12.776  16.092 -0.0811 -0.0324 -0.2150
29450W        W46297   9.373  15.103   3.390  0.1994 -0.1348 -0.1679
29451W        W46298  16.679   6.247  15.238  0.1261 -0.1893 -0.0522
29452W        W46299   4.227  17.796   1.081  0.0690 -0.0826 -0.1155
29453W        W46300   4.959  15.284  14.152 -0.0329 -0.1635 -0.2447
29454W        W46301   9.653   9.073  13.143 -0.3260 -0.2406  0.1940
29455W        W46302  15.183  14.025   2.374  0.0205  0.0893  0.1075
29456W        W46303   1.101  14.043  12.653 -0.3356  0.3179  0.0899
29457W        W46304   5.304   7.522  13.007  0.2983 -0.0601 -0.2149
29458W        W46305   5.209  15.145   3.541 -0.0422 -0.0949  0.1112
29459W        W46306  10.089  11.207  15.024  0.0045  0.0119 -0.4127
29460W        W46307   8.243  13.840   0.524 -0.2392 -0.1339 -0.2117
29461W        W46308   1.468  18.011  16.061  0.2072  0.0758 -0.1143
29462W        W46309   3.530  15.814  15.942 -0.2118  0.0911  0.2310
29463W        W46310   4.707   8.935   6.333 -0.0625 -0.3902 -0.2829
29464W        W46311  12.665   7.335  14.860  0.2277  0.1760  0.0350
29465W        W46312  17.860   5.527  14.874  0.0156 -0.3631 -0.1916
29466W        W46313  11.345   9.299   3.881 -0.4458  0.1590 -0.3875
29467W        W46314  16.116  11.206   4.810 -0.0601  0.1558 -0.1111
29468W        W46315   3.741   7.624  12.276  0.0028  0.0243  0.0158
29469W        W46316  16.740  14.165   0.232 -0.1482 -0.2589  0.0790
29470W        W46317   0.551   6.372  12.924 -0.0139  0.0071 -0.1601
29471W        W46318  15.285  14.841   3.218 -0.0327 -0.2680  0.1160
29472W        W46319   7.920   4.836   3.499 -0.4022  0.3205  0.1479
29473W        W46320  12.992  13.908   0.604  0.0425  0.2442 -0.1929
29474W        W46321   4.647   4.547   3.088 -0.0388  0.1151 -0.0032
29475W        W46322  16.756   5.059  14.474 -0.0102  0.0002  0.0897
29476W        W46323  14.484   1.313  14.561  0.5157  0.0426 -0.0865
29477W        W46324   1.857   0.171  15.262 -0.0289  0.0473 -0.5854
29478W        W46325   3.146   4.471   0.368 -0.0120 -0.1836  0.0772
29479W        W46326   7.544   4.733  12.955 -0.2301 -0.1088 -0.2833
29480W        W46327   9.039   2.410  13.429  0.1397 -0.0659 -0.0017
29481W        W46328   3.938   8.288   4.094  0.1918 -0.1034 -0.0764
29482W        W46329   9.180   6.573   3.888 -0.2108 -0.0336 -0.0744
29483W        W46330   4.169   0.101  13.001  0.1831  0.3865 -0.0339
29484W        W46331  11.391  18.109   0.984 -0.0798  0.0747  0.0507
29485W        W46332  14.693   0.964  16.083 -0.3811  0.0763  0.1067
29486W        W46333   9.540  15.629   1.633  0.1436  0.1703  0.0075
29487W        W46334   8.540  15.524   2.873  0.2356  0.0159 -0.2972
29488W        W46335  11.775   2.163   1.055 -0.2098 -0.0477  0.1572
29489W        W46336   0.183   4.760  15.522  0.1567 -0.3069 -0.4640
29490W        W46337   8.708   5.860  16.030  0.1617  0.0201  0.2173
29491W        W46338  17.549   5.193  15.708  0.1177  0.3024 -0.1603
29492W        W46339  13.501   9.335  14.776  0.0211 -0.1263 -0.1529
29493W        W46340  10.451  12.821   1.198 -0.2119  0.2207  0.1903
29494W        W46341  16.503  10.885  13.820 -0.0709  0.1299 -0.1605
29495W        W46342   8.702   0.731  15.327 -0.1695  0.0107 -0.0121
29496W        W46343   1.687  17.260  11.574 -0.0265  0.1440  0.1418
29497W        W46344   2.316   8.305  15.782  0.0956 -0.2048 -0.0524
29498W        W46345   7.157  11.479  15.766  0.1811  0.1912  0.0623
29499W        W46346   8.621  15.916   2.433 -0.0526  0.2039  0.0597
29500W        W46347   2.117   9.400  12.464  0.2311 -0.2347  0.0591
29501W        W46348   9.735   8.738   0.771  0.1618 -0.0165  0.0424
29502W        W46349  18.276  12.220   4.418 -0.0083  0.2447  0.1381
29503W        W46350   7.776   9.919   3.792 -0.1656  0.3716 -0.0798
29504W        W46351  16.230   5.383   5.151  0.4180 -0.0815 -0.3594
29505W        W46352  12.811   1.387  15.500 -0.2239 -0.3008  0.3647
29506W        W46353   3.324   2.260   3.315 -0.1442 -0.0930  0.2308
29507W        W46354  14.475   8.313   3.567 -0.2884  0.5004 -0.2990
29508W        W46355  13.434   0.338   4.737  0.0214  0.2194  0.4649
29509W        W46356   5.321   1.928   2.340  0.2396  0.0711  0.1042
29510W        W46357   7.787  10.554   2.540 -0.0386 -0.0286  0.0020
29511W        W46358  10.246  10.671   2.099 -0.1734  0.1493  0.2723
29512W        W46359  11.919  11.026  13.054 -0.1138  0.0092  0.0517
29513W        W46360  11.773  10.669   1.650 -0.0363 -0.1177 -0.3344
29514W        W46361  18.089  11.935  12.123 -0.0820  0.1074 -0.1726
29515W        W46362   2.944   4.494   2.218  0.0114  0.0973 -0.1217
29516W        W46363   4.102  13.227   2.725 -0.1347 -0.2414 -0.1439
29517W        W46364  10.448  11.139   0.256 -0.3441 -0.1607  0.0931
29518W        W46365   7.765  16.344   2.400 -0.1166 -0.0156  0.1625
29519W        W46366  13.781  16.948   1.328 -0.1870  0.1743 -0.0578
29520W        W46367  16.047  18.091   1.902  0.0396 -0.0651  0.2361
29521W        W46368  14.266  10.127   2.906  0.1038  0.2019  0.1625
29522W        W46369  17.417   8.886  14.822  0.1157  0.1780  0.0069
29523W        W46370   2.480   6.314   1.531  0.1577 -0.1720 -0.3859
29524W        W46371  11.245   8.096  14.564  0.0311 -0.0140 -0.3367
29525W        W46372   3.528   4.917   0.263  0.0357 -0.1035 -0.1924
29526W        W46373  10.760   0.188   0.791 -0.1532  0.1381  0.0334
29527W        W46374  16.217   0.606  15.935  0.0558 -0.6842 -0.1516
29528W        W46375  17.832   6.641  15.022 -0.1224 -0.0186 -0.0029
29529W        W46376  14.066  13.106   1.264 -0.0661  0.0476  0.0162
29530W        W46377   7.340   9.744   0.246  0.1736  0.1276  0.0174
29531W        W46378   3.722   7.143  12.193  0.0861 -0.1048  0.0204
29532W        W46379   1.878   6.589  15.474 -0.2064  0.2166  0.0129
29533W        W46380   5.012   2.936   0.857 -0.0062 -0.0788 -0.2548
29534W        W46381   1.847  14.658  16.170  0.0179 -0.0845 -0.0226
29535W        W46382  16.261  13.032   3.331 -0.5382 -0.0769  0.2429
29536W        W46383   4.168  14.694   1.233 -0.1384 -0.0573 -0.2385
29537W        W46384   7.451  18.194   3.608  0.0997 -0.0261  0.2882
29538W        W46385   9.561  11.938   0.876 -0.1185  0.3241 -0.4076
29539W        W46386  10.621  14.863  11.203  0.2747  0.0066 -0.0276
29540W        W46387   4.073   3.717  14.108 -0.1423  0.1223 -0.1363
29541W        W46388  15.953   5.839  14.618 -0.0786 -0.0471 -0.4083
29542W        W46389   5.629  13.338  12.367 -0.0747 -0.0703  0.0529
29543W        W46390  10.450   8.925  15.730  0.0326 -0.0915  0.0328
29544W        W46391  17.324  17.760  13.153 -0.1346  0.2556  0.0733
29545W        W46392  11.231  16.983  11.017  0.2525 -0.1023  0.2635
29546W        W46393  10.713  11.001  12.261  0.0088  0.1637  0.0396
29547W        W46394  16.142   8.864  14.467  0.0581  0.0494 -0.0629
29548W        W46395   2.374  11.275  12.604 -0.0440  0.0871 -0.1823
29549W        W46396  12.051  14.316   0.008 -0.2864  0.1827  0.3401
29550W        W46397   6.864  18.182  12.518  0.2026  0.3293 -0.2469
29551W        W46398   3.587  11.077  15.011 -0.2394 -0.0932  0.0153
29552W        W46399   9.158  12.662   3.340 -0.0746 -0.0037 -0.2087
29553W        W46400   1.388  10.491  14.070  0.0011 -0.1800  0.0354
29554W        W46401  17.500  14.413  14.173  0.0287 -0.4505  0.3456
29555W        W46402  14.002  18.234  11.898  0.3099  0.0835 -0.0820
29556W        W46403   8.408   5.906   5.057  0.2826 -0.3412  0.0091
29557W        W46404   2.914   1.126   1.886  0.1082 -0.0782  0.2643
29558W        W46405  11.137   1.684   1.384  0.1421 -0.0726 -0.0526
29559W        W46406   4.844   0.409  14.099 -0.0104  0.0126  0.0303
29560W        W46407  15.851   3.594  12.256  0.0577 -0.2115  0.0546
29561W        W46408  15.330   5.393  12.781  0.3173  0.3402 -0.0597
29562W        W46409  10.366   8.538   4.440  0.1599 -0.1236 -0.4290
29563W        W46410   5.583  17.676   5.148  0.1538 -0.0247  0.2431
29564W        W46411   6.846   1.334   5.600  0.2312  0.0017 -0.0353
29565W        W46412  17.104   5.807  15.163 -0.3793 -0.0032  0.0841
29566W        W46413  16.086   6.354   2.920  0.3629 -0.0545  0.0869
29567W        W46414  15.185  12.497   0.255 -0.1616 -0.3574  0.1850
29568W        W46415  14.149  17.783  16.016  0.0713  0.0807  0.0706
29569W        W46416  12.363  16.096  12.188  0.1442  0.3568  0.1839
29570W        W46417  10.357   2.465  14.852 -0.2786 -0.1980  0.0105
29571W        W46418   1.021  10.221   4.677 -0.1746  0.1283  0.0335
29572W        W46419   1.673   8.986  13.297  0.1209  0.0117  0.1458
29573W        W46420   4.039   8.562   5.707 -0.0671  0.1751 -0.0699
29574W        W46421  14.471   3.462  14.048 -0.1334 -0.0786 -0.1414
29575W        W46422  16.969  10.679  13.940  0.3031 -0.2355  0.0767
29576W        W46423   1.527   5.608  14.609  0.1947  0.0035 -0.0780
29577W        W46424   0.062   3.710  11.569 -0.0911 -0.1083 -0.0643
29578W        W46425   4.861  15.953  11.962  0.1762  0.1905  0.1378
29579W        W46426   5.734   2.699  14.359  0.0900 -0.0887 -0.3366
29580W        W46427  14.208  10.605   2.221 -0.1029 -0.1194 -0.2156
29581W        W46428  14.707  10.510  12.163  0.3528 -0.3328  0.0465
29582W        W46429  15.673   9.078   0.376  0.0724 -0.1249  0.3974
29583W        W46430   4.480   3.711   5.727 -0.0872  0.0990 -0.0055
29584W        W46431  16.653   7.026  12.865 -0.1432 -0.1788  0.0492
29585W        W46432  10.953  17.176   3.013  0.1105  0.0890  0.1298
29586W        W46433   9.428  11.602   4.737 -0.0048  0.0167 -0.0403
29587W        W46434   5.079   8.882   1.493 -0.1000 -0.1354  0.2077
29588W        W46435   3.309   7.040   0.368 -0.0966 -0.1292  0.0066
29589W        W46436   6.032   5.324   5.469 -0.3142  0.4039 -0.3122
29590W        W46437  15.174   4.518  15.375 -0.4277 -0.1000 -0.0900
29591W        W46438  13.181   6.594   3.328  0.1058 -0.2286  0.0900
29592W        W46439  10.180   8.759   2.052 -0.1516 -0.1825 -0.1034
29593W        W46440  14.444  14.518  13.019 -0.0800 -0.4337  0.2438
29594W        W46441   9.445   0.613   4.902  0.1035  0.0899  0.0074
29595W        W46442  16.571   2.750   1.221  0.1973  0.1746  0.2121
29596W        W46443   6.560   3.818  15.540 -0.1389 -0.0975 -0.2751
29597W        W46444   4.359   6.558   6.432 -0.5880  0.1508  0.0467
29598W        W46445   1.605   2.478   2.904 -0.0129  0.1199 -0.2412
29599W        W46446   9.683   6.790  11.890 -0.2791  0.0242  0.1421
29600W        W46447   3.117  14.483   2.906  0.0988 -0.2205 -0.0457
29601W        W46448   7.784   1.784   0.448 -0.2088 -0.1836 -0.2586
29602W        W46449   7.223  14.920   0.345 -0.0040  0.2598 -0.1430
29603W        W46450   7.950  12.650   0.482  0.0615  0.1151 -0.2765
29604W        W46451   4.473  11.387   4.600  0.0667 -0.0560  0.1430
29605W        W46452   5.681  10.776   2.582 -0.0549  0.1364 -0.1102
29606W        W46453  13.544  14.073   0.134  0.0356 -0.0069 -0.0593
29607W        W46454  17.981   9.393  13.078  0.0546  0.0038 -0.3072
29608W        W46455   1.967   3.753   5.070 -0.3329  0.1095 -0.1766
29609W        W46456  18.165  11.975   0.044 -0.1419  0.1887  0.0176
29610W        W46457  17.448  13.011  13.981 -0.1514 -0.1139 -0.1322
29611W        W46458   4.848  17.195   3.317  0.1786 -0.1429 -0.0839
29612W        W46459  16.648  16.985   5.469 -0.0570 -0.0234 -0.0164
29613W        W46460   2.684  17.887  14.153 -0.0922  0.0156 -0.1894
29614W        W46461   4.875  12.749  14.200 -0.1329  0.2386  0.0124
29615W        W46462  12.205   6.849  11.407 -0.1672  0.2019 -0.0201
29616W        W46463   1.730  11.656   3.021  0.0283  0.1286  0.0242
29617W        W46464  10.617  16.618   0.040 -0.3166  0.5557 -0.3398
29618W        W46465   4.257  11.529   3.414  0.2803 -0.2268 -0.3474
29619W        W46466   7.482  15.644   3.166  0.1800 -0.1118 -0.0541
29620W        W46467   8.052  12.134  15.019  0.2603 -0.2378  0.2480
29621W        W46468  12.657   2.941   3.930  0.3846 -0.2796 -0.2773
29622W        W46469   2.912  16.071  12.506  0.3770  0.2061 -0.0749
29623W        W46470  10.317   7.333   3.698 -0.0915  0.1418 -0.0070
29624W        W46471   4.041   8.005   2.351 -0.0876 -0.1705 -0.1037
29625W        W46472   6.294  11.189   2.094 -0.0515 -0.0744  0.0979
29626W        W46473  15.749   3.497   3.277  0.0143  0.1445 -0.1025
29627W        W46474   0.778  15.343   6.055 -0.1175 -0.1433 -0.1691
29628W        W46475  17.611  15.367   0.849 -0.0130 -0.1332  0.2482
29629W        W46476  15.377   4.399   0.765 -0.0434 -0.0760  0.0613
29630W        W46477  11.459   9.954   1.773 -0.1390  0.1325 -0.2365
29631W        W46478   9.793  15.262   4.691 -0.1658  0.2060 -0.3073
29632W        W46479  13.517   7.885   3.604 -0.2805 -0.0424  0.0532
29633W        W46480  10.096   1.912   0.804 -0.0376 -0.3120  0.2774
29634W        W46481   0.855   9.689   1.839  0.2509  0.1454  0.2864
29635W        W46482   0.775   3.392   1.790 -0.2228  0.1711 -0.1662
29636W        W46483   0.074  14.331  12.246 -0.2222 -0.1394 -0.1653
29637W        W46484  12.793   6.871  15.828 -0.1206 -0.2121  0.4263
29638W        W46485  14.594  13.791  15.314  0.0956  0.0579 -0.1318
29639W        W46486  11.723  14.826   4.532  0.0147  0.2296  0.1956
29640W        W46487  18.261   1.650  15.023 -0.1015 -0.1585  0.1208
29641W        W46488   7.046  12.911   1.945  0.0158 -0.0401  0.2591
29642W        W46489  14.751   0.681   2.906  0.0607  0.1038  0.0389
29643W        W46490  14.322   8.098  12.631  0.0437 -0.1317  0.4346
29644W        W46491   3.529   0.079  13.896  0.1220 -0.0714  0.2535
29645W        W46492  13.035   9.347   2.900  0.1459  0.1872  0.1723
29646W        W46493   9.270  12.335   3.014 -0.1358  0.1140  0.1674
29647W        W46494  12.052   4.654   3.273  0.5307  0.2515  0.1885
29648W        W46495  11.301   8.107   0.934 -0.0015 -0.1652 -0.0296
29649W        W46496   5.322  17.674   2.118 -0.0103  0.1857 -0.3681
29650W        W46497  17.532   9.721   4.400  0.1295  0.0107  0.1230
29651W        W46498  17.504   6.898   3.298 -0.0103  0.0280 -0.0920
29652W        W46499   2.663   5.275   2.198 -0.0467  0.3246 -0.1129
29653W        W46500   4.977  14.838   1.141  0.0799  0.1920  0.2651
29654W        W46501   4.870  14.058  14.853 -0.2065 -0.1292  0.1042
29655W        W46502  15.869   2.055  14.828 -0.3073  0.0205 -0.3584
29656W        W46503  16.207  10.790   4.364 -0.0588  0.0530  0.1162
29657W        W46504  18.046   8.148  11.437  0.0871  0.1736 -0.1141
29658W        W46505  14.776  10.205   1.512 -0.0884 -0.3418  0.1346
29659W        W46506   5.834   5.755   5.511 -0.1396  0.4173 -0.1596
29660W        W46507  18.200  12.741  14.252  0.0339  0.3328 -0.2562
29661W        W46508   8.811  14.699  13.442 -0.2824  0.0895 -0.0802
29662W        W46509  10.501  10.088   1.840  0.1973 -0.1192 -0.3134
29663W        W46510  16.011  13.537   1.961 -0.4359  0.0416  0.4187
29664W        W46511  17.774  15.633  16.155  0.0317  0.1336 -0.2610
29665W        W46512   1.689  11.556  13.844 -0.3767  0.1319  0.1078
29666W        W46513   6.025   0.384  12.374 -0.0559 -0.0941 -0.1382
29667W        W46514   5.352  12.169   3.402  0.3195 -0.1674 -0.0063
29668W        W46515   3.604   3.246   3.473 -0.2793  0.1170 -0.0134
29669W        W46516  10.363  14.252   1.275  0.0141  0.1689 -0.1236
29670W        W46517   5.054  13.746   2.798 -0.4767 -0.0516  0.1321
29671W        W46518  17.135   0.326   1.483 -0.0913  0.0886 -0.1107
29672W        W46519  12.269   7.364  11.271 -0.0469 -0.1117 -0.1949
29673W        W46520   7.532   0.828   5.419  0.2200  0.1311 -0.0488
29674W        W46521  10.179   7.874   4.491  0.1914  0.0705 -0.3238
29675W        W46522  14.566   2.630   1.216 -0.1847  0.1587 -0.1273
29676W        W46523   5.696  13.446  11.885 -0.4352 -0.0865  0.2046
29677W        W46524   2.702   3.954   1.542  0.0241 -0.1323  0.1120
29678W        W46525   8.073  17.471  10.475  0.4124  0.1772 -0.1891
29679W        W46526  11.522  14.061  15.550  0.2000 -0.0139  0.0156
29680W        W46527   9.799  12.904  13.046 -0.1734 -0.0934 -0.0095
29681W        W46528   7.766  17.633  11.362 -0.0608 -0.2084 -0.2134
29682W        W46529   4.836  13.097   2.288  0.0877  0.1118 -0.0530
29683W        W46530   1.662  15.444  15.623 -0.1620 -0.1923  0.1748
29684W        W46531  11.234  13.741   4.163  0.2022  0.0519 -0.1320
29685W        W46532  10.543   6.444  12.226 -0.0490 -0.1276 -0.2671
29686W        W46533  11.357   4.216  13.776 -0.2418 -0.2024 -0.1493
29687W        W46534   0.010  12.769   3.078 -0.4073 -0.2156  0.1513
29688W        W46535   9.613  17.324   3.902 -0.1326  0.1660  0.1821
29689W        W46536   5.300   2.547   5.795  0.1028  0.1991 -0.2454
29690W        W46537   7.380  15.161   3.039  0.2571  0.1670  0.0870
29691W        W46538   7.754  17.355   2.697  0.5019  0.1821  0.3388
29692W        W46539   1.875   6.756   0.434 -0.0325 -0.0144  0.1253
29693W        W46540   5.615  16.987  12.992 -0.0409  0.0905 -0.1384
29694W        W46541  17.452  18.058  15.663  0.0735 -0.1319  0.0171
29695W        W46542  12.051  17.273   1.879 -0.1955  0.0279 -0.0466
29696W        W46543  14.769  12.373  14.317 -0.1519  0.1430 -0.0913
29697W        W46544   6.603   4.105   5.985  0.0658 -0.4771 -0.0912
29698W        W46545  16.779  16.850   4.088  0.2654 -0.1550  0.1168
29699W        W46546   4.890   2.697   2.251  0.3920 -0.0459  0.1726
29700W        W46547   2.727   1.356  12.274  0.2553 -0.3460  0.1516
29701W        W46548   5.868  15.533  14.628  0.1880 -0.1146  0.1014
29702W        W46549  11.920   7.170  13.496  0.1360 -0.0323  0.0561
29703W        W46550   0.025   3.056   0.610 -0.1734 -0.1185  0.0479
29704W        W46551  13.617  11.404   0.940  0.1554 -0.0268 -0.2236
29705W        W46552   4.290   4.225   4.042 -0.1305 -0.1913  0.1571
29706W        W46553  12.432   0.477  13.175  0.0632  0.0107 -0.0699
29707W        W46554  10.502  14.875   3.233 -0.4456  0.0236 -0.0600
29708W        W46555   4.611  15.391  14.940  0.0859  0.2608  0.0711
29709W        W46556  14.392   2.529  12.091 -0.0523  0.0575 -0.1928
29710W        W46557  17.506  14.613   1.371  0.2361 -0.1306  0.1490
29711W        W46558  16.502   4.600  11.319  0.0574  0.0772 -0.0583
29712W        W46559   5.186  17.452   4.435  0.2278 -0.2810 -0.0568
29713W        W46560   2.101   3.128   3.126 -0.0812  0.0136 -0.1396
29714W        W46561   2.983   7.839   4.933  0.0037 -0.3849  0.4277
29715W        W46562   5.287   8.108   5.198  0.0948  0.0746  0.0105
29716W        W46563  15.642  10.854   2.270 -0.2225  0.2325  0.0296
29717W        W46564  14.428   0.850  14.781 -0.0947 -0.0751 -0.0172
29718W        W46565  16.470   2.258  12.008  0.1653 -0.2062  0.2520
29719W        W46566  12.778  16.212  15.136  0.1153 -0.0486  0.0122
29720W        W46567  12.369  15.166  16.047  0.1829  0.3551 -0.2534
29721W        W46568  11.901  16.826  14.187 -0.0438 -0.0999 -0.1213
29722W        W46569  15.903   9.788  15.946 -0.1343 -0.1113  0.0809
29723W        W46570  17.304   6.174   3.059  0.0158  0.2101 -0.1145
29724W        W46571   5.592  10.138  16.059 -0.0795 -0.0613 -0.0331
29725W        W46572   0.409  12.609   2.694  0.3581 -0.0672 -0.0326
29726W        W46573   9.694  10.018   1.712  0.3264  0.2223  0.2066
29727W        W46574   2.334   0.410  13.768 -0.0968 -0.0499  0.1734
29728W        W46575   2.437   5.869   2.306 -0.1219  0.3172 -0.1498
29729W        W46576  16.262  13.341   2.344  0.1357 -0.0899 -0.0060
29730W        W46577   0.232   5.322   2.550  0.0711 -0.1666  0.0546
29731W        W46578  17.459  12.762  12.611  0.1103 -0.2786 -0.0635
29732W        W46579   9.973  16.827   4.032 -0.1177  0.0668  0.0832
29733W        W46580  17.814  18.091   0.533  0.2356 -0.0243 -0.0152
29734W        W46581  18.331   0.733   3.737 -0.3231 -0.4018 -0.1210
29735W        W46582  10.914   3.918   3.168 -0.1099 -0.2419  0.0679
29736W        W46583   4.485   5.425  14.266  0.3234  0.1160 -0.1279
29737W        W46584   8.347   9.738   2.489  0.2205  0.0930  0.0261
29738W        W46585  10.532  14.532   0.932 -0.0798 -0.2498  0.1110
29739W        W46586   6.267   3.995   1.544  0.1184  0.5841  0.0426
29740W        W46587  17.561  11.447  16.065 -0.1666 -0.0017 -0.0837
29741W        W46588  17.866   3.550  12.606 -0.0086  0.3329  0.2845
29742W        W46589  11.744   9.743  12.784  0.1025  0.3224  0.1085
29743W        W46590  10.325   2.008  12.397  0.1149  0.0046  0.0117
29744W        W46591   6.714  16.919   4.963 -0.0895 -0.1310 -0.0099
29745W        W46592   9.944   6.871  15.731 -0.0876  0.1221  0.0988
29746W        W46593   6.701  10.885   0.078 -0.2821  0.2361  0.1143
29747W        W46594  15.970  13.004   5.031 -0.1732  0.3626 -0.0292
29748W        W46595   9.414   6.448   0.258 -0.2197  0.0683  0.0090
29749W        W46596  17.422  11.029   0.821 -0.0449 -0.0060 -0.0436
29750W        W46597  11.515   6.446   9.837 -0.3232  0.0970  0.1530
29751W        W46598  15.661  14.606   2.457  0.0467 -0.3545 -0.0807
29752W        W46599   4.151  18.001   2.727 -0.0341 -0.0762 -0.0180
29753W        W46600  15.311   6.095   4.083 -0.4139 -0.0946  0.1632
29754W        W46601  11.926  15.793   5.481  0.0035 -0.3522  0.3783
29755W        W46602  11.800  12.429   4.607  0.0151  0.1003 -0.1747
29756W        W46603   8.399  16.028   4.304 -0.0041  0.1110 -0.1856
29757W        W46604   0.014  14.492   0.556  0.0581  0.0440 -0.0110
29758W        W46605   2.545   9.893   5.246 -0.2698 -0.1499 -0.1965
29759W        W46606  11.091   7.702  13.918  0.0051 -0.1885  0.0659
29760W        W46607   0.617  14.331  12.254  0.0250  0.1121  0.0893
29761W        W46608   6.534   9.047   1.600 -0.0392  0.1557 -0.1151
29762W        W46609   2.856  13.420   0.126 -0.0220  0.1621 -0.0933
29763W        W46610   9.758  13.239  11.914 -0.1780 -0.2506 -0.1347
29764W        W46611   7.941  17.304  13.149  0.0846  0.1569  0.2411
29765W        W46612  16.366  12.085   5.134 -0.0755  0.0792 -0.0298
29766W        W46613  17.913  12.643   4.252 -0.0436  0.0515  0.2207
29767W        W46614  12.627  11.259  12.602  0.1555 -0.2705 -0.2326
29768W        W46615  11.454   2.921  10.736  0.1004 -0.2523 -0.4848
29769W        W46616   4.233   0.912  15.384  0.1266 -0.4886  0.1631
29770W        W46617  16.826   3.987  11.563  0.0417 -0.0772 -0.3454
29771W        W46618  12.388  11.594   4.614 -0.0209  0.1115 -0.0207
29772W        W46619   2.485   9.330   4.328  0.2178  0.0247 -0.0391
29773W        W46620   2.790   6.963  13.426 -0.0818 -0.0690 -0.1104
29774W        W46621   2.632  13.779  13.605 -0.0050  0.0378  0.3025
29775W        W46622  18.255   9.775  12.983 -0.2167 -0.1735  0.0538
29776W        W46623   6.492  18.220  11.838  0.4934  0.0058  0.0630
29777W        W46624  13.397   8.915   0.853  0.0726 -0.0481 -0.2843
29778W        W46625   3.144   1.530   4.177  0.3020 -0.1740  0.0883
29779W        W46626   7.795  15.354  12.971 -0.0439  0.0135  0.0518
29780W        W46627   7.907  11.998  16.024  0.0929  0.0814 -0.0112
29781W        W46628   5.409  14.177   4.678 -0.0292  0.0074  0.0599
29782W        W46629  12.891   3.778   2.144 -0.2577  0.4429 -0.1168
29783W        W46630   0.151  11.655  12.018 -0.1704  0.1415 -0.2800
29784W        W46631  15.338   9.205   3.939 -0.1633  0.0280  0.1075
29785W        W46632  15.903   4.044   4.838  0.0903 -0.2369  0.2690
29786W        W46633   6.151  18.005  13.094 -0.2441 -0.2425 -0.1356
29787W        W46634   0.724   0.256   0.948  0.0227 -0.0114  0.1201
29788W        W46635  12.887   2.046   5.014  0.2507  0.0642 -0.0426
29789W        W46636  17.758  10.947  14.882  0.1625 -0.4666 -0.2830
29790W        W46637   5.190  15.265  11.540  0.2309  0.1409  0.2400
29791W        W46638   9.208  14.210   1.958 -0.4343  0.1292 -0.1193
29792W        W46639  17.478  10.202   2.951  0.0846 -0.3169  0.2169
29793W        W46640  14.687  15.476   5.321  0.1479 -0.1067 -0.0591
29794W        W46641   4.482  13.909  15.685  0.0587  0.0395  0.1246
29795W        W46642   2.757   8.190  12.714  0.3608  0.2755  0.1159
29796W        W46643   1.345   3.641   3.918  0.0972 -0.2045  0.0260
29797W        W46644   9.876  14.142   1.296 -0.0160  0.1158  0.0798
29798W        W46645   6.354  14.382   5.267 -0.2530 -0.0205  0.2101
29799W        W46646   4.350   8.641  10.655  0.1024  0.2378 -0.2043
29800W        W46647   4.089   3.125   2.024  0.0564 -0.1489  0.0728
29801W        W46648  14.896  16.323  11.720 -0.0193  0.1731  0.1029
29802W        W46649  12.651   3.905  10.501 -0.0297 -0.0437 -0.1979
29803W        W46650   3.761  18.185   2.971  0.2986  0.1397  0.2903
29804W        W46651   8.454   9.461   4.809  0.0568 -0.0383  0.1883
29805W        W46652   7.177  16.923   4.235 -0.2613 -0.0033 -0.2130
29806W        W46653  14.458  13.992  13.010  0.1302  0.1094  0.0358
29807W        W46654   0.284   1.132   2.823 -0.2670 -0.2535 -0.2554
29808W        W46655  15.757   4.922  14.508 -0.2395  0.1211 -0.1284
29809W        W46656   6.097   4.724   4.647  0.2593  0.0088  0.0100
29810W        W46657   5.689  11.752  13.154 -0.4428 -0.0847  0.3353
29811W        W46658  12.493   9.308   3.106 -0.0298  0.1730  0.0870
29812W        W46659   5.198   0.506  13.096  0.1433  0.1479  0.2527
29813W        W46660   7.795  14.588   3.411 -0.1156  0.0986 -0.1520
29814W        W46661  17.617   0.998   1.004 -0.1858  0.0976 -0.1254
29815W        W46662  13.740   2.487  13.303 -0.2677  0.1826 -0.1529
29816W        W46663  10.540   3.967  13.581 -0.0792 -0.1800  0.2739
29817W        W46664   4.667   0.761   0.637 -0.0176  0.0318 -0.0842
29818W        W46665   4.019  15.948  15.741 -0.1756 -0.0595  0.2340
29819W        W46666   5.561  12.521   1.931 -0.1239  0.6985 -0.0716
29820W        W46667  11.643  12.657  12.035  0.0670  0.1649  0.1744
29821W        W46668   0.880   3.535   2.309 -0.2750 -0.1025  0.0323
29822W        W46669  13.382   2.759   3.100  0.0729  0.0679 -0.0811
29823W        W46670  14.683  12.122   2.669  0.0468 -0.1027 -0.0684
29824W        W46671   5.903   6.803  13.622 -0.0764 -0.0154 -0.1418
29825W        W46672   3.997   1.434   1.780  0.0146 -0.0545 -0.0380
29826W        W46673  11.012   9.024   3.083 -0.1150  0.1069 -0.1583
29827W        W46674   3.292  12.076   5.764 -0.3303  0.2694  0.0656
29828W        W46675   4.795  16.464   3.790  0.2709 -0.3575 -0.1122
29829W        W46676   8.898  15.647  11.445  0.1392 -0.0637  0.3155
29830W        W46677  14.156   2.128   4.432  0.0414 -0.0789 -0.3306
29831W        W46678  16.340  18.220   5.300 -0.0424  0.1883  0.0658
29832W        W46679   4.679  16.142  12.793 -0.1877  0.1874  0.0242
29833W        W46680   4.465  16.525   4.187  0.0422 -0.0938 -0.1129
29834W        W46681  14.134   8.205   0.991  0.0320 -0.3257  0.0924
29835W        W46682   2.195  12.666   0.629 -0.0484  0.1658 -0.1370
29836W        W46683   6.832   2.606  14.221  0.2312 -0.1015  0.0092
29837W        W46684  13.277   1.199   2.001 -0.2423 -0.0335 -0.0124
29838W        W46685  17.984  10.623   3.796  0.1154  0.2593 -0.2043
29839W        W46686   9.369   2.192   1.608 -0.1043 -0.0760 -0.0766
29840W        W46687   1.241   9.996   0.574 -0.0654  0.0048  0.2270
29841W        W46688  12.541  12.954  15.712 -0.0925  0.0256 -0.2849
29842W        W46689  14.006   3.741  13.817  0.0961 -0.0725  0.2429
29843W        W46690   9.448   4.667  14.276 -0.2441  0.1387  0.0797
29844W        W46691   3.363  10.383   1.629  0.2519 -0.0327 -0.0125
29845W        W46692  17.092   3.654  13.319 -0.4286  0.0436 -0.1854
29846W        W46693  12.175  15.851   3.019 -0.0479  0.3938  0.0977
29847W        W46694  15.964  14.620  11.210  0.0067 -0.0774 -0.0474
29848W        W46695  16.447   1.853   5.395 -0.3197  0.0056  0.2917
29849W        W46696  16.983  17.195  15.665 -0.1810  0.0829  0.2601
29850W        W46697  16.199   7.695   4.969  0.1188 -0.0877  0.1166
29851W        W46698   4.470   0.155  12.631  0.2126 -0.0029  0.1242
29852W        W46699   6.899   3.474   2.401 -0.0948  0.4348  0.0913
29853W        W46700   0.496   9.380  10.232 -0.2677  0.1080  0.0501
29854W        W46701   3.385   0.698   2.688 -0.2341 -0.1172 -0.0280
29855W        W46702   5.665  13.756   3.601  0.1838 -0.1682  0.1001
29856W        W46703   2.069   0.960  14.557 -0.0760  0.0719 -0.0360
29857W        W46704   9.730   8.426  13.848  0.2470  0.0162  0.2866
29858W        W46705  15.243  14.160  11.532 -0.1295  0.0391  0.1485
29859W        W46706  10.281   6.830  13.438 -0.1752 -0.0502 -0.0086
29860W        W46707   9.168   3.233  11.959  0.3093 -0.1471  0.1811
29861W        W46708   8.316   2.830  15.143 -0.1739 -0.0993  0.1589
29862W        W46709  12.216   4.211  11.469 -0.0089 -0.1775 -0.0966
29863W        W46710   5.144  17.465   5.321 -0.1257  0.2633 -0.0241
29864W        W46711  10.766   5.190   1.001  0.1910 -0.2051 -0.1527
29865W        W46712  14.157   9.991  14.933 -0.5139 -0.3125  0.0009
29866W        W46713   4.555  18.162   1.303  0.0820 -0.2487 -0.0352
29867W        W46714  13.830  17.643   3.976  0.1975  0.0516 -0.0219
29868W        W46715   3.379   2.302  11.654  0.1287  0.2255 -0.4299
29869W        W46716   9.551   1.309   2.386  0.0781  0.3302 -0.1521
29870W        W46717  11.455   4.395   4.782 -0.0388  0.3785 -0.2949
29871W        W46718   0.033   4.558   1.073 -0.1630  0.2498 -0.0157
29872W        W46719   3.362   2.446  12.943  0.0629  0.0393 -0.1942
29873W        W46720  15.299  16.402   0.290 -0.2875 -0.1329  0.2207
29874W        W46721   3.096   5.541   4.718 -0.1378  0.2437  0.1682
29875W        W46722   6.544   3.808   1.911 -0.1734 -0.1763 -0.1147
29876W        W46723   6.417  14.018   3.085 -0.1717  0.0489 -0.4024
29877W        W46724  11.983  11.124  14.081 -0.0651  0.1870 -0.4040
29878W        W46725   6.413   3.146  13.996  0.0908  0.4678 -0.3058
29879W        W46726  14.545  10.578  11.336  0.1231 -0.2336 -0.1379
29880W        W46727  11.442   5.669   1.834 -0.2229  0.0053 -0.2033
29881W        W46728  14.948   0.521   2.429 -0.0375  0.0731  0.1248
29882W        W46729  13.636  11.618   2.178  0.0595 -0.0380 -0.0427
29883W        W46730   3.107   8.544   5.408  0.1682  0.0247 -0.0320
29884W        W46731   8.602   4.712  11.446 -0.0454 -0.1738  0.1436
29885W        W46732  15.939  12.008   4.815 -0.1531 -0.0200 -0.2313
29886W        W46733  12.168  16.478   0.762 -0.3722  0.1395  0.0161
29887W        W46734   6.881   4.736  11.410 -0.2334 -0.1207 -0.1389
29888W        W46735  14.625  14.283  14.972  0.1083  0.3166  0.0993
29889W        W46736   5.115  15.171  13.070 -0.0137  0.1107 -0.0587
29890W        W46737  11.765  15.544  12.941 -0.1343 -0.0197 -0.0449
29891W        W46738   0.529   1.626  13.044 -0.0105  0.0048  0.0256
29892W        W46739  15.957  14.608   0.676  0.1989  0.2509 -0.0209
29893W        W46740  12.039   9.384   4.433  0.0620  0.0739 -0.0702
29894W        W46741   4.163  12.431   0.023  0.2979  0.1472  0.2247
29895W        W46742   9.293   6.262   4.786  0.0198  0.1129 -0.0949
29896W        W46743   1.952  16.092  13.875 -0.0070  0.0031  0.0736
29897W        W46744  11.370   4.952  15.844  0.0762  0.1637  0.1276
29898W        W46745   9.793   0.826  13.710  0.2323 -0.1382  0.2015
29899W        W46746   2.135  14.296   5.658  0.0490  0.0269  0.1386
29900W        W46747   4.192  15.091  16.167  0.1344  0.0243 -0.0757
29901W        W46748   2.062  11.923  15.012 -0.0399 -0.0951  0.0025
29902W        W46749   8.304  15.485  15.678 -0.0597 -0.1428  0.0948
29903W        W46750   9.037   2.942   0.116 -0.0176 -0.0933 -0.1304
29904W        W46751   5.838  11.626  12.626 -0.2865 -0.1038 -0.1958
29905W        W46752   9.243   5.300  16.098  0.1869 -0.2241  0.1923
29906W        W46753   4.994   2.181  13.670 -0.0356 -0.0175 -0.4760
29907W        W46754   1.540   4.203   0.853  0.2326 -0.1922  0.2059
29908W        W46755   8.283  17.199  16.080 -0.0880  0.0618 -0.1294
29909W        W46756   5.759   7.216  14.909  0.0122 -0.2380 -0.1630
29910W        W46757  15.126  10.386  11.244 -0.0622 -0.1152 -0.0290
29911W        W46758   9.713  14.740  14.185  0.0054  0.0846 -0.0789
29912W        W46759  10.554  16.695  12.644  0.1341  0.0491  0.1860
29913W        W46760  16.120   0.938  11.202  0.1084  0.0241  0.0640
29914W        W46761  13.619  13.407   0.498  0.0961  0.1771 -0.0261
29915W        W46762   5.631  18.247   4.037 -0.0066 -0.0583 -0.2748
29916W        W46763   3.621   6.674  13.183 -0.4231 -0.0484  0.0267
29917W        W46764   9.538  13.951   0.923  0.0930 -0.0243  0.1782
29918W        W46765  14.198  17.567  14.811 -0.0999  0.0363 -0.3576
29919W        W46766  13.486   2.508   1.805  0.0051  0.3566  0.1796
29920W        W46767   2.022  10.764  16.079  0.2409 -0.0853  0.3041
29921W        W46768  12.936   1.091   3.874 -0.3209  0.1829 -0.1097
29922W        W46769   0.691  15.317   3.997 -0.2312 -0.0549 -0.1141
29923W        W46770  12.237  10.915  11.456  0.0592 -0.1723  0.1242
29924W        W46771   2.051   7.274  14.368 -0.1028 -0.1815  0.0899
29925W        W46772   1.742   5.576   1.125 -0.1421 -0.1831 -0.0364
29926W        W46773  17.590   3.767  12.111 -0.1991  0.0258  0.1858
29927W        W46774  17.265  14.824   2.763  0.0674  0.2387 -0.0439
29928W        W46775  15.752  16.014   0.129  0.2042  0.2265 -0.0534
29929W        W46776   3.157   9.325   2.649  0.0164  0.1974  0.1424
29930W        W46777  11.103  13.818  13.579 -0.1070 -0.1713  0.0218
29931W        W46778  10.752  16.671   0.949 -0.1073  0.0366  0.0106
29932W        W46779  16.422   0.633   2.672 -0.1990 -0.1958 -0.0665
29933W        W46780   7.969   9.679  11.695  0.0659  0.3468 -0.4661
29934W        W46781  15.845  13.764  12.288  0.0948 -0.1280 -0.1089
29935W        W46782   4.595   4.739   4.704 -0.0002 -0.0735 -0.2321
29936W        W46783   6.821  15.405   5.283 -0.2723  0.1026  0.1432
29937W        W46784  10.621   6.914   0.481 -0.0437 -0.1330  0.0415
29938W        W46785  13.918   3.062  10.132 -0.0156 -0.0977 -0.2066
29939W        W46786   9.283  10.675   0.177 -0.2513 -0.2402  0.0546
29940W        W46787  12.912   5.832  14.991 -0.2016  0.0173  0.1408
29941W        W46788  14.033  17.827  11.661 -0.0813 -0.1678 -0.1471
29942W        W46789   3.184   5.013   1.476  0.0223 -0.1494 -0.0180
29943W        W46790   1.500  16.460  15.073 -0.0493  0.1095  0.1316
29944W        W46791  10.278  16.657   3.633 -0.3625 -0.1804  0.0219
29945W        W46792   2.915   4.388  14.396 -0.1548  0.0731 -0.0021
29946W        W46793  17.970  14.511   2.644  0.1161 -0.2135 -0.0788
29947W        W46794  14.578   2.043   1.040 -0.0644 -0.6146  0.1728
29948W        W46795   2.944  10.508  14.869 -0.1309 -0.1770  0.0728
29949W        W46796  13.862  17.890  13.424 -0.0197  0.1528 -0.0405
29950W        W46797  18.088   9.639  15.690 -0.2201 -0.1977  0.1383
29951W        W46798  12.273  12.865   4.652 -0.0411  0.0929 -0.1219
29952W        W46799   1.623   1.110  14.270 -0.1722  0.1122  0.0892
29953W        W46800  12.534  12.035  14.981 -0.0105  0.0066  0.0346
29954W        W46801   9.098  17.217   6.093  0.0033 -0.0418  0.3092
29955W        W46802   6.701   6.747   4.358  0.2912 -0.0917 -0.4850
29956W        W46803   1.415  10.388  12.370 -0.2823  0.3818  0.1973
29957W        W46804  17.470   5.062   0.100  0.1979 -0.1309 -0.0060
29958W        W46805  11.206   4.212   2.192 -0.1177  0.0968  0.3208
29959W        W46806   0.193  18.275   4.784 -0.1000 -0.0321 -0.2786
29960W        W46807   9.977  14.324  14.098 -0.3549 -0.4749  0.1557
29961W        W46808   6.438   8.846   2.091 -0.1114 -0.0966  0.0029
29962W        W46809   5.004   6.534  13.520 -0.1959 -0.0340 -0.2074
29963W        W46810  10.558  10.732   0.616  0.1291  0.2386 -0.3936
29964W        W46811   2.566   3.500   5.319  0.5749 -0.0882  0.1641
29965W        W46812   5.877   8.348  14.281 -0.1476 -0.0039 -0.0283
29966W        W46813   8.759   9.887  12.069 -0.0036 -0.0196  0.1692
29967W        W46814  15.890  17.041  12.209  0.2557 -0.2839  0.3027
29968W        W46815   4.871  16.031  13.654 -0.1757 -0.0259 -0.0016
29969W        W46816  13.048  10.734   2.968 -0.2760 -0.1905 -0.1084
29970W        W46817   6.488   7.772  14.432 -0.2064 -0.0150  0.1132
29971W        W46818   8.876  16.275   4.310 -0.2984 -0.1329 -0.1262
29972W        W46819   0.694   0.688   5.244 -0.0606 -0.2171  0.0151
29973W        W46820   6.286   7.894   1.191 -0.0685 -0.1342  0.0163
29974W        W46821   1.530   0.891  12.251 -0.1777  0.0773  0.1526
29975W        W46822   4.535  14.742   0.902 -0.2521  0.0218  0.0790
29976W        W46823   1.289  13.886  13.186  0.0426 -0.4298 -0.0607
29977W        W46824  18.114  13.652  11.669 -0.2584 -0.0755 -0.0069
29978W        W46825  16.533  16.074   2.817  0.0023 -0.1535  0.1794
29979W        W46826  13.992   8.412  15.574 -0.0368 -0.0239  0.0134
29980W        W46827  11.359   2.226   1.943  0.1757 -0.0793  0.0227
29981W        W46828   0.401   0.104   4.036 -0.0736 -0.2690  0.1868
29982W        W46829  12.993   0.330   5.048  0.2948 -0.2684  0.1089
29983W        W46830  16.988  12.356   2.536 -0.2257 -0.1981  0.0121
29984W        W46831   2.754  14.735   2.614  0.3888 -0.1187  0.4208
29985W        W46832  11.657  16.420   0.526  0.0991  0.2074  0.1857
29986W        W46833   8.178   3.647  14.119 -0.2321 -0.1704  0.1502
29987W        W46834  12.772  12.383   1.432  0.2056 -0.1905 -0.0968
29988W        W46835   1.214  16.217   3.955  0.2440 -0.1061 -0.0252
29989W        W46836   4.870  15.583  13.385  0.0958 -0.0647 -0.0098
29990W        W46837  11.818   0.966   0.252 -0.0962 -0.0300 -0.0596
29991W        W46838   4.833  10.324   0.718  0.0752  0.0055 -0.0583
29992W        W46839   1.930   2.574   4.236  0.0966 -0.0316  0.0237
29993W        W46840   4.886   1.228   4.782  0.1905  0.1610  0.3555
29994W        W46841   3.052   5.782   1.470 -0.1136 -0.2335  0.2259
29995W        W46842  17.418   0.924  10.166  0.0175  0.0956 -0.2114
29996W        W46843   9.249   1.119   1.132 -0.2202 -0.1198  0.0643
29997W        W46844  12.875   1.148   2.373  0.0836  0.0778 -0.0572
29998W        W46845  10.473   6.320   4.440  0.0810 -0.1472 -0.0345
29999W        W46846   2.410   2.077   1.452  0.2947  0.1739 -0.0173
30000W        W46847   8.837  15.679  12.236 -0.2563  0.1560 -0.1429
30001W        W46848   1.713   8.448  13.341 -0.2052  0.1244  0.2946
30002W        W46849  16.699  13.409   5.659 -0.0487  0.1258 -0.3822
30003W        W46850   7.219   6.796   0.665 -0.0915 -0.0085 -0.2050
30004W        W46851  12.573   4.105  10.993  0.0360 -0.0684  0.0351
30005W        W46852   2.764  12.934   3.095 -0.3655 -0.1862  0.0288
30006W        W46853   5.272  10.112   5.104 -0.3744 -0.4089  0.0759
30007W        W46854  10.769   7.135   4.715 -0.0893  0.1822  0.0808
30008W        W46855   8.621   1.598   2.060 -0.0340 -0.1753 -0.3569
30009W        W46856   8.227   5.900  15.272  0.1192  0.1430  0.0410
30010W        W46857   2.842   0.904  12.083 -0.2166 -0.2884 -0.0679
30011W        W46858  10.295   0.310   3.467  0.0616 -0.2786  0.0957
30012W        W46859   5.171   0.693   1.031 -0.0604  0.0487 -0.1039
30013W        W46860   3.035   7.298  11.652  0.2549  0.1448 -0.1617
30014W        W46861  17.684   7.056   1.775  0.2152  0.3455 -0.0500
30015W        W46862   2.206  16.276  11.998 -0.0066  0.1085  0.3992
30016W        W46863   2.541  11.094  11.779 -0.1369  0.3067  0.1269
30017W        W46864  15.093  11.602  11.301  0.2726 -0.1571 -0.4112
30018W        W46865   0.095  13.372   1.366  0.1011 -0.2168 -0.2662
30019W        W46866   5.194   8.388   4.267  0.1648  0.0511  0.2025
30020W        W46867   3.328   3.596   2.680  0.2385  0.1052  0.0592
30021W        W46868  15.579  12.173   5.756  0.0943  0.0902 -0.1938
30022W        W46869   5.460   7.641  12.553 -0.1748 -0.1040  0.2871
30023W        W46870   3.298   0.476  14.138  0.0652  0.0450 -0.0554
30024W        W46871   5.849   9.470  13.670 -0.2029  0.2003 -0.2953
30025W        W46872  15.204  17.910  11.007 -0.2332 -0.1417 -0.0406
30026W        W46873  15.024  14.073   4.134  0.1431 -0.2511 -0.1303
30027W        W46874  10.375   4.369   4.120  0.0089 -0.1681 -0.1527
30028W        W46875   6.845   3.014   2.139 -0.1423  0.0759  0.0208
30029W        W46876   4.821  13.771  13.304 -0.1177 -0.0495 -0.1049
30030W        W46877  13.700   5.474   5.074  0.0081 -0.1683  0.1238
30031W        W46878   1.222  10.000  12.712  0.1469 -0.1467  0.0238
30032W        W46879  12.510   7.248   2.437  0.0307 -0.0943 -0.1605
30033W        W46880  14.102   1.186   1.788 -0.0068 -0.2282 -0.1491
30034W        W46881  17.131  10.266  14.810  0.0367 -0.3031  0.1384
30035W        W46882   5.836   2.796  13.427 -0.1535  0.0398  0.0822
30036W        W46883  10.372  12.242  11.539 -0.0408 -0.0309 -0.0287
30037W        W46884  12.459   8.203  14.270 -0.3323  0.1559  0.4260
30038W        W46885  11.860   9.944   3.164 -0.0800  0.4886  0.2107
30039W        W46886   0.812   1.938   2.840 -0.0292  0.1499 -0.2798
30040W        W46887  11.249   5.216  11.337  0.0833  0.0821  0.2150
30041W        W46888  12.301   1.101  14.706 -0.0848 -0.0394  0.3344
30042W        W46889   5.245   0.506   4.214  0.1543  0.0036 -0.2803
30043W        W46890  16.773  13.561  14.957 -0.0920  0.3921  0.1412
30044W        W46891  17.551  10.965  15.692  0.1191  0.2465 -0.2504
30045W        W46892   7.808   3.817  14.342  0.1694 -0.1793  0.0964
30046W        W46893  15.298   8.169   2.168  0.3415  0.0745 -0.2503
30047W        W46894  14.317   0.772   3.683  0.1684  0.0057 -0.1681
30048W        W46895   0.579   8.217   0.092  0.0743  0.1473  0.1039
30049W        W46896   0.415   7.850  12.332  0.1281  0.2199 -0.0200
30050W        W46897  12.964   9.617   1.295  0.0282  0.0467  0.1409
30051W        W46898  10.592   3.754   4.283  0.0942 -0.0174 -0.0489
30052W        W46899  12.607   9.380   0.563 -0.1073  0.1014 -0.3741
30053W        W46900   9.700  17.074  14.090  0.2276  0.0275  0.1929
30054W        W46901   5.943   0.783  11.996  0.0087  0.4243 -0.2446
30055W        W46902  12.256  10.041   1.941 -0.0366 -0.0145 -0.1151
30056W        W46903  18.275  14.951  13.500 -0.3821 -0.0852 -0.2247
30057W        W46904   2.351  13.591   0.216 -0.1944  0.1202 -0.1450
30058W        W46905  10.614  13.329   3.407  0.2042 -0.0821 -0.1118
30059W        W46906   1.754   2.585  14.619 -0.1460 -0.1082 -0.1210
30060W        W46907   4.295  13.851  13.425 -0.0979 -0.2401 -0.1277
30061W        W46908  15.157  17.792   3.518  0.5567 -0.0983 -0.3280
30062W        W46909  11.116  14.022  15.227 -0.2354 -0.0867  0.0657
30063W        W46910   3.514  10.144  13.640  0.3402  0.1659 -0.0714
30064W        W46911   5.342   7.290   4.073 -0.2148 -0.2564 -0.3647
30065W        W46912   4.948  10.174   2.726 -0.3978  0.0095 -0.3623
30066W        W46913   3.965   2.364  14.788 -0.1236 -0.0639  0.0923
30067W        W46914   8.173  15.794   0.915  0.3042 -0.0554 -0.1976
30068W        W46915  17.485  15.248  11.675 -0.3176  0.1597  0.0568
30069W        W46916  10.198  13.086  12.054 -0.1826  0.2197  0.0345
30070W        W46917   1.315  15.917   4.350 -0.1351 -0.0690 -0.1759
30071W        W46918  16.036   4.422  11.188 -0.1264  0.0630  0.3686
30072W        W46919  14.372  15.107   1.108  0.0051  0.0475 -0.0556
30073W        W46920   9.830  10.141   3.598  0.0323  0.0834  0.0817
30074W        W46921  10.903   7.437  14.813 -0.2694 -0.0158 -0.0375
30075W        W46922   3.275  10.553  11.719 -0.3320 -0.1063  0.0390
30076W        W46923   0.252  13.056  12.021  0.1182  0.0651  0.2848
30077W        W46924   1.073   4.722  15.788  0.1646  0.0844 -0.3388
30078W        W46925   2.645   0.820   1.593 -0.3315  0.3247  0.1001
30079W        W46926  14.513  10.552   5.245 -0.2732 -0.0177  0.2823
30080W        W46927  16.754  14.792   1.715 -0.4143 -0.0476  0.1813
30081W        W46928   2.063   0.740   0.855  0.1941 -0.1401 -0.0333
30082W        W46929  12.027  16.138   1.145 -0.1768 -0.0656 -0.1050
30083W        W46930   7.781   5.052   1.751 -0.2226 -0.2454  0.3610
30084W        W46931   6.227   5.539  12.611 -0.0052 -0.0938 -0.0763
30085W        W46932   0.956  11.282   1.867 -0.0473 -0.0685  0.1275
30086W        W46933   8.704  15.147   3.995  0.0616  0.0605  0.0620
30087W        W46934   8.966   2.477  13.949  0.3352 -0.1237  0.4400
30088W        W46935  16.076   6.724   3.245 -0.0646 -0.3518  0.0051
30089W        W46936   7.191   6.977  12.226  0.0792 -0.2507 -0.0713
30090W        W46937   4.485   2.140   2.978 -0.1556  0.1324 -0.2301
30091W        W46938   5.840  15.509  12.948 -0.0739 -0.0106 -0.4147
30092W        W46939   8.808  17.510   0.159 -0.4518  0.0705 -0.1515
30093W        W46940   6.675  10.500  14.621  0.1886 -0.0488  0.0741
30094W        W46941  13.126  12.129   0.659  0.2515  0.2588  0.0026
30095W        W46942  10.002  10.706   1.406  0.2518  0.0353 -0.1983
30096W        W46943   3.747  15.410  12.706  0.1898 -0.0366 -0.2452
30097W        W46944   7.314   0.738   3.762  0.3783 -0.0102 -0.1179
30098W        W46945   6.569   1.634  14.965 -0.1404 -0.5390 -0.2925
30099W        W46946   8.032   6.114   3.188 -0.0808  0.2948  0.2708
30100W        W46947   0.049   5.902   4.439 -0.0323  0.0277 -0.0128
30101W        W46948   3.857   8.547  15.775 -0.3595 -0.0173 -0.1138
30102W        W46949   6.082   5.778  15.678  0.0442 -0.4616 -0.1051
30103W        W46950  15.366  15.186   2.523 -0.0588 -0.0895 -0.4083
30104W        W46951   9.339   2.538  11.627 -0.1736 -0.0787  0.1619
30105W        W46952   6.903   3.672   4.362  0.0092 -0.4048 -0.3381
30106W        W46953   6.113  11.763   1.441  0.0543 -0.1377  0.2211
30107W        W46954   1.041   5.598   2.357 -0.2581 -0.1375  0.2032
30108W        W46955  15.003  16.395   2.012  0.0567 -0.1003  0.1615
30109W        W46956  17.554   1.343   5.760 -0.0071  0.2508  0.1680
30110W        W46957   1.851  17.936   2.702  0.2266  0.1137 -0.1147
30111W        W46958  11.393  17.819   3.885 -0.0095 -0.1897  0.1271
30112W        W46959   1.719   8.599   3.265 -0.0036 -0.3208  0.3221
30113W        W46960   4.251   5.893   3.501 -0.0438 -0.1971  0.2299
30114W        W46961   9.797   8.044  12.146 -0.0994  0.1461 -0.1291
30115W        W46962  18.010  14.149   0.379 -0.1261  0.1327  0.2899
30116W        W46963   5.794   8.610  13.721  0.1700 -0.0179 -0.4303
30117W        W46964  16.588  10.742   2.722  0.1550 -0.0915  0.0191
30118W        W46965  14.990   9.982   4.527 -0.0857  0.1136  0.0033
30119W        W46966   4.689  11.557   0.188 -0.2904 -0.2471  0.1564
30120W        W46967  10.529  16.628  15.234 -0.0337  0.0883  0.0099
30121W        W46968  14.685   5.314  10.782  0.2553 -0.0714  0.0272
30122W        W46969   1.516   5.952  16.153  0.0513 -0.1702  0.0893
30123W        W46970   7.509   9.272  13.653  0.2162  0.0776  0.0884
30124W        W46971  10.864   5.297  12.957  0.1299 -0.2756  0.0417
30125W        W46972  10.166  14.215  14.575  0.3021  0.4196  0.1538
30126W        W46973   9.508  13.311  13.090 -0.1806  0.1231 -0.2779
30127W        W46974   9.361   1.628   3.301 -0.1978 -0.4300  0.0848
30128W        W46975   6.332   1.917   0.105  0.1408  0.0828  0.0667
30129W        W46976  13.126  11.636   5.366  0.0646  0.0495 -0.1828
30130W        W46977   1.050   7.253   5.762 -0.1443 -0.1320  0.1342
30131W        W46978  10.726  15.428  12.915 -0.0244 -0.0974 -0.0240
30132W        W46979   8.979  15.847   0.121 -0.3275 -0.0331  0.1179
30133W        W46980   5.691  11.546  15.642  0.1151  0.0513 -0.0078
30134W        W46981   2.622   8.391   0.032 -0.2692  0.1547  0.2050
30135W        W46982   6.257  12.882   1.315 -0.0556 -0.2074  0.1211
30136W        W46983   4.952   8.305   1.309 -0.0236 -0.6256  0.1660
30137W        W46984   2.372  11.832   1.155  0.0109 -0.2714  0.5872
30138W        W46985  15.377   0.877  16.174 -0.1451 -0.0111 -0.2104
30139W        W46986  12.774   8.348  14.757 -0.2264 -0.2757  0.1005
30140W        W46987  17.213  18.185   1.281  0.0315  0.0057  0.0037
30141W        W46988  16.187   2.104   2.779 -0.1104  0.0929 -0.1336
30142W        W46989  11.520   4.921   4.161 -0.0803 -0.2494 -0.1140
30143W        W46990   4.685  14.440  15.562  0.0345 -0.1236 -0.0393
30144W        W46991  13.725   6.219   0.260 -0.4161 -0.1338  0.0415
30145W        W46992   0.606  11.570  11.875  0.1366  0.5253  0.0210
30146W        W46993  15.153   2.737   1.312  0.1877  0.4821  0.1891
30147W        W46994  10.177   4.979  15.846 -0.2027  0.1712  0.3972
30148W        W46995  13.612   9.959   1.993 -0.2576  0.1505  0.4257
30149W        W46996   5.252   4.395  13.104 -0.1043 -0.2569  0.1659
30150W        W46997  12.765   4.125  12.256  0.2270  0.0348 -0.0719
30151W        W46998   1.159   4.573  14.414 -0.0888 -0.2693 -0.3381
30152W        W46999  11.147   3.388  11.593  0.3345 -0.2093  0.1464
30153W        W47000  18.159   8.322  15.793 -0.0953 -0.0440  0.0163
30154W        W47001  13.324  13.283  12.619 -0.1346 -0.3170 -0.1375
30155W        W47002   2.243  14.488   1.761  0.2404  0.2320  0.2641
30156W        W47003   8.058   4.225   5.592 -0.2538  0.3367  0.1626
30157W        W47004   9.316   9.356   3.696  0.2434 -0.1340 -0.2884
30158W        W47005   2.435   5.685   0.774 -0.0878  0.0382  0.0863
30159W        W47006   0.084   1.943  13.125  0.1180  0.1128 -0.2410
30160W        W47007  12.239   4.718  11.752  0.1194 -0.0843 -0.0821
30161W        W47008  14.812  10.689   1.678  0.2214 -0.2553 -0.3519
30162W        W47009   7.175  18.106   2.182 -0.1464 -0.1015 -0.4072
30163W        W47010   0.620  14.084  15.446 -0.1109  0.0452 -0.1243
30164W        W47011   1.899  11.136   5.356  0.1356 -0.0233  0.0641
30165W        W47012  10.700   0.336   3.142 -0.3638  0.1968 -0.0482
30166W        W47013  16.926   6.041  14.440 -0.0438 -0.2522  0.1216
30167W        W47014   5.559  10.117   5.553 -0.2372 -0.1601  0.0918
30168W        W47015  16.984  11.129  14.166  0.0693 -0.1161  0.2951
30169W        W47016   1.798  12.760   5.185 -0.1315  0.0662 -0.0122
30170W        W47017  18.050   4.694  14.423 -0.1173  0.1610 -0.3731
30171W        W47018  15.599  16.476  13.725 -0.2583 -0.0212 -0.2161
30172W        W47019   7.254   8.510   0.944  0.2847 -0.0855  0.0037
30173W        W47020   4.145   8.212  13.152  0.2615 -0.2486  0.3142
30174W        W47021  10.078   4.282   2.927  0.1368 -0.2046 -0.1484
30175W        W47022   5.367  11.743   3.097  0.1797  0.2210  0.3180
30176W        W47023  16.308  16.523   0.675 -0.1769  0.0680 -0.0202
30177W        W47024   9.610  13.001   0.853 -0.1902 -0.1311  0.0204
30178W        W47025   7.103  13.507   4.619 -0.1916 -0.1670 -0.0410
30179W        W47026  16.242   8.358   1.758  0.2210 -0.1314 -0.1793
30180W        W47027  14.489   6.241  12.389 -0.1604 -0.2735 -0.0132
30181W        W47028   1.336  18.225  15.173  0.0660  0.0035 -0.4790
30182W        W47029  17.485   3.662   3.366 -0.1947 -0.2100 -0.2492
30183W        W47030   3.630   8.764   4.326  0.1469 -0.1880  0.0578
30184W        W47031  13.320   1.178   3.561  0.2679 -0.2150 -0.1559
30185W        W47032  17.088   7.361   3.146  0.2307 -0.0103 -0.0356
30186W        W47033   9.212   7.789  13.047  0.2488 -0.0989 -0.2728
30187W        W47034   7.688   7.684  14.943 -0.1717  0.1301  0.0964
30188W        W47035  11.011  12.721  13.823  0.3068  0.2223 -0.0817
30189W        W47036  13.257   2.398  13.246  0.0554  0.2051  0.1116
30190W        W47037  11.078  15.858  12.810  0.0983 -0.1380  0.1360
30191W        W47038  17.034   9.133  15.151  0.3151  0.1281  0.1501
30192W        W47039  13.736   6.647   4.101  0.1571 -0.2453  0.0042
30193W        W47040  14.718  17.586   5.503  0.2431 -0.3209  0.2955
30194W        W47041  10.362  16.353   0.858 -0.2159  0.1550 -0.2374
30195W        W47042  17.215  12.345  12.804  0.0420  0.0085 -0.0403
30196W        W47043   0.618   6.023   2.158  0.2541 -0.0544  0.0006
30197W        W47044  11.293   1.452  13.665 -0.1585 -0.2443  0.0457
30198W        W47045   9.060   6.197   0.513 -0.4449  0.0062 -0.1579
30199W        W47046   6.693   3.105  14.422  0.3975  0.0705  0.1934
30200W        W47047   2.681   0.635   4.250  0.1242  0.1301 -0.4142
30201W        W47048   8.653   3.226   3.314 -0.1680  0.2726  0.2832
30202W        W47049  10.527   1.769  13.730 -0.0822 -0.0462  0.0508
30203W        W47050  13.509  15.907   4.449  0.1402 -0.3045  0.2245
30204W        W47051  10.502  14.414   3.461  0.0379 -0.2196  0.1428
30205W        W47052  11.168   5.237  14.301  0.3095  0.0526 -0.0226
30206W        W47053  13.605  14.256  12.607  0.0487  0.1489  0.0007
30207W        W47054   8.971   0.363   2.185  0.0441  0.0213  0.1688
30208W        W47055   7.893  11.062  15.821 -0.0541 -0.1401 -0.1102
30209W        W47056   8.784   8.442   0.737 -0.1138 -0.1186 -0.1363
30210W        W47057  13.394   6.574   2.894 -0.1201 -0.1083  0.3114
30211W        W47058   2.846   2.999   0.401  0.0596 -0.0276  0.1178
30212W        W47059   7.068   5.170   5.339  0.0142  0.1674  0.0013
30213W        W47060  15.981  15.287  11.533 -0.0068  0.1932 -0.2947
30214W        W47061   1.762  14.085   2.526 -0.1821  0.0895 -0.0288
30215W        W47062  13.532   2.847   4.393  0.3200  0.2863  0.0407
30216W        W47063   2.164   4.729   3.557 -0.0072 -0.0919 -0.0143
30217W        W47064   7.159   3.083   5.004 -0.1255  0.1700  0.0193
30218W        W47065  16.295  17.903   0.468  0.0808 -0.0317 -0.0123
30219W        W47066   2.805   1.138  12.745  0.2786  0.0143 -0.0303
30220W        W47067  14.741   6.767   4.522  0.0506 -0.0138  0.0496
30221W        W47068   7.495  17.864   3.188  0.0360  0.2196 -0.3588
30222W        W47069   1.898  12.026  13.651 -0.0692 -0.0094 -0.1765
30223W        W47070   8.476   5.502  11.168 -0.3493 -0.0957 -0.2226
30224W        W47071   7.039  12.725  13.448  0.0695 -0.2395  0.2404
30225W        W47072   6.073  10.652   4.790 -0.2499 -0.0655  0.1814
30226W        W47073  15.770   8.334   3.401 -0.1098  0.0237  0.0591
30227W        W47074  17.241  15.757   3.474 -0.1363 -0.0437  0.1276
30228W        W47075  11.481   4.209  12.472  0.1760 -0.1578  0.0909
30229W        W47076   5.854   1.578   5.073 -0.0415  0.0682 -0.0698
30230W        W47077  15.060  12.436  13.470  0.1425  0.0762 -0.3469
30231W        W47078  13.821   5.127   2.063  0.1326  0.0740  0.1500
30232W        W47079   6.485  13.498   5.353 -0.0822 -0.1146  0.2060
30233W        W47080   2.177   7.836  14.396  0.0007  0.0111  0.2368
30234W        W47081   0.354  10.175  14.085 -0.0517 -0.0313 -0.0328
30235W        W47082  15.414  11.789  14.095 -0.0696  0.1146 -0.0824
30236W        W47083   6.930  16.690  15.790 -0.0664  0.2400 -0.1795
30237W        W47084   1.335  12.461  12.340  0.1872 -0.1477 -0.2731
30238W        W47085   8.280   5.875   2.704  0.2255  0.2656  0.0783
30239W        W47086  13.760   6.168  11.251 -0.0331 -0.0708  0.0453
30240W        W47087   3.960  13.395   2.262  0.2751 -0.0955  0.2489
30241W        W47088   0.303  17.433   3.757  0.1015  0.1796 -0.2022
30242W        W47089   5.147   3.825   0.616  0.2611 -0.1049  0.1336
30243W        W47090   6.783  13.581  13.404  0.1565 -0.1899  0.3250
30244W        W47091   2.956  17.022  15.125 -0.2085 -0.2360  0.1843
30245W        W47092  15.792   4.401   1.499  0.0956  0.1535  0.1168
30246W        W47093  15.222   0.531   5.314  0.2244 -0.0570  0.4384
30247W        W47094   7.530  15.966  16.037  0.0094  0.1689 -0.1632
30248W        W47095  17.651  15.653  11.944 -0.0224  0.0019 -0.0984
30249W        W47096  12.546  18.040  12.107 -0.1778  0.0116 -0.0693
30250W        W47097   9.090   2.532   1.186 -0.0706 -0.0388  0.0501
30251W        W47098   5.138   5.996   3.717 -0.1761 -0.1174 -0.1041
30252W        W47099  12.456  16.823   0.431 -0.0476 -0.1441 -0.1450
30253W        W47100  13.022   6.070   4.475  0.0002  0.4800 -0.3764
30254W        W47101  10.244   9.014  13.352  0.0097  0.1848  0.1126
30255W        W47102   3.454  12.619   2.445 -0.2439  0.2207 -0.0862
30256W        W47103  12.185   0.321   4.739 -0.0357 -0.0336  0.3727
30257W        W47104  18.107  10.983   1.950  0.0375  0.2518  0.0299
30258W        W47105   3.160  13.203  12.994 -0.2021 -0.2614  0.1294
30259W        W47106  14.859  17.809   1.726  0.2665 -0.1697 -0.0058
30260W        W47107   6.633   9.713   2.786  0.0184 -0.1290 -0.2303
30261W        W47108  14.531  13.572   0.630  0.0477  0.3783  0.0777
30262W        W47109  15.507   0.301  11.304  0.1965  0.0193  0.0922
30263W        W47110  10.884  17.827   6.137  0.1087  0.4180 -0.1255
30264W        W47111   7.079  14.816   2.175 -0.1169 -0.0284 -0.0110
30265W        W47112   2.502   2.850   3.329  0.0273 -0.1044  0.0252
30266W        W47113  13.415   0.847   4.060  0.0068  0.2051 -0.0927
30267W        W47114  14.742   1.656   3.266  0.2344 -0.3599 -0.0209
30268W        W47115   5.962  17.281  14.302 -0.2034 -0.0867  0.0119
30269W        W47116   5.510  14.950   4.831  0.0118 -0.1097 -0.1543
30270W        W47117  11.460  10.873  14.584 -0.0156  0.3853  0.3404
30271W        W47118   5.521  10.934   1.030 -0.2950 -0.0228 -0.2859
30272W        W47119  17.591  16.594   4.283  0.0595  0.4792  0.3005
30273W        W47120  16.686  11.443   4.960  0.1523  0.2656  0.0008
30274W        W47121   0.669  15.247  12.068  0.1295 -0.1972  0.1562
30275W        W47122   2.749  10.341  13.039 -0.1168 -0.0667  0.1234
30276W        W47123  10.681   6.231   4.964  0.3153  0.1564 -0.3747
30277W        W47124  13.968   6.078   1.175 -0.1971 -0.2138  0.1002
30278W        W47125  16.831   2.335   1.213  0.0222  0.0791  0.0252
30279W        W47126   0.628   3.301  13.924 -0.4252 -0.1098  0.1450
30280W        W47127   3.145   8.139   4.514  0.1385  0.0973 -0.0327
30281W        W47128   1.286   1.877  16.137  0.0492 -0.0627  0.2603
30282W        W47129   7.461  11.310   1.719 -0.0464  0.0813  0.0319
30283W        W47130   6.882  17.976  15.988  0.0646 -0.2085 -0.1152
30284W        W47131   7.037  16.275   5.092 -0.2723  0.2035 -0.2833
30285W        W47132   6.529   6.362   0.004  0.0198 -0.0815  0.0561
30286W        W47133  12.995  12.180   1.953 -0.1192  0.1901  0.3144
30287W        W47134   1.732   5.138   3.232  0.1439  0.0144 -0.2770
30288W        W47135   6.387   9.290   2.728  0.0110 -0.2104 -0.2880
30289W        W47136   8.933   5.141  11.823  0.0346  0.1588 -0.0742
30290W        W47137   3.945   9.032  15.636 -0.1866 -0.3486  0.0171
30291W        W47138   3.800   6.330   4.859 -0.1218 -0.2613 -0.1360
30292W        W47139   6.645   3.850   5.223  0.0862  0.3594  0.0195
30293W        W47140   9.529  14.911   5.625  0.1892 -0.2567  0.1936
30294W        W47141   6.576   8.704  14.861  0.0775 -0.3410 -0.3001
30295W        W47142   4.378  10.854  12.829  0.0561  0.2105 -0.0331
30296W        W47143   9.159  16.476  12.709  0.2409 -0.0357 -0.0910
30297W        W47144  17.250  11.282   3.680 -0.0072  0.0283 -0.2994
30298W        W47145   3.978   6.957   0.533 -0.2874 -0.1889 -0.1879
30299W        W47146  14.234   0.439   3.242 -0.0395 -0.0066 -0.3136
30300W        W47147   4.383  16.266  15.034 -0.0995 -0.0193 -0.3078
30301W        W47148   6.441  15.525  11.587  0.3053 -0.2013 -0.0142
30302W        W47149   8.685   4.001   0.762  0.0305  0.2039  0.1953
30303W        W47150   5.153  18.147   3.459  0.2295 -0.1763  0.2140
30304W        W47151   1.935  10.036   2.483  0.0506  0.0737  0.0079
30305W        W47152   8.019  10.756  11.869 -0.0897  0.2742  0.2616
30306W        W47153   0.906  16.062  15.611  0.1708 -0.0979  0.2684
30307W        W47154  10.542   5.362  14.915  0.1384  0.1013 -0.0129
30308W        W47155   6.130   0.951   0.252 -0.1852  0.1036 -0.2501
30309W        W47156  13.780   3.588  14.770 -0.3151  0.2300  0.0317
30310W        W47157   6.774   1.816  15.908  0.0928  0.3335  0.1216
30311W        W47158  13.239   7.472  13.222 -0.1969  0.1730 -0.2572
30312W        W47159  11.231   9.147  11.226  0.0408  0.4860 -0.0874
30313W        W47160   3.992   2.336  11.663  0.1177  0.1104  0.0563
30314W        W47161   1.746   7.020  13.248 -0.1347 -0.1562 -0.1848
30315W        W47162  16.435  17.041  12.153 -0.0420 -0.1224 -0.1940
30316W        W47163   7.454   0.253   2.869  0.0296  0.0384  0.4485
30317W        W47164  10.004  12.744  11.621 -0.1195 -0.0700 -0.1015
30318W        W47165   3.967  15.192   0.397  0.1802 -0.1540 -0.1477
30319W        W47166  14.855   9.753  14.491 -0.2461  0.1205 -0.0367
30320W        W47167   0.885  10.380  14.208 -0.0596 -0.0435 -0.0978
30321W        W47168   9.520   9.194   5.123  0.4016  0.0335 -0.1104
30322W        W47169   9.240   4.651  11.676  0.3642 -0.1599  0.2414
30323W        W47170   8.908   7.597   0.135  0.2947  0.1113 -0.1287
30324W        W47171  13.310   2.829  11.138 -0.0826  0.0575 -0.0260
30325W        W47172  13.702  14.956  11.919 -0.0072 -0.1158 -0.0154
30326W        W47173  14.263   6.729   5.323  0.1844  0.1153  0.3374
30327W        W47174  14.684   2.464   4.376  0.0625  0.0302 -0.0116
30328W        W47175   7.428   1.834   3.557  0.2547  0.1375 -0.0121
30329W        W47176   6.925   2.669   4.803 -0.0915  0.2481 -0.2722
30330W        W47177  16.064   3.984   1.224 -0.0560  0.0413  0.1523
30331W        W47178   7.230   5.533   3.908  0.0143  0.1341  0.0762
30332W        W47179  15.202   6.883   4.356 -0.0017 -0.3463 -0.0298
30333W        W47180  10.437   8.977  12.132  0.0853 -0.2223  0.0176
30334W        W47181   7.181  16.614  11.851 -0.3225 -0.1806 -0.1837
30335W        W47182  10.742  14.087  13.281 -0.0106  0.0312 -0.2556
30336W        W47183  14.787   4.906  11.529  0.1423 -0.0613 -0.1949
30337W        W47184   9.798   0.123   4.823  0.0037 -0.0435  0.0688
30338W        W47185  10.084   9.871   2.005  0.0224  0.1167 -0.0333
30339W        W47186  13.856  11.841   4.185 -0.2010 -0.0499 -0.0096
30340W        W47187   1.149  16.476  15.407 -0.2153  0.1161  0.1671
30341W        W47188   4.839   4.095  13.143  0.0503 -0.0821 -0.1441
30342W        W47189  12.196   3.786  10.690 -0.0388 -0.2010 -0.0201
30343W        W47190   2.147   9.690  16.166  0.1520  0.0582  0.0542
30344W        W47191   0.309   6.838   2.801 -0.0700  0.0258  0.1007
30345W        W47192  17.206  13.528  12.268 -0.1762 -0.0357 -0.0377
30346W        W47193   4.391   0.324   2.330 -0.1777  0.0866 -0.0130
30347W        W47194   7.426   7.350   1.893 -0.2569  0.2232 -0.1970
30348W        W47195  10.983   7.698   1.117 -0.2319 -0.2222  0.1063
30349W        W47196   3.787   3.489   3.021  0.0779 -0.1071  0.0373
30350W        W47197  13.179   0.924   0.198 -0.2686 -0.0402  0.0341
30351W        W47198   3.231   8.465  13.657  0.0192  0.2128 -0.1432
30352W        W47199   3.638   9.551   5.024  0.1811 -0.0661 -0.0796
30353W        W47200  15.516   9.862   0.466 -0.0634  0.0035  0.2860
30354W        W47201   1.528  13.413   1.138 -0.1622  0.0476  0.0453
30355W        W47202   0.455   3.824  11.890  0.0879 -0.0490 -0.0391
30356W        W47203   7.775   0.092  12.552  0.5261  0.1717  0.2241
30357W        W47204  12.513   8.016   0.429 -0.0461  0.1242 -0.1146
30358W        W47205   2.530  11.984  11.950 -0.0445 -0.0486  0.0895
30359W        W47206   3.664   9.919  11.688 -0.3222 -0.2507 -0.2769
30360W        W47207  16.567  11.571   4.019 -0.0823 -0.2659 -0.1607
30361W        W47208   0.231   8.953  14.150  0.0644  0.0482  0.0503
30362W        W47209   1.782   3.440  12.847 -0.2164  0.1038  0.1392
30363W        W47210  13.631  10.535   4.147 -0.2097  0.0152  0.5135
30364W        W47211  14.312  14.928   2.766 -0.2994  0.0165  0.3051
30365W        W47212   5.429  12.498  14.698 -0.1732  0.2204 -0.1336
30366W        W47213  16.359  16.532   2.750  0.1650  0.1031  0.0557
30367W        W47214   5.538  16.999  11.226 -0.1785 -0.1496  0.2270
30368W        W47215  11.862   6.894  12.682 -0.0847 -0.1661  0.2364
30369W        W47216   3.099  10.755   3.675  0.2412 -0.1120  0.2343
30370W        W47217   1.144   4.230   4.914  0.0319  0.0065  0.1496
30371W        W47218  12.729  16.120  14.643  0.1126 -0.0651 -0.1212
30372W        W47219   7.141  13.215  13.427  0.1153  0.0157 -0.1483
30373W        W47220   4.657  14.390   3.091 -0.1064 -0.0110  0.0243
30374W        W47221   1.834   9.202   1.692  0.0723 -0.0921 -0.1392
30375W        W47222   8.101  14.648   5.737 -0.0203 -0.1924  0.0243
30376W        W47223  14.246  14.347   1.988  0.0404 -0.1940 -0.0064
30377W        W47224  17.728   5.730  10.976  0.1729  0.0963 -0.0427
30378W        W47225   7.547   6.903   3.996  0.4518 -0.0401  0.0081
30379W        W47226  12.894  12.877   0.008  0.2239 -0.2772 -0.1137
30380W        W47227   8.281   1.583   3.382  0.0445 -0.0138 -0.1390
30381W        W47228   9.245   8.641  10.912  0.0561 -0.0968  0.0295
30382W        W47229  11.117  18.028   4.497  0.1560 -0.1002  0.0039
30383W        W47230   9.249   2.038  15.240 -0.2119 -0.1404 -0.0780
30384W        W47231   7.931   5.928   2.007 -0.0442  0.0886  0.1124
30385W        W47232   0.387  15.735  12.752  0.0326 -0.0932  0.1989
30386W        W47233  10.048  17.834   4.216  0.0966  0.1661  0.0405
30387W        W47234   5.416   0.243  14.780  0.0690 -0.0280  0.2023
30388W        W47235  15.623   0.971   2.343 -0.0631  0.0454  0.0145
30389W        W47236   8.460   0.442   5.237 -0.1594  0.0748  0.1697
30390W        W47237   4.089   2.976   0.430  0.0308  0.0062  0.1779
30391W        W47238   0.797  12.384  11.479 -0.0177  0.3965  0.0964
30392W        W47239  14.826   2.301  14.458  0.1670  0.0513 -0.0263
30393W        W47240  14.866   2.550   2.540  0.0758  0.2928 -0.0339
30394W        W47241   1.253  12.489   0.197 -0.2510  0.0515 -0.1532
30395W        W47242   8.669  12.749  11.291  0.0935  0.1429 -0.0427
30396W        W47243   6.570   0.510   1.950 -0.3629 -0.1253 -0.0177
30397W        W47244   3.101   8.839  13.304 -0.0161  0.1199 -0.0098
30398W        W47245  12.407   8.884   3.736 -0.2365 -0.0908  0.1742
30399W        W47246   7.700   5.056   0.694 -0.0113  0.0019 -0.2156
30400W        W47247  15.826   0.471   0.059  0.0502  0.1293  0.0413
30401W        W47248  15.110  18.058  15.813 -0.2044  0.1050 -0.3331
30402W        W47249  14.094   0.541  14.521 -0.4104  0.1417 -0.4831
30403W        W47250   9.287  11.139  15.547 -0.0750  0.0290  0.4581
30404W        W47251   9.328  13.668  12.050  0.0609 -0.0153  0.2750
30405W        W47252   4.631  15.581   5.609  0.2032  0.3079  0.2386
30406W        W47253   7.052   3.978   0.998  0.1418  0.1691 -0.0847
30407W        W47254   2.600  17.794  15.092  0.1118  0.1167  0.1668
30408W        W47255  15.473   5.683  11.885  0.0317  0.1177  0.1122
30409W        W47256  13.726  15.068   5.519 -0.0879  0.0890 -0.1284
30410W        W47257   6.882   1.170   4.715 -0.3039 -0.0347 -0.1936
30411W        W47258  12.809  15.309  14.950  0.0264 -0.1279 -0.1951
30412W        W47259   8.321   3.914   4.797 -0.3915  0.0243  0.1850
30413W        W47260   8.035  16.799  15.365  0.0856 -0.1532 -0.1193
30414W        W47261  17.662  10.372   2.428  0.4469 -0.1454 -0.3077
30415W        W47262   8.084   8.636   0.109  0.2785 -0.0317 -0.1302
30416W        W47263   4.472   2.289  11.400  0.0445 -0.1763 -0.0163
30417W        W47264  10.219   4.314  11.085  0.2563 -0.3193 -0.3131
30418W        W47265  10.781  14.122   4.877 -0.4492 -0.1904 -0.1309
30419W        W47266   6.689   6.285  15.715 -0.0399 -0.0975  0.1945
30420W        W47267   9.917   5.077   2.695  0.3417  0.0729 -0.0775
30421W        W47268  17.291   1.079   2.678  0.1918  0.1209 -0.0886
30422W        W47269   5.953  14.163  12.655  0.0478  0.2666 -0.0570
30423W        W47270  16.517  13.563  12.868 -0.2457 -0.0558  0.0471
30424W        W47271  11.727   3.091   1.577  0.2407  0.0963 -0.2170
30425W        W47272  11.283  14.493   5.284  0.0656 -0.0104  0.0011
30426W        W47273  12.327   8.502   2.103 -0.3738  0.1657 -0.1054
30427W        W47274  17.529   7.627   3.208  0.0056  0.0812  0.0944
30428W        W47275  12.719   2.842  11.293  0.0138 -0.1254  0.4396
30429W        W47276  10.012  16.061   4.430 -0.0786  0.1414  0.1961
30430W        W47277   5.478   5.693   5.113  0.1130  0.0432 -0.2767
30431W        W47278   1.508  12.575   4.397 -0.1741  0.0745  0.1636
30432W        W47279   7.711   8.436  12.615 -0.2666 -0.1652 -0.0937
30433W        W47280  17.953  13.978   5.479 -0.1158 -0.2040 -0.0270
30434W        W47281   7.988   3.475  11.494  0.1820 -0.2395 -0.1374
30435W        W47282   7.055  16.315  16.169  0.1061 -0.2496 -0.0388
30436W        W47283  10.584  15.038  14.643  0.2434  0.2523 -0.0450
30437W        W47284  11.489  17.608   1.093  0.1453  0.0058 -0.2271
30438W        W47285  14.230  13.768  13.429 -0.1328  0.0032 -0.1849
30439W        W47286  10.025  10.698  13.801 -0.0761  0.3066 -0.0142
30440W        W47287  17.016  14.090   3.011  0.3148 -0.0198  0.1335
30441W        W47288  13.300   1.548   2.726 -0.0625  0.0817 -0.3330
30442W        W47289  14.896   4.836   5.450 -0.1241  0.0035 -0.1840
30443W        W47290   5.822  11.589  11.278  0.2691 -0.1849 -0.3906
30444W        W47291   2.057   3.364   5.531 -0.1398 -0.0798  0.0477
30445W        W47292   0.991   2.976   0.497 -0.2037 -0.5378 -0.0278
30446W        W47293   2.020   0.666  12.234 -0.1818  0.1329 -0.1278
30447W        W47294   1.499   3.270  16.053  0.2641  0.2456  0.2806
30448W        W47295   9.409  17.724  11.708 -0.0076  0.0829 -0.0819
30449W        W47296   8.031  16.404   2.900  0.5057 -0.1981 -0.1306
30450W        W47297   8.763   5.306  15.808  0.0763 -0.1268  0.2579
30451W        W47298  17.963   0.521   2.772 -0.0019 -0.0602 -0.1664
30452W        W47299  14.865  15.074   1.827  0.0324  0.0171  0.1002
30453W        W47300   4.598   1.676  14.844  0.2618 -0.1472 -0.2763
30454W        W47301   1.878   1.318   3.485  0.1861  0.0882 -0.0776
30455W        W47302  11.189  17.807  15.726 -0.0974 -0.2577  0.0530
30456W        W47303  16.261  15.801   0.111 -0.0306  0.0727  0.0078
30457W        W47304   3.961   4.137  14.304  0.0278 -0.1412 -0.4742
30458W        W47305   3.646   2.249  12.086 -0.0512  0.0947  0.0423
30459W        W47306   1.839  15.664   1.570 -0.2815 -0.0659  0.0032
30460W        W47307   2.630   5.840  11.587  0.0716 -0.1473  0.0909
30461W        W47308  16.758  15.944   3.495 -0.1947  0.0028 -0.0821
30462W        W47309  17.620   2.798   1.082 -0.0084  0.0537  0.3316
30463W        W47310   5.130  17.837  11.419 -0.4427  0.1150 -0.1797
30464W        W47311   5.587   9.329  14.251  0.1494 -0.1800  0.0519
30465W        W47312   0.701  12.138  15.828  0.0271 -0.0432 -0.3189
30466W        W47313   9.047  12.149   5.451 -0.0401  0.1047 -0.1152
30467W        W47314   1.568   3.741   0.101 -0.0026 -0.1568  0.3897
30468W        W47315  15.940  12.981  15.809  0.0973  0.0001 -0.2357
30469W        W47316   5.956  10.518  13.282  0.0156  0.2352  0.0297
30470W        W47317   9.366  17.983  12.155  0.3278  0.0222 -0.0841
30471W        W47318  14.222   7.533   3.965  0.0429  0.0671 -0.2430
30472W        W47319   5.026   3.441  13.278  0.0736  0.3313 -0.2260
30473W        W47320   9.548  10.754  12.776 -0.1047  0.0170  0.1737
30474W        W47321   2.849   5.033  15.036 -0.4090 -0.0245 -0.1464
30475W        W47322   0.975   6.585  11.151 -0.0158  0.0732 -0.1488
30476W        W47323  14.344   3.070   2.369  0.1587  0.2271 -0.3659
30477W        W47324  17.096  17.020  13.662 -0.1769 -0.3437  0.2703
30478W        W47325  11.977  14.164   6.289  0.3477 -0.1393  0.2708
30479W        W47326   2.150  15.167   0.648  0.1208 -0.0648  0.0146
30480W        W47327  12.321   7.580   3.343 -0.1309 -0.0591  0.0801
30481W        W47328   9.352   7.972   2.508 -0.1617  0.1644  0.1216
30482W        W47329  15.905  10.668   0.692  0.1055  0.1938 -0.0509
30483W        W47330   4.892  17.297   1.297 -0.1909 -0.2046 -0.1169
30484W        W47331   0.107  14.320   3.017  0.2132 -0.1299  0.2507
30485W        W47332   8.577   0.084   1.979  0.2818 -0.1169  0.0263
30486W        W47333   6.493  16.079  14.001  0.2407 -0.2455  0.4728
30487W        W47334  11.883   8.520  11.553  0.0534 -0.2807  0.3771
30488W        W47335  12.525   1.235   2.747 -0.0985 -0.1528  0.2717
30489W        W47336  13.963   6.918  12.921 -0.1685  0.1780 -0.0747
30490W        W47337   5.146  15.160   2.959  0.3256  0.0482  0.1862
30491W        W47338  14.896   0.558  12.617  0.0930  0.2561 -0.0888
30492W        W47339   4.175   1.612   2.768 -0.0857 -0.1685 -0.0634
30493W        W47340  17.197   9.918   1.165  0.2038 -0.0095  0.3688
30494W        W47341  17.006   5.854   3.396  0.1043  0.0447  0.2099
30495W        W47342  11.043  12.144  15.234 -0.0219 -0.0160  0.1130
30496W        W47343  15.701  12.009  14.936  0.0761  0.0434  0.0152
30497W        W47344   4.245  15.991   0.250  0.0013 -0.2076  0.0269
30498W        W47345   8.343   3.263  11.753 -0.0760 -0.2530 -0.1807
30499W        W47346  13.694  18.327  14.318 -0.2765 -0.2586  0.0496
30500W        W47347   3.068   0.288  11.312 -0.1188 -0.2738 -0.4664
30501W        W47348  14.380  13.108  12.611 -0.0837  0.0216 -0.2468
30502W        W47349   1.173   9.154  13.320  0.1860 -0.1684  0.3755
30503W        W47350   1.840   2.870   5.105 -0.0156  0.0707  0.0560
30504W        W47351   2.178   6.483  12.598  0.1229  0.3593 -0.2488
30505W        W47352   4.458   7.431   1.970 -0.0530  0.0288 -0.1749
30506W        W47353   8.597  11.289   2.192 -0.0293  0.1947  0.1472
30507W        W47354   4.807   8.663   3.095 -0.3136  0.1575  0.3938
30508W        W47355   5.353  16.038   0.210  0.2595  0.0284  0.2560
30509W        W47356  17.394   0.895   4.344  0.0825 -0.2263  0.2957
30510W        W47357  16.336  16.614   4.893 -0.0411  0.0640  0.3899
30511W        W47358  14.536  15.809   4.360  0.0223  0.0182  0.0347
30512W        W47359  15.431   7.727  14.902  0.1728 -0.1257 -0.1304
30513W        W47360   2.971  16.546  12.642  0.0525 -0.1527 -0.0763
30514W        W47361   4.270   9.227   3.626 -0.1023 -0.3915 -0.0724
30515W        W47362  13.620   9.020   2.192  0.2777  0.1555  0.0407
30516W        W47363  13.891   0.320   2.812  0.0887 -0.1540 -0.0956
30517W        W47364  15.618   7.544  14.048  0.2233 -0.1314 -0.2558
30518W        W47365  15.720   9.539   3.939 -0.0075 -0.0567  0.1256
30519W        W47366  16.103   1.491   4.183  0.0480  0.2141 -0.1096
30520W        W47367   7.012  14.846  13.176  0.0588  0.2951  0.0448
30521W        W47368   5.778  12.605   1.385 -0.1437 -0.0420 -0.0634
30522W        W47369  18.129   0.204   5.078  0.1374 -0.2950  0.2029
30523W        W47370   8.669   8.950  12.039  0.1157  0.0893 -0.0103
30524W        W47371  14.731  10.829  14.762 -0.0390  0.0984  0.3343
30525W        W47372  18.018   5.754   0.310 -0.4670 -0.1806  0.0613
30526W        W47373   4.226  18.215  11.767 -0.0500  0.2146  0.0952
30527W        W47374   1.329   3.080  15.221  0.0355 -0.1646  0.3546
30528W        W47375   9.073  15.012  11.808  0.3834  0.0308 -0.1902
30529W        W47376   6.064  13.449  12.658  0.1511 -0.0319  0.1253
30530W        W47377  12.211  14.617  15.360 -0.0260 -0.0837 -0.3500
30531W        W47378  11.161   4.775  11.021 -0.1102 -0.1497 -0.1035
30532W        W47379   6.066   9.202   0.653  0.1020 -0.0335 -0.0909
30533W        W47380   9.353   0.578  13.034  0.0896  0.1462  0.0662
30534W        W47381  12.883  11.976  15.531  0.2486  0.1453  0.4195
30535W        W47382  14.823   6.538  13.258  0.3243  0.0541  0.1669
30536W        W47383   8.919  17.795  12.407 -0.0731  0.1381  0.1098
30537W        W47384  11.966  17.561   5.524 -0.0215  0.2882 -0.2028
30538W        W47385   7.028  12.594  12.926 -0.0250 -0.0692 -0.1578
30539W        W47386   5.699   1.930  13.837 -0.2733  0.1762  0.0143
30540W        W47387   3.569   0.451  11.261 -0.0385  0.2340 -0.1666
30541W        W47388  11.691  17.112  12.312  0.1241 -0.1375 -0.1403
30542W        W47389   6.321   3.321   0.770  0.1661 -0.2753  0.1164
30543W        W47390  11.407  10.374  15.901 -0.0274  0.0067  0.1810
30544W        W47391  11.719   4.841   1.111  0.0736  0.2358  0.0623
30545W        W47392  18.317  16.129   4.346  0.3511  0.2105  0.1809
30546W        W47393   8.610   3.980  13.315  0.1856 -0.1116  0.1269
30547W        W47394   8.897   8.392   4.222 -0.1261 -0.1436 -0.2681
30548W        W47395   9.332   4.449   1.802  0.0804  0.1608 -0.2881
30549W        W47396   9.554   5.693  12.561  0.1751  0.1258  0.0858
30550W        W47397   6.464   0.982   1.684 -0.0154  0.0351 -0.1148
30551W        W47398   0.528   9.957   1.390  0.0357 -0.3728 -0.0456
30552W        W47399  16.905  15.965  13.277 -0.0559  0.2184  0.2021
30553W        W47400  12.978   5.809  15.877 -0.2960 -0.0263 -0.1809
30554W        W47401  15.722   5.812   3.803 -0.0370  0.0595 -0.1052
30555W        W47402   6.844  11.312   2.129  0.1021 -0.0196  0.2508
30556W        W47403   1.420  14.322  15.293  0.1304 -0.2577 -0.2450
30557W        W47404   4.653  11.230  12.560 -0.0686 -0.1227 -0.0717
30558W        W47405  14.230   3.426  10.453 -0.1937 -0.1621  0.1964
30559W        W47406   7.257  12.716  14.851 -0.0869  0.2867  0.0635
30560W        W47407   3.173  11.741  14.469 -0.1519  0.1799  0.2968
30561W        W47408   0.085   9.955   2.800  0.0118  0.1201  0.1604
30562W        W47409   7.873   1.325   0.582  0.1123  0.0832 -0.1022
30563W        W47410   6.801  12.466  11.955  0.4199 -0.2288  0.4094
30564W        W47411  10.628  18.167   4.104  0.1023  0.0321 -0.0637
30565W        W47412  15.917  15.195   4.161  0.1323  0.0624  0.1393
30566W        W47413  12.739  12.971   5.005 -0.1230  0.2187 -0.3831
30567W        W47414  15.885  17.377  12.785 -0.2620  0.0958  0.0791
30568W        W47415   5.116  13.209  15.930  0.0764  0.5382 -0.1833
30569W        W47416   0.073   3.165   2.340  0.0827 -0.1144 -0.2714
30570W        W47417   2.934  10.213   2.753 -0.0287 -0.2581  0.0839
30571W        W47418   9.240  14.148   4.386  0.0931 -0.0779 -0.1675
30572W        W47419  11.815   4.422   5.183  0.2782 -0.2532 -0.1118
30573W        W47420   5.552   9.585  14.696  0.0642 -0.3790 -0.1681
30574W        W47421  12.080  16.452   2.184 -0.1255 -0.1183 -0.2162
30575W        W47422  13.584   9.824  15.004 -0.1436  0.0614 -0.1914
30576W        W47423  13.592   3.263   5.141 -0.0531  0.1915 -0.0398
30577W        W47424  15.748   9.115   4.210  0.0045 -0.0825 -0.3336
30578W        W47425  17.099   8.349   1.207 -0.0368  0.2100 -0.1152
30579W        W47426  11.873   9.442   4.895 -0.0989 -0.1535  0.0620
30580W        W47427   1.199   0.645   4.485  0.2169  0.1408 -0.1440
30581W        W47428  13.446   3.559   2.163  0.0206  0.0457 -0.0775
30582W        W47429  11.384   0.954  13.344 -0.3177  0.3295  0.0406
30583W        W47430  11.920  14.878  12.296  0.3308 -0.1565  0.1348
30584W        W47431  11.694  16.935   4.124  0.1556  0.2728 -0.1720
30585W        W47432   5.632   3.598  11.501 -0.1095  0.0653 -0.1570
30586W        W47433   5.886   3.802   1.861 -0.0470  0.0119 -0.2530
30587W        W47434   3.725   9.013  14.770 -0.0554 -0.0452 -0.1158
30588W        W47435  15.440  15.259  12.311  0.2045  0.1979  0.2427
30589W        W47436  14.590  11.017  15.225 -0.0913 -0.0980 -0.3450
30590W        W47437  13.776  13.900  10.398 -0.1715 -0.0596 -0.1074
30591W        W47438   2.004  15.902   4.999 -0.1101 -0.2542  0.3381
30592W        W47439   8.948   4.376  11.313  0.2488  0.1953 -0.0096
30593W        W47440   3.827  16.930  15.584  0.0664  0.0483  0.0148
30594W        W47441  14.316   7.088  11.497 -0.0071 -0.1575 -0.0435
30595W        W47442   4.623   9.782  14.831 -0.3515 -0.0775 -0.0641
30596W        W47443  16.652  14.670  11.437 -0.0902 -0.1231  0.3090
30597W        W47444  10.982   8.647   5.239 -0.0528 -0.3316 -0.1578
30598W        W47445   2.309  15.378  15.016 -0.3443 -0.1222 -0.0219
30599W        W47446  11.423   9.971  11.759 -0.3406 -0.2315 -0.0151
30600W        W47447   5.493   6.245  12.364 -0.0079 -0.1786 -0.1687
30601W        W47448   8.000   1.920  13.792  0.1471  0.0151  0.1708
30602W        W47449  11.354  13.892   0.144  0.0962  0.0354 -0.0669
30603W        W47450  17.683  16.028   5.304  0.1265 -0.1198  0.0424
30604W        W47451   5.669   5.858   3.601 -0.2861 -0.2245 -0.1177
30605W        W47452  16.281   8.635   4.891  0.1336  0.2976 -0.1597
30606W        W47453  13.266  11.215   1.185  0.2136 -0.0532  0.1472
30607W        W47454  10.087  14.910  15.474 -0.0286 -0.1644 -0.0149
30608W        W47455   4.060   3.923   1.048 -0.0432 -0.1998  0.1739
30609W        W47456   0.281   7.666  13.058  0.1039 -0.1088 -0.0767
30610W        W47457  11.113   3.414   4.720  0.1070 -0.2471  0.0649
30611W        W47458  17.388   9.779   0.201 -0.3257 -0.2072 -0.2701
30612W        W47459  14.542   5.029  13.741 -0.1352  0.1127  0.0313
30613W        W47460   4.126  16.117  12.904  0.0802  0.0475  0.0067
30614W        W47461  15.999  12.605  14.495 -0.0543 -0.1803  0.1385
30615W        W47462   3.777  16.042  13.637  0.3953  0.0531  0.2232
30616W        W47463   6.263   3.563  14.685  0.0327 -0.0156  0.2398
30617W        W47464  15.249   6.447  15.074  0.2231 -0.1858  0.0193
30618W        W47465  12.190   5.555  12.871  0.1026 -0.0681 -0.2349
30619W        W47466   3.954   6.341  11.937 -0.1790  0.3166  0.0406
30620W        W47467   7.958   2.241   0.441  0.0426 -0.1188  0.0962
30621W        W47468  14.800   4.747  13.382  0.0923  0.1985 -0.0986
30622W        W47469  10.627   3.380  14.147 -0.0752 -0.1478  0.1564
30623W        W47470  10.450  18.202  11.034  0.0488  0.1402 -0.2283
30624W        W47471  10.410  15.409   0.811 -0.0150  0.3436  0.0367
30625W        W47472   0.497  13.546   5.346  0.0552 -0.0557  0.1055
30626W        W47473   8.826   4.255   2.220 -0.2496  0.0142 -0.0177
30627W        W47474   6.049   0.245  12.875  0.0763  0.0336 -0.1577
30628W        W47475  14.050   6.984   1.961  0.1158 -0.2850  0.0962
30629W        W47476   3.685  17.732  12.834  0.1262  0.0688  0.0184
30630W        W47477   2.653  10.455  10.637 -0.2240  0.1496 -0.2321
30631W        W47478   6.203  16.722  14.976 -0.3622  0.4963  0.0105
30632W        W47479   8.281   3.759   1.835  0.0552 -0.0524 -0.2560
30633W        W47480   4.299   4.530   2.169  0.0322 -0.0214 -0.3065
30634W        W47481   4.353  12.452   4.458  0.0981  0.1382 -0.1332
30635W        W47482  14.680   1.574   0.108  0.1362 -0.3387  0.1306
30636W        W47483   1.994   1.509   5.005  0.3644  0.2810 -0.1876
30637W        W47484   1.542  16.083   5.151  0.0619  0.2147  0.2452
30638W        W47485   8.660  16.124  12.347  0.0920  0.0718 -0.0512
30639W        W47486  11.177   6.332   5.273  0.1574 -0.0350  0.1097
30640W        W47487  14.737   8.038  15.452 -0.0330  0.2305 -0.0251
30641W        W47488  12.339   5.668   0.177 -0.1804 -0.0477  0.2602
30642W        W47489   2.130  10.812   3.629  0.2612 -0.1132 -0.2684
30643W        W47490   6.392  12.865  11.746  0.1041 -0.3396  0.2715
30644W        W47491  17.754  15.689  14.326 -0.1761 -0.1548 -0.4038
30645W        W47492  15.310  10.912  11.082 -0.1131  0.0877  0.2637
30646W        W47493  11.005  17.119   4.856 -0.1193  0.2195 -0.0027
30647W        W47494  13.136   7.685  14.133  0.1965  0.2213 -0.0695
30648W        W47495   4.932   7.063   4.322 -0.0236 -0.1951  0.0967
30649W        W47496   8.494  17.949   1.814  0.2339  0.1364 -0.2271
30650W        W47497   8.035  14.420  13.237  0.0483  0.2724 -0.1309
30651W        W47498   3.962  17.724  11.915  0.1805  0.4629 -0.0285
30652W        W47499  15.535  14.283  13.656  0.0719 -0.1038  0.1852
30653W        W47500   0.519   7.023  11.922 -0.1253 -0.0871  0.0170
30654W        W47501   6.867   7.573   0.650  0.1075  0.0577 -0.0753
30655W        W47502  12.335  12.881   0.053  0.1284 -0.2758  0.0306
30656W        W47503   2.607   3.166  11.533  0.1430  0.1212 -0.0243
30657W        W47504   7.396   4.494   4.868  0.5106 -0.1735  0.1951
30658W        W47505   0.103   5.463   3.416 -0.4506  0.0714  0.2530
30659W        W47506   5.020  10.254  14.095  0.1292  0.0778 -0.1452
30660W        W47507   4.960   8.057  15.173 -0.5273 -0.1624  0.1196
30661W        W47508  15.328   1.503   1.381  0.0265  0.0475 -0.0672
30662W        W47509  10.670  17.718   5.628  0.1869  0.0150  0.2017
30663W        W47510   8.454   2.844   3.563 -0.2286 -0.1624 -0.0115
30664W        W47511  15.917  17.753   2.317 -0.0617 -0.0802  0.0502
30665W        W47512  10.505  12.803  13.392 -0.3231 -0.0662  0.0474
30666W        W47513   5.532   9.049   0.706 -0.1001 -0.2657  0.0830
30667W        W47514  14.260   1.588  13.552 -0.1313  0.0508 -0.0779
30668W        W47515   9.338   7.627  14.771 -0.0171  0.0515  0.0343
30669W        W47516  11.267  12.901  14.219  0.0456 -0.0317  0.1261
30670W        W47517   1.571   1.679  14.414  0.1443 -0.0615  0.1136
30671W        W47518  17.637   8.604  13.063  0.0531  0.4028  0.0717
30672W        W47519   2.328   1.238  11.686  0.2591  0.1510 -0.4997
30673W        W47520  12.472   1.983   4.355 -0.1211  0.1803 -0.1535
30674W        W47521   6.134  15.172  13.298  0.1569 -0.2229 -0.1814
30675W        W47522  18.105   6.498  15.823 -0.1163 -0.4357 -0.4401
30676W        W47523   8.909  15.011   4.972 -0.0181  0.1991  0.1481
30677W        W47524  12.492  13.824   2.900 -0.1112  0.1109  0.0346
30678W        W47525   0.006   0.635  13.148 -0.3358  0.2811 -0.1405
30679W        W47526   2.767  14.261   4.921 -0.3944 -0.1184  0.2602
30680W        W47527   7.570   7.789   3.544 -0.0357  0.3276  0.0514
30681W        W47528   9.010   3.066   1.477  0.1045 -0.0180  0.2568
30682W        W47529  13.891   3.344  10.939 -0.1300 -0.1254  0.3018
30683W        W47530   5.725  14.461   1.256  0.1105 -0.1013  0.0048
30684W        W47531   8.722   5.373  13.346 -0.1063  0.0988  0.2365
30685W        W47532   9.522   5.368  13.826 -0.0330 -0.3249 -0.1261
30686W        W47533  10.928   8.515   0.818  0.1465 -0.0246  0.0075
30687W        W47534   2.542   2.527   5.464 -0.0142 -0.0817  0.2216
30688W        W47535  11.943  15.876  14.826 -0.1808 -0.0051 -0.2235
30689W        W47536   1.325  16.343  14.594 -0.1057 -0.4365  0.0677
30690W        W47537   0.245  12.015   0.527  0.0290 -0.0594  0.1872
30691W        W47538   2.339   2.575  11.724  0.0226 -0.0485 -0.0322
30692W        W47539   5.688   3.103  14.748  0.1213  0.2691  0.1753
30693W        W47540   0.301  17.319   2.778 -0.1635  0.0352 -0.0134
30694W        W47541  15.522   3.299   5.120  0.0443 -0.1547  0.0699
30695W        W47542  17.086   1.462   4.928 -0.3350  0.0359  0.4082
30696W        W47543   6.436  14.373  14.240 -0.0069  0.1562  0.1662
30697W        W47544  12.561  12.194  13.476  0.1607  0.2487  0.1277
30698W        W47545   9.612  16.181  11.916  0.0413  0.3808 -0.2666
30699W        W47546   1.860   3.111  15.715 -0.2748  0.4017 -0.0280
30700W        W47547  16.117   1.168   1.403 -0.0608  0.0929 -0.0450
30701W        W47548   7.929   6.977   5.652 -0.2013  0.1429  0.0643
30702W        W47549   0.608   0.480  12.377  0.0814 -0.0050 -0.3927
30703W        W47550   0.775  12.178  14.909  0.0103  0.0638  0.0738
30704W        W47551  11.240   4.145   3.822 -0.1153  0.4021  0.1097
30705W        W47552   7.265   8.025  13.871  0.1511  0.2003 -0.0930
30706W        W47553   3.435   8.472  12.019 -0.0500 -0.1468  0.0985
30707W        W47554  15.890  13.657   2.521  0.1634 -0.2876  0.2188
30708W        W47555  12.155   5.598   1.469 -0.0085 -0.2153  0.3903
30709W        W47556  17.661   3.074  13.736  0.1523 -0.1214 -0.3880
30710W        W47557   7.654  17.146  15.268 -0.0064  0.1922  0.0824
30711W        W47558  14.121  14.511   2.532  0.0989  0.1871 -0.1546
30712W        W47559   4.137   6.553   2.578 -0.0382 -0.0669 -0.0081
30713W        W47560   5.540   4.861  13.224  0.3645  0.0349  0.0375
30714W        W47561   1.833  17.236   2.140  0.0666  0.0796  0.5082
30715W        W47562   8.617  13.666   1.540 -0.0869  0.3862  0.2660
30716W        W47563  12.908   7.635  12.245  0.2134  0.2576 -0.0324
30717W        W47564  10.965  17.448  16.043 -0.2985 -0.2764  0.0262
30718W        W47565  15.433   1.865   5.033 -0.2400  0.1451  0.0344
30719W        W47566   8.958  13.464   3.908 -0.6661 -0.1664  0.1596
30720W        W47567   3.267  12.896   2.966 -0.0005 -0.2848  0.2292
30721W        W47568   3.504   0.046   5.366 -0.4142  0.1169  0.1730
30722W        W47569   4.309   3.874   3.604  0.0154 -0.1377  0.0120
30723W        W47570   2.778   8.823  14.635 -0.1969  0.0221 -0.1735
30724W        W47571   6.671   5.943   0.155 -0.1622  0.1860  0.0646
30725W        W47572   6.592  16.345   2.982 -0.0424  0.3627 -0.0730
30726W        W47573  18.201  14.890   0.966 -0.0246  0.5484  0.0848
30727W        W47574   1.330  16.684   4.110 -0.0016 -0.0029 -0.0229
30728W        W47575   1.924  10.997  13.118 -0.1053 -0.1089 -0.2407
30729W        W47576   4.292  13.389   0.852 -0.0826  0.1111 -0.0470
30730W        W47577  11.721   1.464  12.658  0.2968 -0.1078 -0.0915
30731W        W47578   5.707  13.074  11.456  0.2722  0.0335 -0.3220
30732W        W47579  17.246   4.509   2.352 -0.1855 -0.0591  0.1612
30733W        W47580   1.357   7.810  13.973 -0.1172 -0.0379 -0.0358
30734W        W47581  14.949   8.921  10.972  0.2655  0.0754 -0.1624
30735W        W47582  13.492   1.284   0.441  0.0411 -0.1828 -0.0788
30736W        W47583   8.595  11.352   6.235  0.0927  0.2136 -0.1768
30737W        W47584   7.750  14.698   4.903  0.0602  0.3078 -0.1906
30738W        W47585  10.851   8.558   4.654 -0.2520 -0.1579  0.0118
30739W        W47586   2.727  13.154   2.112  0.0723 -0.0216 -0.0629
30740W        W47587  18.045   9.393   2.386 -0.0958  0.0179 -0.0647
30741W        W47588   7.930   1.060  13.787 -0.0893 -0.1638 -0.0612
30742W        W47589   8.973  14.848  15.140 -0.0743  0.0051 -0.3368
30743W        W47590   9.048   0.233  13.544  0.0133 -0.0932 -0.0475
30744W        W47591  15.622  15.254  13.560 -0.1364 -0.2967 -0.0067
30745W        W47592   1.018  16.111  15.076  0.0745  0.3309  0.3401
30746W        W47593  16.599   0.205  15.841  0.0970  0.3353  0.1295
30747W        W47594  16.203   8.958  15.764 -0.0827  0.0916  0.1357
30748W        W47595   6.506   4.908   4.862  0.2173  0.0954  0.4182
30749W        W47596   1.584  13.104   0.198  0.0248 -0.1078  0.0789
30750W        W47597  13.753   9.994   4.982 -0.1613  0.0790 -0.4031
30751W        W47598   8.776   6.659  12.098  0.2413  0.1811  0.1554
30752W        W47599  17.150  16.134  11.610 -0.1944  0.0002  0.1861
30753W        W47600   1.393   0.489   1.567 -0.0177 -0.0008 -0.0237
30754W        W47601   3.144  16.654   3.096  0.0023  0.1306  0.2675
30755W        W47602  14.423  12.335   0.668  0.1175  0.0685  0.2899
30756W        W47603  10.653  13.526  14.956  0.0082 -0.0359  0.0253
30757W        W47604   3.894  15.690  11.844  0.1273 -0.1231  0.1765
30758W        W47605   2.804  14.930   1.189  0.2439 -0.1529  0.0239
30759W        W47606   0.331   0.079   1.826  0.0712 -0.1176 -0.1929
30760W        W47607   4.800   1.457  15.704  0.1517 -0.1315  0.1289
30761W        W47608  16.715   3.608  12.918 -0.0552  0.0013 -0.1955
30762W        W47609   6.363  15.979   2.185 -0.3321 -0.1279 -0.3861
30763W        W47610  12.374  16.181   0.431  0.1242 -0.0937  0.1806
30764W        W47611   7.893   1.487  11.345 -0.3630 -0.0061  0.0086
30765W        W47612   6.645  12.820   3.529  0.0807  0.1216  0.0776
30766W        W47613   8.755  17.922   5.434  0.2289 -0.0718  0.0967
30767W        W47614  15.408  10.517  14.154 -0.1814  0.0551  0.2289
30768W        W47615   6.232   5.888  14.564 -0.0039  0.0357  0.2092
30769W        W47616   9.980   3.761  15.571 -0.0245  0.3798  0.3121
30770W        W47617  12.435  11.125   2.375  0.0778 -0.0820  0.1227
30771W        W47618  16.925   5.819   2.913  0.3059 -0.0065  0.1583
30772W        W47619   1.187   6.066   3.110 -0.0672  0.0950 -0.1922
30773W        W47620  10.614   9.452   5.042 -0.1146 -0.0150  0.0113
30774W        W47621   0.012   9.510   0.885  0.1380 -0.0808  0.2817
30775W        W47622   9.238  10.505   2.104  0.0055  0.5807  0.1907
30776W        W47623   2.086   8.179  13.078  0.0801  0.2594  0.1434
30777W        W47624   9.477   1.241   2.945  0.1539 -0.0107 -0.0498
30778W        W47625  14.672  12.033  12.323 -0.1420  0.0426 -0.0777
30779W        W47626  16.345   6.152  12.270  0.0017 -0.2149  0.0791
30780W        W47627   2.999   5.003   1.024  0.2067  0.0432  0.0510
30781W        W47628  14.217   0.055  14.226  0.1110  0.0313 -0.0873
30782W        W47629  14.223  12.320  15.075 -0.3212  0.3293 -0.1549
30783W        W47630   9.389  12.294   0.459 -0.0694 -0.1766 -0.0818
30784W        W47631   3.278   8.737  11.513  0.0567  0.1937 -0.0152
30785W        W47632   8.000   2.526   4.222  0.1223 -0.0810  0.1325
30786W        W47633   4.044   3.921  11.557 -0.0726  0.1296 -0.0682
30787W        W47634  11.402   5.403   0.442 -0.1711 -0.3530  0.0384
30788W        W47635  15.240   9.678   3.637  0.0087  0.1106  0.1525
30789W        W47636   7.352  14.028   3.253 -0.0988  0.2053  0.3053
30790W        W47637   6.517   3.524   0.253  0.0089 -0.2600  0.4335
30791W        W47638  11.724  11.769  14.737 -0.0106 -0.0597 -0.0449
30792W        W47639   1.506  14.076  16.085 -0.2223 -0.3346 -0.0043
30793W        W47640  13.178   0.092   0.524 -0.0217 -0.0611  0.1401
30794W        W47641  15.032   5.491   9.768 -0.1244 -0.2217 -0.2394
30795W        W47642   1.794   3.673  12.026  0.0165 -0.0993  0.2072
30796W        W47643  16.209   7.836   1.805 -0.2942  0.1030 -0.0483
30797W        W47644  12.510   2.959   3.305 -0.0809  0.1055 -0.0380
30798W        W47645  15.093   8.733  14.725 -0.0405 -0.4708  0.0128
30799W        W47646  12.777   2.854   4.418  0.1067 -0.0927 -0.0382
30800W        W47647   5.279  12.918   5.276  0.0586 -0.0134  0.0324
30801W        W47648   2.372   1.712   5.219  0.0851 -0.0078  0.0003
30802W        W47649   9.926   7.974  11.540  0.0451 -0.2034 -0.0205
30803W        W47650  16.710  18.151   2.667 -0.1234 -0.0617  0.0312
30804W        W47651   4.861   2.211  14.184  0.1790 -0.1851 -0.1823
30805W        W47652  11.076  13.349  14.042 -0.0750 -0.0495  0.0518
30806W        W47653   5.877  12.838  15.435 -0.0084  0.1048  0.1131
30807W        W47654   4.221   8.194   4.534 -0.0605 -0.0021 -0.2251
30808W        W47655  16.847  15.479   4.347  0.1142  0.1528  0.0073
30809W        W47656   7.154  15.550   1.970  0.2163  0.0385  0.2296
30810W        W47657  12.305  17.097  14.306 -0.0541 -0.1171 -0.2327
30811W        W47658   7.560  13.356  15.448  0.2263 -0.0834  0.0355
30812W        W47659  15.612  17.047   0.969 -0.1644 -0.1590 -0.2723
30813W        W47660   9.349  11.976  13.451 -0.2310  0.0718  0.0030
30814W        W47661  15.857   5.377  11.946  0.0707 -0.1283 -0.0914
30815W        W47662   0.457   7.825   2.430  0.0842 -0.0585  0.2352
30816W        W47663   1.930   2.035   0.437  0.1040  0.3379 -0.0781
30817W        W47664  10.339   7.206   2.916 -0.0972  0.3271  0.0857
30818W        W47665  11.904   4.655   5.666  0.0163 -0.2208 -0.0175
30819W        W47666   9.884   9.457   4.215  0.2501  0.1380 -0.1266
30820W        W47667   4.785   9.337  10.547  0.0785 -0.1751  0.2092
30821W        W47668  15.238   8.837   0.444  0.0368  0.3351 -0.1675
30822W        W47669   6.019   0.323   4.899  0.2095 -0.1542 -0.3507
30823W        W47670   2.950   8.805   6.287 -0.0010  0.0528 -0.0765
30824W        W47671   4.177   5.757  12.285  0.0212 -0.2754  0.2544
30825W        W47672   2.395   5.015  15.884 -0.0320  0.0791  0.1884
30826W        W47673   1.181   0.169   3.044  0.0177  0.1098  0.1191
30827W        W47674  15.766   5.772  13.924 -0.0524  0.0580 -0.0234
30828W        W47675   6.029   1.449  15.096 -0.1062  0.5925  0.0800
30829W        W47676   1.303   1.462  11.335  0.2697 -0.1330  0.1004
30830W        W47677   6.387   8.435  15.641  0.1196 -0.1694 -0.0467
30831W        W47678   7.092  12.759   0.763 -0.1359 -0.2371 -0.1965
30832W        W47679  12.320   7.924   3.696 -0.2643 -0.3411 -0.1028
30833W        W47680  16.737   2.373   0.295 -0.2257  0.0860 -0.4218
30834W        W47681  17.758  13.120   2.070 -0.0111 -0.3816  0.0768
30835W        W47682  16.274  10.020  14.806 -0.2175 -0.1337 -0.0074
30836W        W47683  11.458  12.583  13.854 -0.0747 -0.0719  0.2976
30837W        W47684   9.073   3.575  14.398 -0.1215 -0.1756 -0.0353
30838W        W47685   4.890   4.281  11.709 -0.1205  0.0439 -0.1046
30839W        W47686   5.791   6.971   0.300  0.0763  0.1428  0.1443
30840W        W47687   5.845   6.135   1.166  0.1274  0.2301  0.0798
30841W        W47688  14.107   6.234  13.793 -0.0658 -0.1737 -0.0124
30842W        W47689   8.893  11.089   3.916  0.1880 -0.0332  0.0325
30843W        W47690   2.295   1.962  14.047  0.1291 -0.0191  0.2495
30844W        W47691  10.005  10.318  14.823 -0.0806 -0.2931  0.0691
30845W        W47692   5.254   1.101  13.334  0.0833 -0.0151 -0.2166
30846W        W47693   3.964   8.303  14.944 -0.0904 -0.1068  0.1746
30847W        W47694   8.062  11.950  15.465  0.2066 -0.0876 -0.0347
30848W        W47695   3.364   0.599   3.654  0.1058 -0.0852  0.1926
30849W        W47696  16.007  15.527   3.294  0.0542  0.1180 -0.4807
30850W        W47697  13.708   8.635  11.667  0.3500 -0.0957  0.0897
30851W        W47698   4.480  11.056   3.711 -0.3259 -0.0321 -0.0895
30852W        W47699   7.806   4.960  12.626  0.2857  0.1984 -0.1297
30853W        W47700   8.164  12.834  12.198 -0.0140 -0.2702 -0.1412
30854W        W47701  13.291   7.258  12.269  0.1227 -0.1670  0.1227
30855W        W47702   8.562   1.611   4.209  0.1641  0.5343 -0.2130
30856W        W47703   5.631   2.577  14.854  0.1104 -0.0186  0.0466
30857W        W47704   9.907   4.574  14.606 -0.2809 -0.1843  0.1013
30858W        W47705   4.767  13.206  15.056 -0.1785  0.0671  0.0146
30859W        W47706   3.929  15.966   3.582 -0.1779  0.0433 -0.1825
30860W        W47707   0.780   9.563  12.162 -0.4439  0.2082  0.3569
30861W        W47708  14.542   1.247   2.731  0.0360 -0.1707 -0.0507
30862W        W47709   9.553   5.425  13.299  0.3474 -0.1493  0.0228
30863W        W47710   8.764   3.929  14.519 -0.0404  0.0547  0.0057
30864W        W47711   0.812  15.418   2.274 -0.0316 -0.3286 -0.0077
30865W        W47712  18.075   4.022  15.083 -0.2710  0.0437  0.0364
30866W        W47713   3.693   1.199  16.004 -0.2156 -0.1308  0.0994
30867W        W47714  13.233   5.322   4.927  0.0128  0.1190 -0.2737
30868W        W47715   9.926   9.454  13.939 -0.0628  0.1528  0.0070
30869W        W47716  16.973   7.155  14.575 -0.2937 -0.1879 -0.1435
30870W        W47717  13.397   5.500  15.669  0.0898  0.0043 -0.0016
30871W        W47718  12.731  16.159  15.696 -0.0101 -0.1197 -0.1571
30872W        W47719   9.093   5.216   4.359  0.0831 -0.1889  0.0961
30873W        W47720  14.730  13.345  12.910  0.2146  0.0802 -0.1903
30874W        W47721  12.706  12.816   2.518 -0.0243  0.2913  0.0315
30875W        W47722   0.220  17.889   3.567 -0.2322 -0.0081  0.0434
30876W        W47723   8.457   4.266   3.988 -0.1014 -0.4659  0.0935
30877W        W47724   1.244  10.189   4.161 -0.0042  0.1058  0.0281
30878W        W47725  12.501  13.478  12.726  0.0911 -0.3287  0.1992
30879W        W47726   9.379   4.908  12.533  0.1961 -0.0641 -0.0785
30880W        W47727   1.968  12.930  14.880 -0.1080  0.2347 -0.0337
30881W        W47728   2.405   6.933  11.670  0.0353 -0.1113 -0.3829
30882W        W47729   4.885  13.496  15.600  0.4223  0.0361  0.3389
30883W        W47730  17.913   3.303   2.294 -0.2637  0.1926 -0.3181
30884W        W47731   5.675   3.637  14.569 -0.0641 -0.0470  0.2081
30885W        W47732  15.349   4.767   4.051  0.0405  0.1523  0.1902
30886W        W47733  15.126   1.308   0.003 -0.0754 -0.2609 -0.0587
30887W        W47734   9.987   9.772  10.338 -0.1634 -0.2433 -0.3087
30888W        W47735   6.263   7.660  14.918 -0.1407  0.0145 -0.1275
30889W        W47736   8.542   1.684  10.545 -0.2527 -0.1859  0.1593
30890W        W47737   3.624  13.679   3.729  0.0818 -0.2237  0.0737
30891W        W47738   5.183  13.970   1.861  0.1238 -0.0906 -0.0035
30892W        W47739  13.506  16.571   1.966 -0.2894  0.2835 -0.0154
30893W        W47740  15.663   6.366  14.683 -0.1899 -0.1000 -0.0294
30894W        W47741   0.645   9.297  13.427 -0.0007 -0.0388 -0.0345
30895W        W47742  13.412  11.175   0.510  0.1251 -0.2718 -0.2267
30896W        W47743   2.749   4.468  13.667  0.0731 -0.0961  0.0165
30897W        W47744   8.566   3.068   0.218  0.1301  0.2515  0.1917
30898W        W47745  16.689  15.181   0.325 -0.3746 -0.2629  0.0844
30899W        W47746  10.243   0.689  15.427 -0.0604  0.0515  0.1583
30900W        W47747  13.110   3.134   3.215 -0.1442 -0.3943  0.2052
30901W        W47748   8.349  12.881   0.243  0.2026 -0.2497  0.2743
30902W        W47749   8.903  11.453   2.529  0.1917 -0.0955  0.0395
30903W        W47750  12.771  12.754  12.000  0.1035 -0.0147  0.0467
30904W        W47751  17.007  16.345   5.979 -0.2690 -0.1952  0.1788
30905W        W47752   5.178  10.212  15.502  0.0235  0.2445  0.0072
30906W        W47753   1.552   9.102  13.800 -0.0008  0.1255 -0.2638
30907W        W47754  14.404  15.361   1.844  0.3074 -0.2027  0.0915
30908W        W47755   5.150   1.763   0.867 -0.0768  0.3296  0.2213
30909W        W47756   0.712   3.227  11.325 -0.0021 -0.2120 -0.0764
30910W        W47757   7.838   3.409   2.800 -0.0252  0.1416  0.2962
30911W        W47758  10.675  18.308  11.968  0.2533 -0.1497 -0.1074
30912W        W47759   5.609   8.291   0.758  0.0363 -0.3985  0.0256
30913W        W47760   8.994  14.242  13.871  0.1144 -0.0703 -0.3332
30914W        W47761  14.002  14.190   2.891 -0.1830  0.1088 -0.1515
30915W        W47762   4.894  10.843  15.579  0.0589  0.0183 -0.1708
30916W        W47763  15.484   1.420  13.549  0.0957  0.0719 -0.0229
30917W        W47764   0.880   8.672  11.780 -0.0258  0.1200 -0.0014
30918W        W47765   5.485  15.307   6.101  0.2067  0.4537  0.0003
30919W        W47766   8.235   2.799  12.640  0.1146 -0.1332 -0.1093
30920W        W47767  14.204   4.193  15.419 -0.2564  0.2806  0.3539
30921W        W47768  18.080   8.403   1.122  0.0884 -0.2008 -0.3372
30922W        W47769   6.373   6.892   3.447  0.2795  0.0180  0.1383
30923W        W47770   5.054   4.826  13.468 -0.0607 -0.0548 -0.3756
30924W        W47771  10.317   2.958  15.050 -0.0867  0.1551 -0.2539
30925W        W47772   3.023   3.619  15.756 -0.0783 -0.2400  0.0760
30926W        W47773   1.004   7.003  11.982 -0.1916 -0.1194  0.0433
30927W        W47774   6.359   4.231   3.195  0.1508 -0.1920  0.1553
30928W        W47775   1.922  14.510  15.464 -0.2437  0.1450 -0.0218
30929W        W47776  11.079  10.667  13.025 -0.1205 -0.0419  0.2732
30930W        W47777   7.538   1.557   0.847  0.1005  0.1289  0.3212
30931W        W47778  12.971   5.306  12.112 -0.1879 -0.0679 -0.0240
30932W        W47779  13.197   3.762  13.593 -0.1632  0.1014 -0.2085
30933W        W47780  11.435   5.765  14.453  0.1340 -0.1018 -0.3846
30934W        W47781  13.283   2.776  14.871 -0.1784  0.2376 -0.1798
30935W        W47782   0.920  16.806  12.467 -0.0717 -0.1367  0.0521
30936W        W47783  12.589   0.570  11.428 -0.1267 -0.1680 -0.0419
30937W        W47784   2.181  14.560  13.509  0.0875  0.1501 -0.0623
30938W        W47785   4.389  10.073   4.079  0.0310  0.2012  0.1538
30939W        W47786   0.925  14.799  11.018 -0.1816 -0.2025 -0.0685
30940W        W47787  13.801  14.512  12.217  0.0978  0.5362 -0.0338
30941W        W47788   8.283   4.020  14.377 -0.2976  0.2739  0.1372
30942W        W47789  14.048  11.989  14.142 -0.0117  0.1701  0.1710
30943W        W47790  12.514  11.172  15.927 -0.1780  0.0828  0.0362
30944W        W47791   6.179   6.484  11.227  0.2568 -0.4691  0.4303
30945W        W47792  17.356   1.016   4.855  0.1902 -0.3878  0.1832
30946W        W47793  16.891   3.564  11.877  0.1922  0.3259  0.1700
30947W        W47794   8.546   6.702   2.551 -0.2091 -0.2343  0.0283
30948W        W47795   6.563  13.844   0.458  0.0164 -0.1502 -0.1579
30949W        W47796  11.620  17.940  12.742  0.2079 -0.2298  0.2001
30950W        W47797   7.998   5.569   2.953  0.0975  0.0052 -0.2739
30951W        W47798   7.053  14.085   1.168  0.1269  0.4600 -0.0234
30952W        W47799  14.044   1.472   0.382  0.3240 -0.2477 -0.0392
30953W        W47800  13.859   4.547   4.542  0.1425 -0.2995 -0.1531
30954W        W47801   4.815   8.080   3.398  0.0030  0.0685  0.0924
30955W        W47802   5.567  17.597  14.350  0.2006  0.0548 -0.0528
30956W        W47803   5.194   0.731   1.580 -0.0922 -0.3485 -0.0878
30957W        W47804  13.759  17.840   2.394 -0.0532 -0.0711  0.0708
30958W        W47805  10.808   1.870  10.777  0.2189  0.1341 -0.0348
30959W        W47806  13.692  17.415  14.110  0.0099 -0.1385 -0.1080
30960W        W47807  17.296  12.143  13.259  0.0939  0.0390  0.0847
30961W        W47808  15.967  11.096   1.000 -0.0524 -0.1017  0.0301
30962W        W47809   1.397   2.585   2.244  0.0655 -0.0026  0.1808
30963W        W47810   5.228   4.432   1.743 -0.0689 -0.1403  0.1424
30964W        W47811  11.487  16.465   4.092 -0.0413 -0.1082 -0.0350
30965W        W47812  15.803  12.362   4.420 -0.0970  0.2473 -0.0146
30966W        W47813  12.251  15.593   4.635 -0.0827 -0.0619 -0.0922
30967W        W47814  13.106   2.394   3.273 -0.2563 -0.1250 -0.2033
30968W        W47815  13.824  12.045   4.980 -0.0920 -0.1699  0.1387
30969W        W47816  12.009   0.900   3.430  0.1351  0.1588  0.0345
30970W        W47817  12.475   8.193  16.134  0.0102  0.2305 -0.0029
30971W        W47818  18.177   9.909  11.479  0.1893  0.3006  0.0112
30972W        W47819   4.049   5.992   4.541 -0.0741  0.0199 -0.0390
30973W        W47820   0.638   6.358   2.698 -0.1023 -0.1249  0.0630
30974W        W47821  13.427   9.030  11.441  0.0864 -0.0794  0.3073
30975W        W47822   4.255   5.281   4.244 -0.1205  0.1793  0.0775
30976W        W47823   2.317   6.622   3.542  0.0382 -0.1729  0.2680
30977W        W47824  12.729   8.937   2.794 -0.0594 -0.0648 -0.0069
30978W        W47825   4.616   0.764  13.824  0.1882  0.3119 -0.0841
30979W        W47826   9.651   8.237   3.208  0.0552  0.1354  0.0713
30980W        W47827  17.783   3.372  15.039  0.0693  0.1412 -0.2162
30981W        W47828  16.969   7.888  12.955 -0.0405 -0.0910  0.0045
30982W        W47829   9.483   4.780   1.468  0.3047  0.2665  0.0075
30983W        W47830  11.298  10.517   4.479  0.1488  0.1081  0.3023
30984W        W47831   6.993   5.946  14.937 -0.0786  0.1543 -0.0724
30985W        W47832  17.657  11.811  13.434 -0.2611 -0.2651  0.1470
30986W        W47833  10.247   9.897  14.926  0.2129  0.0670  0.2488
30987W        W47834   5.899  15.084  12.292 -0.2875  0.1324  0.0115
30988W        W47835   2.647   4.014   2.724  0.1915  0.3783  0.1276
30989W        W47836  15.946   5.407   3.500 -0.5484  0.0107 -0.0774
30990W        W47837   2.838   5.495  15.287 -0.1015  0.0534  0.4525
30991W        W47838   1.956  15.964   5.499 -0.1260  0.4101  0.3376
30992W        W47839  11.177   4.976   2.805 -0.2858  0.3615  0.3611
30993W        W47840  10.369  13.988  14.114 -0.1644 -0.3541 -0.2124
30994W        W47841   1.204  11.577  13.601  0.1372  0.0254 -0.2574
30995W        W47842   9.178   8.303  13.074  0.2960  0.2114  0.0750
30996W        W47843   8.999   7.783  13.594 -0.3190 -0.3199  0.0968
30997W        W47844  17.474  13.247  13.527 -0.3659 -0.2678  0.0630
30998W        W47845  14.487   7.640  12.784 -0.0542 -0.1246 -0.1603
30999W        W47846   5.876  12.055   5.194 -0.1919 -0.3834  0.1921
31000W        W47847  10.259  12.060   4.583  0.0397  0.1569 -0.0373
31001W        W47848  12.877  11.207   0.748 -0.0851 -0.2248 -0.0602
31002W        W47849  11.877   6.913  16.080  0.0507  0.1868  0.2646
31003W        W47850  16.311  13.332   5.946  0.2226  0.1812  0.1075
31004W        W47851   1.075  16.103  12.893  0.1056  0.1961 -0.2357
31005W        W47852  17.843  17.799  13.450 -0.0073  0.2014  0.4750
31006W        W47853   8.072  15.595   0.479  0.1438 -0.1822 -0.0739
31007W        W47854  16.033   9.594   3.495  0.0496  0.1711  0.2130
31008W        W47855   8.353   7.870   4.809  0.0880  0.1383 -0.1489
31009W        W47856   6.815  11.962  15.892  0.0625  0.0159 -0.1098
31010W        W47857   1.261   8.849  16.073  0.2768  0.1076  0.4110
31011W        W47858   5.680   5.734  16.080 -0.2549  0.0463 -0.1831
31012W        W47859   5.049   0.367  11.236 -0.0366  0.0677  0.3786
31013W        W47860   0.546  13.101   4.921  0.2511  0.1245 -0.0310
31014W        W47861  14.695  13.772   1.642  0.0875 -0.0271  0.1409
31015W        W47862   6.354  15.241  12.111  0.1832 -0.0150 -0.0285
31016W        W47863   0.805  17.720   1.616  0.0540  0.1696 -0.0919
31017W        W47864  10.025  14.905   5.521 -0.2232  0.3015  0.1557
31018W        W47865   0.806   9.492  14.793 -0.1575  0.0270 -0.0303
31019W        W47866   0.865  17.638  13.462  0.0843 -0.1475  0.0475
31020W        W47867  17.962  11.024   5.456 -0.2628 -0.3719  0.2308
31021W        W47868   6.299   6.798   4.701  0.1602  0.0373 -0.0453
31022W        W47869  17.460  12.363  14.661 -0.2920 -0.4849 -0.0626
31023W        W47870  17.428   7.274   2.288  0.3101 -0.1334  0.2608
31024W        W47871   7.074  12.372   1.969 -0.1697 -0.0184  0.0129
31025W        W47872   9.055  12.017  12.390  0.0354 -0.0246  0.0329
31026W        W47873   7.893   9.845   3.266 -0.0517 -0.0192  0.2127
31027W        W47874   1.573   4.170   5.258  0.0966  0.2776  0.0607
31028W        W47875   0.198   2.036  15.177 -0.2788 -0.2520  0.1708
31029W        W47876   1.294   3.614  12.073 -0.1175 -0.1816  0.3317
31030W        W47877   8.037  12.842   2.678  0.0538  0.1522 -0.0284
31031W        W47878  10.454   7.809   0.394 -0.2708 -0.2482  0.0891
31032W        W47879  12.550   3.972   2.492 -0.0942  0.1576 -0.0980
31033W        W47880   5.814   7.430   0.529  0.1252  0.2647  0.0301
31034W        W47881   4.001   9.084   4.228 -0.1771  0.1737 -0.0664
31035W        W47882  13.900   3.759  15.527 -0.2984 -0.4054 -0.1232
31036W        W47883  12.780   2.318  11.333  0.2121  0.1048 -0.0069
31037W        W47884   0.839   9.111  11.397  0.0491  0.0890 -0.2669
31038W        W47885   5.829   8.631   2.935  0.1272  0.0298  0.0274
31039W        W47886   1.962   5.487   1.599 -0.0111  0.1510  0.3238
31040W        W47887   2.124  14.254   2.225 -0.0348 -0.2194  0.3376
31041W        W47888   1.986  15.181  14.732 -0.1632 -0.0362 -0.0946
31042W        W47889  13.427  11.310  15.754  0.0187 -0.2145 -0.1953
31043W        W47890  11.887  17.168   5.199 -0.0030  0.2994  0.1863
31044W        W47891   8.562   0.294  15.641 -0.2291 -0.0158  0.2831
31045W        W47892   3.683  15.798  15.429  0.0714  0.0652 -0.0846
31046W        W47893   5.270   6.905   3.791 -0.1309  0.0717 -0.0985
31047W        W47894   6.194   1.676   1.766 -0.1858 -0.0573 -0.0835
31048W        W47895  11.974   9.910  11.583 -0.2225 -0.1208  0.1306
31049W        W47896  11.756   4.519  13.703  0.0764  0.3289 -0.3481
31050W        W47897   2.340  17.493  11.181 -0.0036 -0.0070 -0.0491
31051W        W47898  13.058   1.803  13.385 -0.0060  0.2668  0.1581
31052W        W47899   2.033   9.427  13.401 -0.0082  0.2539  0.1302
31053W        W47900   3.228  13.279  13.469  0.0476  0.1454 -0.0239
31054W        W47901   6.787  14.696   5.163 -0.2343  0.1414 -0.4697
31055W        W47902   0.279   2.995   5.000  0.1400  0.1481  0.1499
31056W        W47903  13.023  14.799  14.143 -0.0050  0.1177 -0.0505
31057W        W47904  16.251   1.558  13.471  0.2806 -0.3177 -0.3672
31058W        W47905  14.108   0.380   2.345  0.0212  0.0855  0.2077
31059W        W47906  17.846   9.365  11.405  0.0597 -0.0070  0.0202
31060W        W47907  12.220   9.070   2.754 -0.0061  0.3197  0.0743
31061W        W47908  15.148   4.240  15.969  0.2896  0.0284  0.0074
31062W        W47909  13.677   1.497   1.383  0.0328  0.1843  0.4258
31063W        W47910   0.884   8.623  13.195 -0.0751 -0.1719  0.2474
31064W        W47911  15.033  16.049   4.091 -0.1591 -0.0719  0.0622
31065W        W47912   3.678   2.075  11.372  0.2237 -0.0008 -0.2605
31066W        W47913   9.554   2.999  11.828  0.1528  0.0312  0.0405
31067W        W47914  17.644   4.504  13.166  0.2301  0.0122 -0.1993
31068W        W47915  12.962  17.219  16.042  0.1994 -0.0724  0.2661
31069W        W47916  16.669  12.079  14.519 -0.2239 -0.3019  0.1662
31070W        W47917   4.966   7.945   4.219  0.0043 -0.0456 -0.2973
31071W        W47918   6.229  10.532   5.889 -0.0710 -0.2001 -0.2250
31072W        W47919   5.821  10.984  13.412  0.0590 -0.0336 -0.1582
31073W        W47920   6.378   9.184   3.604 -0.0278  0.1306 -0.1888
31074W        W47921   5.668  17.016  15.290 -0.1193 -0.0249 -0.1164
31075W        W47922  12.319  10.566  10.576 -0.1544 -0.0368  0.1207
31076W        W47923  17.499  11.197   0.312 -0.0924 -0.1178 -0.2211
31077W        W47924   9.137  16.242  10.952  0.0569 -0.2914  0.1025
31078W        W47925   0.440   7.296   1.185 -0.1441  0.2666 -0.0557
31079W        W47926   0.067  11.333  16.038  0.3277  0.0051  0.1766
31080W        W47927   0.466  15.111   1.727 -0.1332  0.0862 -0.0716
31081W        W47928  11.894   1.443   2.919 -0.1576  0.1479  0.1231
31082W        W47929   1.548   7.307   4.133  0.0738  0.1404  0.2350
31083W        W47930  12.132   3.388   1.708 -0.4354  0.2272 -0.4892
31084W        W47931   0.986  18.119  15.893 -0.0883  0.0176  0.1871
31085W        W47932   7.589  11.614  13.482  0.0043 -0.0642  0.0261
31086W        W47933  15.072   0.586  13.624  0.0545  0.0322 -0.2653
31087W        W47934  13.997   6.069   3.471 -0.0866 -0.0920 -0.0755
31088W        W47935   3.080  12.525   5.209  0.0642 -0.1083 -0.2042
31089W        W47936   4.281   6.505  15.961  0.0259 -0.0626  0.1273
31090W        W47937  14.711  16.050   3.252  0.2111  0.2981 -0.0738
31091W        W47938   2.581  12.820   0.323 -0.0556 -0.0611  0.3071
31092W        W47939   1.768  14.700  11.433 -0.0331 -0.1113 -0.1612
31093W        W47940  13.699  16.091  15.161  0.0509  0.0832  0.2563
31094W        W47941   5.168   0.010  11.536 -0.2904 -0.0940 -0.1615
31095W        W47942   5.513   0.123   3.361 -0.1648  0.2972 -0.1470
31096W        W47943   0.748   4.935  13.415  0.3284  0.1146  0.0127
31097W        W47944   8.083   5.284   4.453  0.1506  0.0451  0.1967
31098W        W47945   4.686   1.816   5.706 -0.0611  0.1297 -0.1615
31099W        W47946  17.829  16.817  13.617  0.1298 -0.1686 -0.0918
31100W        W47947   4.761   8.779   1.072 -0.0687 -0.2064  0.1176
31101W        W47948   4.218  15.645  16.057 -0.0195 -0.0629 -0.1446
31102W        W47949  12.479   0.804   2.244  0.2168  0.2133 -0.1583
31103W        W47950  15.584  11.899  12.075 -0.0906 -0.0976  0.3055
31104W        W47951   8.241   2.281  12.006 -0.1613 -0.3410  0.2844
31105W        W47952   2.130  17.339   0.782 -0.1639 -0.0132 -0.1706
31106W        W47953   7.340  13.711   4.059 -0.1085  0.0239  0.1098
31107W        W47954   6.844   9.886   4.594  0.0363 -0.0435 -0.0329
31108W        W47955   9.186   7.409   5.589  0.2003 -0.2924  0.1757
31109W        W47956   4.826   5.143  11.976 -0.0687  0.2016  0.1613
31110W        W47957   1.033   9.246   1.932  0.2829  0.0143 -0.2161
31111W        W47958  16.878  10.290  15.830 -0.0719 -0.0207 -0.2275
31112W        W47959   3.318   5.293  15.397  0.0154 -0.1676  0.1421
31113W        W47960   0.059  14.095   2.063  0.2980  0.1107  0.1865
31114W        W47961  10.256   4.755  12.656  0.1972  0.0647 -0.1088
31115W        W47962   8.585  14.977   4.573  0.0769 -0.1879  0.1839
31116W        W47963  13.852  11.907  15.278  0.1646  0.1079 -0.0349
31117W        W47964   1.511   9.267   5.723  0.1205  0.0344 -0.4574
31118W        W47965   3.282   6.860   2.457  0.0302 -0.2182  0.0034
31119W        W47966  15.892  16.019  15.056  0.2037  0.0674 -0.0241
31120W        W47967   7.771  14.405  14.590 -0.1445  0.0504  0.0262
31121W        W47968   5.861   9.024   4.378  0.0499 -0.0580 -0.1802
31122W        W47969   6.060   7.814   3.119  0.0440  0.0628  0.1050
31123W        W47970   8.971   9.694   3.628  0.0345 -0.2613  0.1825
31124W        W47971  11.185   8.241   4.939  0.0227 -0.1670 -0.3031
31125W        W47972   2.253   2.934   4.114 -0.0129 -0.2449  0.1634
31126W        W47973   1.925  11.854   0.335 -0.1316 -0.1422  0.0477
31127W        W47974   3.112   3.466  13.385  0.0570  0.3012  0.0598
31128W        W47975   3.766   7.959   3.709  0.0414  0.1285 -0.1209
31129W        W47976  13.731  12.482  14.087 -0.0131 -0.0307  0.0681
31130W        W47977  11.116   0.989   3.600  0.0715  0.0207 -0.0911
31131W        W47978   5.243  15.544  12.754  0.3406 -0.0208  0.3477
31132W        W47979   1.103  17.084   0.402  0.1399 -0.2932 -0.1320
31133W        W47980   5.512  15.371   5.580 -0.2150 -0.3191 -0.0353
31134W        W47981   9.375  16.280   5.859  0.0327 -0.0319 -0.0479
31135W        W47982   0.630   2.778  11.250  0.0746 -0.0218 -0.0398
31136W        W47983  14.969  15.206   2.857 -0.0473  0.3990  0.2256
31137W        W47984  18.213   3.552   5.671 -0.0989  0.0970 -0.0030
31138W        W47985  11.903   8.395  12.767 -0.0648 -0.3048 -0.0634
31139W        W47986   8.563   0.406  14.118  0.2208 -0.0722  0.0777
31140W        W47987   9.417  15.693  14.098  0.0277 -0.0243  0.0845
31141W        W47988   9.557  18.022   0.890  0.2051  0.1740  0.1395
31142W        W47989   4.322  13.855   0.689 -0.1162 -0.0607 -0.1014
31143W        W47990   1.967   6.359   6.156  0.1343 -0.0409  0.0928
31144W        W47991   7.828  13.256   5.355  0.0744 -0.1476 -0.0587
31145W        W47992   9.823  13.977   4.170 -0.0293 -0.1713  0.1077
31146W        W47993   5.779  11.656   1.008 -0.0176 -0.2566  0.0071
31147W        W47994  11.645  10.476   2.670 -0.1714  0.2420 -0.1249
31148W        W47995  17.443   2.537  12.046 -0.0381 -0.2512 -0.0005
31149W        W47996   1.741   4.965   1.744 -0.2855 -0.1534 -0.1001
31150W        W47997   6.145   7.207   2.617  0.0052 -0.0723  0.0919
31151W        W47998  16.547  16.942  10.761  0.0087 -0.0132 -0.0181
31152W        W47999   5.230   7.085  14.125  0.0828  0.0279  0.1204
31153W        W48000  16.973  13.108   4.756  0.0108 -0.3678  0.2399
31154W        W48001   5.528   4.442  13.530 -0.2282 -0.1073 -0.1102
31155W        W48002   3.265  12.057  15.572  0.0176  0.0097  0.1384
31156W        W48003  13.565   0.722  15.517 -0.0722  0.2289  0.2849
31157W        W48004   0.588   7.619   4.426 -0.0349  0.0114 -0.1686
31158W        W48005  14.505   8.540  15.267  0.2846 -0.2173 -0.0731
31159W        W48006   4.051   0.334   5.211 -0.0406  0.2890 -0.3148
31160W        W48007  15.330  15.900  11.470 -0.2172  0.0197 -0.1915
31161W        W48008   5.466   2.864  13.835  0.2171 -0.1482 -0.0962
31162W        W48009   7.039   5.878  12.825 -0.0076 -0.0911 -0.2650
31163W        W48010  14.458  16.845   0.292 -0.1440  0.0190 -0.3553
31164W        W48011  14.488   3.874  13.747 -0.3130 -0.2047  0.1131
31165W        W48012   5.447   6.142   2.184  0.0399  0.0570  0.1381
31166W        W48013   1.029  15.556  12.839 -0.1057 -0.2535  0.0458
31167W        W48014   3.851   5.340   0.308  0.1446  0.1220 -0.1688
31168W        W48015   7.243   3.546  15.443 -0.2335 -0.4706 -0.1431
31169W        W48016  13.963  14.686  11.571  0.1527 -0.2171 -0.2759
31170W        W48017   4.328   4.112  13.288 -0.1228 -0.0219 -0.2963
31171W        W48018  15.358   0.372  10.818 -0.2434 -0.0612  0.0659
31172W        W48019  13.955  10.171  12.788  0.1458 -0.0260 -0.0302
31173W        W48020   4.825  12.061   5.161  0.1978  0.0608 -0.1621
31174W        W48021   2.913   3.475   4.226  0.0341 -0.1971 -0.1659
31175W        W48022   6.555   9.930  11.835 -0.0464 -0.1297  0.1277
31176W        W48023  11.693  16.377  13.971  0.2411  0.0109 -0.0382
31177W        W48024  10.729   0.211   4.530 -0.1382 -0.2675 -0.2817
31178W        W48025   2.727  11.696   5.256 -0.1188 -0.1688  0.0174
31179W        W48026   3.635   0.800  11.763  0.0087  0.0308 -0.0350
31180W        W48027  13.510  15.800   0.945 -0.0479  0.1119  0.1344
31181W        W48028  14.637   1.487  12.024 -0.3121 -0.1854 -0.0842
31182W        W48029   7.207   2.538   2.358  0.0843  0.0480 -0.2143
31183W        W48030   6.704  16.142  13.522 -0.0269  0.0210 -0.1952
31184W        W48031   2.010  10.475  11.329 -0.0243 -0.0184  0.0477
31185W        W48032  10.495   8.427   1.842 -0.1259 -0.0945  0.1118
31186W        W48033  15.785  13.420   5.658  0.0658 -0.1566  0.1092
31187W        W48034   8.295  14.195   4.062  0.0350  0.1527  0.0709
31188W        W48035  10.660  15.387  12.384 -0.3178  0.0502  0.2258
31189W        W48036  11.637   4.867  14.953 -0.1551 -0.0905  0.1532
31190W        W48037   2.321  16.052  14.292  0.1941  0.0485  0.1164
31191W        W48038   5.992  12.759  14.911 -0.1916  0.0840  0.4751
31192W        W48039  10.876  18.122  11.299 -0.1835 -0.0115 -0.1162
31193W        W48040  14.012   4.845  12.024 -0.1544  0.3013  0.0664
31194W        W48041   8.870   4.896  12.867  0.1302 -0.3802  0.1316
31195W        W48042  13.164  12.058   1.317  0.0795 -0.0075 -0.1173
31196W        W48043   2.515  15.665  13.023  0.1399 -0.1556  0.0748
31197W        W48044   8.496  12.562   2.965  0.1758  0.2547  0.3208
31198W        W48045   7.221   7.258   0.931 -0.1335  0.0859 -0.0182
31199W        W48046  10.424   9.514  13.866  0.1539  0.2520 -0.2519
31200W        W48047  15.688   8.934  12.437  0.0175 -0.1055 -0.1746
31201W        W48048  12.773  11.708  11.103 -0.2214 -0.1021  0.0135
31202W        W48049  17.995   0.243  11.846  0.0058  0.0526  0.0912
31203W        W48050  18.170  10.111   3.925  0.0538  0.0530 -0.0136
31204W        W48051  16.688   4.288   3.116  0.0015  0.1489 -0.4150
31205W        W48052  16.604   4.304   1.294 -0.0365 -0.0713 -0.1574
31206W        W48053  10.766  14.243   2.137  0.3572  0.2669 -0.0636
31207W        W48054  13.102  17.111   2.481 -0.0045 -0.1278  0.3553
31208W        W48055   4.930  16.167  15.436  0.1746 -0.2281  0.1213
31209W        W48056  15.092  10.935  14.243  0.0188 -0.1392 -0.0165
31210W        W48057   8.143   3.558  14.650  0.1154 -0.0527  0.1762
31211W        W48058   3.941   4.092  14.898 -0.0766 -0.1874  0.0370
31212W        W48059   5.362  15.384   5.098  0.1704  0.0081  0.0310
31213W        W48060  17.430   5.931   0.417 -0.1593 -0.1724 -0.2230
31214W        W48061  17.661   0.257  15.144  0.0349  0.1676 -0.0599
31215W        W48062   6.975   7.364  11.996 -0.2610 -0.0455 -0.3168
31216W        W48063   7.513  14.751   5.862 -0.1133  0.1904 -0.2712
31217W        W48064   3.821  12.654  11.571 -0.2741  0.1541  0.0220
31218W        W48065   2.214  14.584   3.383  0.0292 -0.1239  0.2697
31219W        W48066   2.436   4.405  12.002 -0.3082  0.4647 -0.1324
31220W        W48067  13.072  17.896  12.096 -0.1849 -0.3999  0.0591
31221W        W48068  16.262   9.136  13.683  0.0792  0.1642  0.0810
31222W        W48069   8.887  12.688  13.593  0.0080 -0.3322  0.0784
31223W        W48070  12.635   8.673   4.873  0.1137  0.3176  0.0697
31224W        W48071  17.109  14.590   3.430 -0.1485  0.0591  0.1367
31225W        W48072   3.764   4.502   0.428  0.3393  0.0232  0.0947
31226W        W48073   5.743  14.800   0.025 -0.0031  0.0141 -0.1727
31227W        W48074  16.325   1.862   3.325 -0.2605  0.2691  0.0873
31228W        W48075   5.300  15.351   3.968  0.1478 -0.2647  0.0818
31229W        W48076  13.749   9.355   0.167  0.0731 -0.2179  0.2316
31230W        W48077  16.170   1.061  15.713 -0.0148 -0.0626  0.1982
31231W        W48078  14.020   9.759  11.155 -0.1692 -0.5558  0.2398
31232W        W48079   8.028  11.319   4.315 -0.1647 -0.1822 -0.0207
31233W        W48080   3.080  15.137  14.824 -0.1734 -0.0367 -0.0716
31234W        W48081  14.934  16.577  15.191 -0.0508  0.1314 -0.4900
31235W        W48082   7.457  13.975   0.459 -0.1244  0.0091  0.1550
31236W        W48083  14.002  11.343   0.557  0.2280 -0.4983 -0.4106
31237W        W48084  13.759  12.913   0.668 -0.2862 -0.0516 -0.1681
31238W        W48085   2.767  17.970  12.763 -0.2005 -0.2632  0.0990
31239W        W48086  12.894   2.230   5.511 -0.1548  0.2151 -0.0235
31240W        W48087  17.841   4.991  13.522  0.0735  0.1723  0.0200
31241W        W48088  12.425   4.328   3.372 -0.2396  0.0804 -0.1904
31242W        W48089  16.270   2.910   2.922  0.1178 -0.1432  0.2040
31243W        W48090  10.811   1.762   3.993  0.0667  0.0462 -0.0656
31244W        W48091   4.155   9.723  13.979  0.1690 -0.1753  0.2511
31245W        W48092  15.743   9.897  15.441  0.1688  0.2001  0.0239
31246W        W48093  14.940   7.926   4.246 -0.1969  0.0635 -0.0768
31247W        W48094  16.670   8.669  13.096  0.1406  0.1373 -0.1149
31248W        W48095  16.829  12.783  14.725  0.1548  0.1013  0.5622
31249W        W48096   1.693   6.963  14.443 -0.1057  0.1992 -0.1530
31250W        W48097   9.926  10.009   5.226 -0.0774  0.0432  0.1697
31251W        W48098  14.118  13.045  15.817  0.0201  0.3300  0.3253
31252W        W48099  15.430  13.203   2.652 -0.0061 -0.0573  0.0532
31253W        W48100  17.347  17.054  15.950 -0.0750 -0.1246  0.3858
31254W        W48101   6.407  15.781   1.390  0.1346 -0.0848 -0.1500
31255W        W48102  17.157  12.924   0.939  0.1478 -0.2139 -0.0284
31256W        W48103  13.787  15.680  11.517 -0.5099 -0.2398 -0.0384
31257W        W48104  12.974  16.207   2.160  0.0895  0.0242 -0.0340
31258W        W48105   4.119  16.881   4.556 -0.0597  0.0351  0.1086
31259W        W48106   0.956  16.383  14.284  0.4582  0.1026  0.0150
31260W        W48107   2.248  13.691  14.336  0.1390 -0.1551 -0.1246
31261W        W48108   8.156  10.115   5.300  0.1707 -0.3015 -0.0873
31262W        W48109  13.617   6.536  12.986 -0.0102  0.0593 -0.0105
31263W        W48110   1.859   9.748   4.623  0.0181 -0.2212 -0.2163
31264W        W48111  17.117  16.591   3.363  0.1183 -0.0671  0.1552
31265W        W48112   6.595   4.376   2.783 -0.1181  0.0329 -0.2462
31266W        W48113  12.847   1.332   3.347  0.1706  0.0326  0.0903
31267W        W48114  12.254   4.254  11.954 -0.0362  0.3259  0.0463
31268W        W48115  12.731   9.151   4.822 -0.0824  0.0508  0.0140
31269W        W48116   5.078   7.679   5.353 -0.0035  0.3588  0.0062
31270W        W48117  12.834  14.661  12.177 -0.0704 -0.0592  0.1271
31271W        W48118   0.917  14.758  13.360  0.1200 -0.1400  0.0788
31272W        W48119   8.919  14.629   4.054  0.0428  0.3537  0.0458
31273W        W48120  17.556   0.195  15.625 -0.0344 -0.0190 -0.1942
31274W        W48121   6.749   3.768   1.335 -0.0487  0.0293  0.1775
31275W        W48122   6.043   2.128   3.933 -0.1498  0.2690 -0.1838
31276W        W48123   8.198   2.300   4.732  0.1117  0.1389 -0.0716
31277W        W48124  13.219   5.470  13.057 -0.0135  0.1755  0.1564
31278W        W48125   6.361  11.309   2.571 -0.1588  0.0199  0.1475
31279W        W48126   4.580  15.102   5.309  0.0015 -0.0981 -0.0599
31280W        W48127   8.236  14.394   4.664 -0.3216  0.0507 -0.2100
31281W        W48128   5.516  11.819  14.829 -0.1773 -0.3002  0.2967
31282W        W48129  13.888  14.528  15.149 -0.0269 -0.3495 -0.0082
31283W        W48130  12.476   6.026  15.767  0.2876  0.4447 -0.0872
31284W        W48131   2.300   1.822  14.530 -0.1550 -0.1435 -0.0437
31285W        W48132  17.866  14.553  13.520 -0.0705  0.0284 -0.0709
31286W        W48133  15.285  11.599   3.607  0.3445  0.0983 -0.0849
31287W        W48134   9.649  17.897   5.004  0.0492  0.2087 -0.1543
31288W        W48135  10.758   0.642   3.562  0.2293  0.2405  0.3916
31289W        W48136   9.060  14.040  14.318  0.0835 -0.1216 -0.1215
31290W        W48137  11.042  12.137   1.825 -0.0967 -0.1551 -0.0049
31291W        W48138   6.701  17.034  16.101  0.0295  0.0448 -0.0324
31292W        W48139  14.537  15.714  14.494  0.0956 -0.2252  0.0676
31293W        W48140   2.826  17.976   4.370  0.0308 -0.0078 -0.5343
31294W        W48141  10.027  11.050   1.890  0.3204 -0.0164 -0.2172
31295W        W48142   0.308   4.318   2.440 -0.3800  0.0075  0.1730
31296W        W48143  15.286   9.858   3.160 -0.4069 -0.0258 -0.0057
31297W        W48144   4.955  17.166  13.051 -0.0597  0.0315  0.0770
31298W        W48145   0.460  17.599  14.366 -0.1873  0.2354  0.1145
31299W        W48146  13.428  12.453   3.239  0.1637  0.0743  0.1373
31300W        W48147  18.129   6.253  14.165 -0.0659  0.0561  0.0226
31301W        W48148  16.651   6.152   1.374 -0.0055  0.1130  0.0588
31302W        W48149   0.885  11.770   4.785  0.0222 -0.0176 -0.0262
31303W        W48150   0.235  10.390  15.053 -0.0622  0.1393  0.3562
31304W        W48151  11.303  12.227   3.262 -0.0552 -0.0171 -0.0450
31305W        W48152  11.642   4.363   1.380 -0.1958 -0.1060 -0.1023
31306W        W48153  18.252  17.206   2.397 -0.4125  0.1002 -0.0694
31307W        W48154  13.670  11.081  14.095  0.1288  0.0590 -0.0358
31308W        W48155  14.500   6.745  16.161 -0.0150 -0.0827 -0.0510
31309W        W48156  10.401   7.306  13.366  0.1653  0.0490  0.3060
31310W        W48157  10.524  18.215   1.896  0.1067  0.1178 -0.1221
31311W        W48158   9.267  15.442  14.653 -0.1371  0.0516  0.0095
31312W        W48159  10.436   2.524  13.015 -0.1592 -0.1112  0.1690
31313W        W48160  14.377   0.499  15.795 -0.3711  0.0808  0.1071
31314W        W48161   9.758  12.775  12.091 -0.1019 -0.1813  0.1878
31315W        W48162   0.807   7.385  13.179  0.2811 -0.0492 -0.3267
31316W        W48163  11.885   4.024  13.798 -0.2479  0.1438 -0.2740
31317W        W48164  17.717  10.771  11.559  0.1598  0.0501 -0.0198
31318W        W48165   3.899   6.808  11.686 -0.2014 -0.0313 -0.0528
31319W        W48166  16.261  18.188   0.929  0.2195 -0.2058  0.2326
31320W        W48167  17.931  12.231  13.504 -0.1072  0.3360  0.1792
31321W        W48168  14.862   5.691  12.877 -0.2915 -0.0236 -0.0875
31322W        W48169   3.858  12.239   2.355 -0.1390 -0.1847  0.2593
31323W        W48170  15.317   3.431  13.980  0.2312  0.1575  0.2226
31324W        W48171  17.001   8.170  15.267  0.1459 -0.1422 -0.2006
31325W        W48172   0.232   6.761   0.244 -0.0019  0.0771  0.3003
31326W        W48173  13.238  12.516  12.040 -0.2953 -0.0134 -0.3977
31327W        W48174   2.226   8.464   1.831 -0.0948  0.1000 -0.0201
31328W        W48175  14.737  18.133  15.392 -0.0962 -0.2517 -0.1191
31329W        W48176  11.075  10.734   2.392  0.0466 -0.0754 -0.0590
31330W        W48177  17.685   7.031   3.743  0.1705  0.2226 -0.0618
31331W        W48178   9.458   6.575  15.780  0.0488  0.3410 -0.1695
31332W        W48179  14.642  11.145  14.367  0.0430  0.1486  0.1640
31333W        W48180   6.981   0.172   5.459  0.0707 -0.0746  0.0143
31334W        W48181  12.337   1.235  15.250 -0.2220 -0.2384  0.0783
31335W        W48182   7.351  17.328  15.576 -0.0154 -0.0120 -0.0214
31336W        W48183  14.688   7.836   1.614 -0.2279 -0.0516  0.2478
31337W        W48184  17.284   1.825  11.238  0.2107  0.1324 -0.2074
31338W        W48185  10.294   5.524  11.411  0.1016 -0.0109  0.0708
31339W        W48186   0.008  17.444  14.174 -0.0763  0.1284  0.3483
31340W        W48187   5.277  11.240  15.598  0.2128  0.1852  0.1449
31341W        W48188  14.392   4.905  14.206  0.0871  0.1007  0.0029
31342W        W48189   6.058   9.559  14.618 -0.0348 -0.1113 -0.2446
31343W        W48190   5.118   9.250  12.202 -0.3090  0.2072  0.2891
31344W        W48191   3.479  16.957  11.292 -0.3055 -0.1319  0.1481
31345W        W48192   9.516   9.682   5.287 -0.1109 -0.3693  0.4802
31346W        W48193   6.838   5.065   0.406  0.0948  0.1342  0.0113
31347W        W48194   0.453   1.180   4.943 -0.2973 -0.0794 -0.0857
31348W        W48195  16.120  11.537   2.668 -0.0425  0.1932  0.1496
31349W        W48196  16.673  16.325  11.599 -0.2478  0.1500  0.1471
31350W        W48197  11.322  15.443   2.317  0.0558  0.2990 -0.0051
31351W        W48198  14.842   6.115   2.778 -0.0318  0.2568  0.0948
31352W        W48199   1.931   1.452  14.671 -0.2138 -0.1294  0.2675
31353W        W48200  15.415   9.670  14.381  0.1940 -0.0656 -0.2782
31354W        W48201  17.652  13.169   0.222 -0.1510 -0.0752 -0.0350
31355W        W48202  13.833   9.051   1.209 -0.1083  0.4387 -0.0454
31356W        W48203   0.229   4.580   3.711  0.1751 -0.1271  0.2314
31357W        W48204  16.581   6.598   2.993 -0.0316 -0.0014  0.0319
31358W        W48205  13.980   2.961  10.599 -0.2236  0.2452  0.0343
31359W        W48206   8.152   2.265  14.455  0.0427 -0.2408 -0.0898
31360W        W48207   0.950   2.414  14.084  0.0693 -0.1090 -0.0158
31361W        W48208  15.217  12.667  15.581  0.1865 -0.0593 -0.0384
31362W        W48209   6.334   8.170  14.094 -0.1126  0.3229  0.0015
31363W        W48210  15.564   9.481   1.345  0.1587 -0.1333  0.1208
31364W        W48211   0.168  11.889   2.194 -0.0705  0.1800  0.0483
31365W        W48212  13.181   9.846   3.576  0.0971  0.2234 -0.0474
31366W        W48213   9.543   2.815   2.578 -0.0159  0.0518  0.1278
31367W        W48214  11.360   5.354   3.207  0.2004  0.0483 -0.1518
31368W        W48215   2.594  16.016  13.905  0.0429 -0.0126  0.0289
31369W        W48216  14.291  14.536   0.454  0.0523 -0.0066  0.1234
31370W        W48217  12.261  16.941   4.034 -0.0814  0.3756  0.2620
31371W        W48218   8.394   6.401   2.895 -0.0387 -0.2971  0.1277
31372W        W48219  11.966   2.658   0.266 -0.3505 -0.1406 -0.6675
31373W        W48220  17.751  15.627   3.224  0.0446 -0.1812  0.3613
31374W        W48221   2.395   1.088  13.953 -0.0415 -0.1035 -0.1548
31375W        W48222   4.569  17.055   3.961 -0.4534  0.2157 -0.1590
31376W        W48223  11.902   5.942  12.165 -0.2414  0.1005 -0.0290
31377W        W48224  15.610   4.277  14.462  0.3437  0.3608 -0.0695
31378W        W48225   4.948   5.164   1.282  0.0806 -0.1396  0.0348
31379W        W48226   3.937   5.416  15.644 -0.0416 -0.0718 -0.1013
31380W        W48227  17.102  15.665   0.946  0.1668 -0.0635  0.1497
31381W        W48228   9.099  16.472   0.981 -0.1369  0.0341 -0.5312
31382W        W48229   0.806   7.070   4.466  0.2761  0.1260 -0.2433
31383W        W48230   0.147   6.220  10.512  0.2409 -0.2987 -0.0047
31384W        W48231  12.728   8.008   2.043  0.0699  0.1309  0.0566
31385W        W48232  18.055  10.612   5.144 -0.3723 -0.4381  0.2116
31386W        W48233   1.946   7.633   4.209  0.0327  0.2028 -0.1422
31387W        W48234  10.590   3.992   0.474  0.1777  0.0568 -0.1326
31388W        W48235  15.876  13.268   4.067  0.1405 -0.1260  0.1395
31389W        W48236   5.895  18.129   1.809  0.0890  0.2800 -0.0085
31390W        W48237   5.103   5.682   0.658 -0.0441 -0.0742 -0.0929
31391W        W48238   5.937  16.253  11.804 -0.0497 -0.2599  0.0045
31392W        W48239   3.281   5.316  12.808  0.2621 -0.0481 -0.0733
31393W        W48240  10.849   6.704   0.971  0.2309 -0.0344  0.3204
31394W        W48241   8.541   5.073   4.416  0.0254 -0.1849 -0.1318
31395W        W48242  17.847  14.191   1.327  0.1312 -0.0928 -0.0080
31396W        W48243  14.168  13.375   4.518  0.0090  0.1985  0.1414
31397W        W48244   4.113   5.039   1.911 -0.0839  0.1097  0.1058
31398W        W48245   5.609   0.546   0.832 -0.0658 -0.1444  0.1169
31399W        W48246   0.880   1.109  14.038 -0.0219 -0.0193  0.2623
31400W        W48247   0.775   6.177   1.611 -0.1947  0.1075 -0.1482
31401W        W48248  12.794   6.607   1.055  0.1770  0.0514  0.0650
31402W        W48249  14.114   7.181  14.479 -0.0593  0.0477 -0.2771
31403W        W48250  13.890   9.980   1.458  0.2796  0.1600 -0.2493
31404W        W48251   2.761   4.755  12.252 -0.1145  0.0681  0.4119
31405W        W48252  14.599  11.915   5.408  0.1535  0.3891  0.1974
31406W        W48253   0.812   8.879  13.586  0.0403 -0.1176 -0.3916
31407W        W48254  14.693   9.106   3.371 -0.1346  0.0983  0.2750
31408W        W48255   2.373  10.836   5.351  0.0892 -0.0668  0.1945
31409W        W48256   3.434   2.880   1.768  0.0916 -0.2336  0.0722
31410W        W48257   5.112  17.713   1.613  0.1527 -0.0317  0.1617
31411W        W48258   6.281   4.015  10.919  0.2646 -0.0592 -0.1257
31412W        W48259   0.883  17.728   4.285  0.0248 -0.1763  0.1510
31413W        W48260  18.130   2.659   0.344  0.1781  0.2334  0.2982
31414W        W48261   6.386  14.044  12.952 -0.2227  0.0793 -0.1517
31415W        W48262   7.034  17.502   0.645 -0.0889  0.0651 -0.3685
31416W        W48263   0.401  10.577  12.477  0.3396 -0.0770  0.0596
31417W        W48264   7.070   6.609  10.909 -0.0162  0.0386  0.0222
31418W        W48265   3.744  14.326   3.871  0.1909 -0.0688  0.0436
31419W        W48266   3.072   8.076  15.395 -0.1725 -0.1615 -0.1614
31420W        W48267   3.573  13.747  11.973  0.0426  0.1529 -0.1348
31421W        W48268   0.762   7.796   0.511  0.0084 -0.0145 -0.1192
31422W        W48269  14.866  16.073  13.370 -0.0603 -0.0363  0.0385
31423W        W48270   9.830   3.201   2.534  0.0952 -0.0806 -0.2545
31424W        W48271   5.931  15.524  14.143 -0.1945 -0.0193 -0.1365
31425W        W48272   5.248  11.519  13.297  0.0501 -0.1987 -0.2104
31426W        W48273   8.593  11.986  16.107  0.0569 -0.1235  0.0433
31427W        W48274   8.765   5.501   2.689  0.2422  0.1053  0.0124
31428W        W48275   9.529  13.790   3.602  0.3391  0.0164  0.0457
31429W        W48276  12.409   3.325  12.446 -0.1650 -0.1500 -0.0029
31430W        W48277   2.351  14.477   5.174  0.1744 -0.1299 -0.0022
31431W        W48278  16.080  14.951   1.435  0.0007 -0.1403 -0.1093
31432W        W48279   7.789   2.124  13.369 -0.0925 -0.0721  0.1054
31433W        W48280   0.342   1.189   4.044  0.1229  0.1120 -0.2366
31434W        W48281   8.825  14.447   2.109  0.1302 -0.1162  0.1213
31435W        W48282   5.392   2.913   3.712  0.0560  0.0602 -0.1176
31436W        W48283   0.300  16.123  12.285  0.0886  0.1427 -0.0970
31437W        W48284   4.840  11.429  14.364 -0.1022 -0.0289 -0.2444
31438W        W48285  11.637   3.516   1.306  0.1843 -0.1922 -0.2004
31439W        W48286  12.549   0.142   4.138  0.0828 -0.0327  0.0317
31440W        W48287  11.558  10.793  12.263  0.0627 -0.0371 -0.1068
31441W        W48288  10.752   9.015   2.661  0.0163  0.2175  0.1527
31442W        W48289   0.753  10.032  12.373  0.1737 -0.0282 -0.1097
31443W        W48290  11.188   7.423  13.060 -0.2205  0.0834 -0.1042
31444W        W48291  13.288  15.414  15.914  0.1692 -0.0786  0.0845
31445W        W48292  12.181   9.448   1.815  0.2067  0.0577  0.2281
31446W        W48293   7.207   0.711   1.105 -0.0023  0.0961  0.1002
31447W        W48294   9.827   6.956   1.225 -0.1817  0.0530 -0.1073
31448W        W48295   3.586   6.668   3.889 -0.0480  0.1359  0.1204
31449W        W48296   7.070   2.162   1.861  0.2904  0.0023 -0.0487
31450W        W48297  16.120  15.476  15.821 -0.0929 -0.2759  0.1378
31451W        W48298  10.197  14.681  14.935  0.0907 -0.0701 -0.0046
31452W        W48299  12.253  15.725   1.082 -0.0333  0.4568  0.1057
31453W        W48300   6.741   3.297   1.098  0.0232 -0.0855 -0.3709
31454W        W48301   5.129  12.712   1.681 -0.1680 -0.1379 -0.1286
31455W        W48302  11.736  16.749   0.876  0.2138 -0.0989 -0.1821
31456W        W48303   6.321  13.859  14.081  0.1592 -0.1303 -0.0242
31457W        W48304  17.809  17.134  14.979 -0.0262  0.2379  0.1086
31458W        W48305  12.183  12.639   3.677  0.1563 -0.1605 -0.1126
31459W        W48306  11.474   0.397   5.306 -0.2335  0.2729 -0.3385
31460W        W48307  10.894   6.589  12.648  0.3755 -0.0974 -0.3005
31461W        W48308   2.043   9.753  14.442 -0.0413  0.1656 -0.2272
31462W        W48309   2.969   4.252  16.146  0.0190 -0.1900 -0.0501
31463W        W48310   6.273   2.669  14.330  0.2924  0.0912  0.1092
31464W        W48311  13.527  16.753   6.125  0.3768  0.1481 -0.1521
31465W        W48312  11.502   8.612  12.472  0.0365  0.7329  0.0118
31466W        W48313  15.486  11.856   3.221 -0.0156 -0.2626  0.2427
31467W        W48314  13.821   9.109  12.049  0.1787 -0.3451 -0.1915
31468W        W48315   0.502  15.658   3.164  0.0861 -0.0111 -0.4324
31469W        W48316  12.614  10.249   4.340 -0.1926  0.0700 -0.2841
31470W        W48317  13.014  13.675  12.595  0.0649  0.2290 -0.2071
31471W        W48318   3.521  14.323  14.070  0.0847  0.3415  0.2119
31472W        W48319   9.033   2.091  11.664 -0.3547  0.0870  0.1331
31473W        W48320  17.070  14.271   4.277 -0.1077  0.0716  0.0998
31474W        W48321   9.285  11.506  14.655  0.2330  0.0785 -0.0157
31475W        W48322   7.300   1.577  14.074 -0.1518 -0.1261  0.1905
31476W        W48323  12.578  10.479   1.122 -0.1491  0.0298 -0.1401
31477W        W48324   2.278   3.939   1.892  0.1421 -0.1056  0.1783
31478W        W48325   6.969  17.615   2.076 -0.0839 -0.1594 -0.1732
31479W        W48326  10.591   8.284  15.080 -0.0434  0.1232 -0.1155
31480W        W48327  10.667   0.618   2.291  0.0196 -0.0626  0.2572
31481W        W48328  11.701  15.035  13.117  0.1655 -0.2078 -0.2442
31482W        W48329  14.050  14.214  13.283  0.0611 -0.1635 -0.0523
31483W        W48330  18.223   6.159   0.483 -0.0199 -0.0968 -0.1229
31484W        W48331  15.646   5.303   1.128 -0.0565  0.1051  0.2166
31485W        W48332   2.370   4.288  15.130  0.0748  0.3633 -0.1069
31486W        W48333   1.881  18.145  14.905 -0.0446 -0.0809 -0.1538
31487W        W48334   6.864   3.943  14.193 -0.3753  0.1547  0.0537
31488W        W48335  18.123   0.734   2.284  0.1044 -0.1090  0.1543
31489W        W48336   9.608  17.344   5.157  0.2799 -0.2303 -0.0041
31490W        W48337   3.141   1.134  13.421 -0.0997 -0.1032 -0.2634
31491W        W48338   7.369   6.984   0.153  0.1543 -0.1081 -0.0172
31492W        W48339   6.277   2.670   3.844  0.2464 -0.2923  0.0649
31493W        W48340   3.017   1.817  11.768  0.0818 -0.0880  0.2861
31494W        W48341  12.752  10.090  14.125 -0.0801 -0.3659 -0.0109
31495W        W48342  15.079  13.581   1.930  0.2485 -0.0629 -0.4462
31496W        W48343   6.016  16.123   1.291 -0.0506  0.2912  0.4038
31497W        W48344  15.113   1.550  13.230 -0.0725  0.2925 -0.0995
31498W        W48345   0.669   4.311   3.825  0.1556 -0.0703 -0.0521
31499W        W48346   2.099  12.153   2.457 -0.1241  0.0069  0.2459
31500W        W48347   9.391   3.479   1.563  0.2296 -0.0136  0.1599
31501W        W48348   4.345  16.531  14.280 -0.0057 -0.1443 -0.0041
31502W        W48349   3.885   8.200   1.540 -0.1134 -0.1525  0.2984
31503W        W48350  10.520  10.815   4.782 -0.0082  0.0851 -0.2135
31504W        W48351   3.675   4.812  13.425  0.0656  0.1453  0.1176
31505W        W48352   6.362   1.063  15.087 -0.0960  0.1685 -0.1489
31506W        W48353  15.166  14.140  12.234  0.5752 -0.0299  0.2447
31507W        W48354  13.875   8.473   0.329  0.0235 -0.0209  0.1635
31508W        W48355   2.909  15.430  11.245  0.1869 -0.2547  0.1080
31509W        W48356  16.955   2.255  11.215  0.3386  0.1611 -0.0414
31510W        W48357  17.897  14.094   2.286  0.0049  0.0745 -0.0736
31511W        W48358   0.987   6.963  15.563  0.0874 -0.0337 -0.4164
31512W        W48359  13.449   8.787   1.458 -0.2243 -0.0098  0.0996
31513W        W48360   6.077   4.556   2.908 -0.3268  0.0809 -0.0028
31514W        W48361  14.920  14.207   3.656 -0.1271 -0.1602  0.0141
31515W        W48362  11.674   6.413   1.811  0.3590 -0.1630  0.2826
31516W        W48363  13.565   1.802  14.372  0.2977  0.0422  0.0087
31517W        W48364   2.383   7.904  12.674 -0.2447 -0.1704 -0.1033
31518W        W48365   7.370  10.847  15.138  0.0590 -0.3029  0.1339
31519W        W48366   4.207   9.516  12.116 -0.2503  0.1651 -0.1864
31520W        W48367  11.932   5.351   4.984  0.1572  0.5131  0.0018
31521W        W48368   4.431  10.739  14.711 -0.0506 -0.0323  0.3040
31522W        W48369   3.049  17.618  15.710  0.1886 -0.1567  0.0416
31523W        W48370   0.644  17.521  15.542  0.1734 -0.0815 -0.2550
31524W        W48371  15.211  14.449   0.005  0.2309  0.0060 -0.1704
31525W        W48372   3.753   4.869   3.424 -0.1296  0.1242  0.1983
31526W        W48373  12.859   6.594   5.167 -0.1333 -0.0907  0.3699
31527W        W48374   3.711   9.290  12.300 -0.1391 -0.1002  0.1590
31528W        W48375   7.813   3.826  13.356 -0.0962  0.0407  0.1774
31529W        W48376  12.762  17.664  15.412 -0.0688  0.1957 -0.0286
31530W        W48377   8.215  10.345  15.520 -0.1158  0.2019  0.1444
31531W        W48378   3.818   0.671   2.906 -0.0614  0.0013 -0.4770
31532W        W48379   9.496   7.271  12.258 -0.1740  0.1360 -0.1747
31533W        W48380   4.348   3.403  14.400 -0.0047  0.1436  0.0139
31534W        W48381  17.294  12.363  15.843  0.0298  0.3364  0.0296
31535W        W48382   0.191   2.766  11.563  0.1231  0.2146 -0.1678
31536W        W48383   9.507  14.644   2.670  0.0243  0.2377  0.0133
31537W        W48384   7.745   8.997  11.835  0.3017  0.1169  0.1045
31538W        W48385   0.738   6.760   5.599  0.2313 -0.1528  0.0376
31539W        W48386   0.097  12.152  11.817  0.1929  0.0326 -0.1441
31540W        W48387  16.703   5.317   2.862  0.0129  0.1659  0.1272
31541W        W48388   6.230   7.576   4.049  0.0554  0.1443  0.1690
31542W        W48389  11.899  11.484  11.505 -0.1423 -0.0004 -0.3482
31543W        W48390  14.043   6.877   4.631  0.2121  0.0167  0.4288
31544W        W48391  12.676   7.650  13.153  0.1443  0.1298  0.1976
31545W        W48392  17.011   8.474   2.425  0.0069 -0.1817 -0.0411
31546W        W48393   1.196   8.266  13.322  0.0573  0.1123  0.2873
31547W        W48394   1.694  14.965  11.977 -0.0750  0.0056  0.0170
31548W        W48395   9.438   3.105   1.185 -0.0343  0.3089 -0.0326
31549W        W48396   2.299  12.115  11.525 -0.0801  0.0964  0.1801
31550W        W48397   7.873  17.208   6.257  0.0639  0.3129 -0.0197
31551W        W48398  13.283   1.261   4.251 -0.2354 -0.0428 -0.0383
31552W        W48399  14.001   4.023  12.412 -0.0621  0.2976 -0.0006
31553W        W48400   5.111  11.348   0.321 -0.1386 -0.0299  0.1342
31554W        W48401   4.709  17.233  14.692 -0.0524  0.1482  0.3375
31555W        W48402  13.204  17.455  15.160 -0.0950  0.2466 -0.0749
31556W        W48403   3.341  16.805   1.281  0.1739 -0.0394  0.0165
31557W        W48404   6.383   0.172   1.086 -0.0039 -0.0499 -0.1141
31558W        W48405  17.506   8.105   1.457  0.1119  0.0978  0.4242
31559W        W48406  14.555  17.948   2.216  0.0089  0.0537  0.1726
31560W        W48407  17.144  16.169   0.037 -0.0216 -0.0077 -0.0672
31561W        W48408   4.690  17.578   4.254  0.1844  0.0192 -0.1719
31562W        W48409  12.184   2.425  12.355  0.0491  0.2424  0.1694
31563W        W48410  14.187   8.958  15.690 -0.0955  0.0398 -0.1357
31564W        W48411   8.362   2.007   2.539 -0.0013  0.2933 -0.1784
31565W        W48412  18.231  15.934  13.668 -0.0776 -0.0908  0.1615
31566W        W48413   9.403   3.180  14.576  0.0379  0.0418 -0.1837
31567W        W48414  18.205  15.588  14.140 -0.1919  0.2151  0.0178
31568W        W48415  17.025   0.578   4.313  0.0498 -0.1644  0.0564
31569W        W48416   5.158  13.242   6.211  0.0889 -0.2811  0.0347
31570W        W48417  11.309   7.355  15.154  0.0477 -0.1227  0.0804
31571W        W48418   8.457  16.742   2.010  0.1219 -0.0798  0.1844
31572W        W48419   5.356  10.992   4.081  0.1561 -0.0191 -0.1901
31573W        W48420  11.642   4.870  14.094  0.0161  0.1292 -0.0774
31574W        W48421  14.103  12.891   3.737  0.1563  0.0969 -0.2229
31575W        W48422  17.097   8.206   0.644 -0.2979 -0.2765  0.1134
31576W        W48423   9.495   4.887  13.787  0.1290  0.0706 -0.1187
31577W        W48424   1.398  11.695   2.617 -0.1847 -0.0857  0.3324
31578W        W48425  12.655   5.885  11.311  0.1827 -0.1547  0.2433
31579W        W48426  15.114  17.255   0.076 -0.1281 -0.0714 -0.1015
31580W        W48427   6.208   5.482   5.899 -0.0590 -0.0173  0.1781
31581W        W48428  17.842  16.738   0.621  0.2929  0.3355 -0.3052
31582W        W48429   5.746   7.087   3.516 -0.0218  0.2493  0.1329
31583W        W48430  13.053   1.112   2.898  0.0734 -0.1441  0.1838
31584W        W48431   7.321   1.974  13.706 -0.1407 -0.2165 -0.1860
31585W        W48432  10.700  15.379   3.092 -0.0681 -0.1354 -0.1025
31586W        W48433   0.103   7.734  13.989 -0.0810 -0.2163  0.0044
31587W        W48434   1.494   1.689   3.266 -0.1522 -0.1706  0.5233
31588W        W48435   7.484  17.632  14.055 -0.1105  0.0486 -0.0824
31589W        W48436   3.115   2.447  15.740  0.2851 -0.0143  0.1147
31590W        W48437   4.060   6.217  12.402 -0.3028  0.0539  0.1444
31591W        W48438  15.226   7.221  15.969 -0.0177 -0.0210  0.0490
31592W        W48439   1.863  14.732   1.445  0.0795 -0.2260 -0.1456
31593W        W48440   0.974   8.395  13.858 -0.0960 -0.1057 -0.1732
31594W        W48441  11.632  14.540  15.269 -0.0261 -0.1178 -0.2684
31595W        W48442   1.435  11.259  12.364  0.2031  0.0522 -0.1545
31596W        W48443   2.054  16.454  14.212 -0.3752 -0.2294 -0.2305
31597W        W48444   0.981  15.629   4.609 -0.2860 -0.4253  0.3052
31598W        W48445   5.541  17.837  16.032 -0.3039 -0.1342  0.1491
31599W        W48446  13.398   2.227  14.619 -0.0018  0.2006  0.1154
31600W        W48447  11.056  14.672  15.495  0.1012  0.1113  0.1975
31601W        W48448   7.352  13.380  12.913 -0.1391 -0.2314  0.0978
31602W        W48449   1.479   1.731   4.448 -0.2516 -0.1466 -0.2803
31603W        W48450   4.510   6.466  13.333  0.0602 -0.3985 -0.1038
31604W        W48451   2.181   1.054   4.754 -0.0235 -0.2868 -0.0659
31605W        W48452   2.924  14.034   3.269  0.0968  0.0488 -0.0692
31606W        W48453  16.966  12.237   1.903 -0.2640 -0.2907  0.1393
31607W        W48454   9.799  12.688   2.241 -0.1847  0.1536  0.2447
31608W        W48455  17.615   2.971   2.112 -0.1229  0.1179  0.0385
31609W        W48456   1.155   5.665  15.465 -0.0469  0.0021 -0.0647
31610W        W48457  14.534  16.574  14.672  0.1212  0.2397  0.0080
31611W        W48458   7.852   2.668  14.016 -0.1196 -0.0900  0.1144
31612W        W48459  15.428  15.409  11.432  0.1888  0.1871 -0.2290
31613W        W48460   7.838   0.705   3.516  0.0752 -0.0145  0.2167
31614W        W48461   0.758  13.784  12.327  0.2623 -0.3788  0.0605
31615W        W48462   6.896  16.464  15.354  0.0966 -0.1120  0.0118
31616W        W48463   0.136  11.449   4.719  0.0359  0.0404  0.1086
31617W        W48464   0.612   2.371  11.909  0.3664  0.1141 -0.3266
31618W        W48465  16.053   7.159   3.518 -0.1534  0.0097 -0.2678
31619W        W48466  16.600   4.553  14.405 -0.2632 -0.3130  0.0276
31620W        W48467   5.268  17.203   0.318 -0.3215  0.0191 -0.0015
31621W        W48468  12.443  18.269  14.055  0.1854 -0.1980  0.2621
31622W        W48469   5.877   9.384   2.792  0.0076  0.0128 -0.1756
31623W        W48470   4.552   4.101   2.803  0.2330 -0.0523  0.0248
31624W        W48471  14.330  14.594   4.947  0.0901  0.1672  0.0962
31625W        W48472  17.225  11.418  11.469  0.1176 -0.0726 -0.1711
31626W        W48473  10.776   6.722   2.977  0.1192  0.2363  0.2107
31627W        W48474   6.312   5.805   5.372  0.1789  0.0765  0.1827
31628W        W48475   3.597  13.334  12.252 -0.1324 -0.1913 -0.0083
31629W        W48476  10.867   2.693  12.816  0.1774  0.1746 -0.0667
31630W        W48477  17.829   0.781   4.044  0.0224 -0.1219  0.1043
31631W        W48478   2.734  15.760   5.129  0.4037  0.1667 -0.1392
31632W        W48479  15.190   5.575  15.142  0.0981  0.5853  0.0091
31633W        W48480  15.462  13.945  12.717 -0.3142  0.2607 -0.0175
31634W        W48481   0.769  13.368   6.289 -0.2567  0.0023 -0.0169
31635W        W48482  17.307   4.046   0.592  0.1571  0.1840 -0.0395
31636W        W48483   9.987  10.989  16.129  0.0898 -0.2797 -0.1136
31637W        W48484  10.706  15.422  11.557 -0.0212 -0.0363 -0.2079
31638W        W48485  10.422  12.316  16.070  0.0942  0.1453 -0.0216
31639W        W48486   9.865   6.626  13.374 -0.0879  0.0788  0.0414
31640W        W48487   2.505   4.536   3.324  0.3309 -0.0913  0.0472
31641W        W48488   5.719   4.993   2.123  0.0933  0.0267  0.0082
31642W        W48489   4.558   0.149  15.426 -0.0297 -0.1622  0.4098
31643W        W48490  18.092   8.118  13.787 -0.2772 -0.1293 -0.1529
31644W        W48491  15.919   4.355   9.683  0.2963 -0.1781 -0.0504
31645W        W48492   4.732   8.301  16.082 -0.0237 -0.1122  0.2053
31646W        W48493  12.488  12.941  12.825 -0.0735 -0.2231 -0.1128
31647W        W48494   1.098  15.550  14.879  0.1282  0.0586 -0.2723
31648W        W48495   2.889   2.583   3.353 -0.2973 -0.0345 -0.0351
31649W        W48496   1.609   5.270  13.307 -0.1356  0.0083 -0.2397
31650W        W48497   7.707   2.723  11.751 -0.2611 -0.1526 -0.1879
31651W        W48498  15.492   7.446  12.691  0.1607  0.3781 -0.0753
31652W        W48499   3.054   0.792   2.288 -0.1758 -0.1609 -0.0854
31653W        W48500  11.819  13.513   0.584  0.1808  0.0804 -0.1231
31654W        W48501  12.927   0.031  15.221  0.0969  0.2285  0.1640
31655W        W48502   1.980  11.596  11.629  0.2491 -0.1685  0.1322
31656W        W48503  13.730  10.941  15.613 -0.0104 -0.1979 -0.0875
31657W        W48504   9.476  16.952   1.686 -0.2598  0.1186  0.2797
31658W        W48505   5.673   1.456  13.347  0.1817 -0.1617  0.0304
31659W        W48506   8.111   5.453   2.480  0.0719  0.1637  0.2422
31660W        W48507  17.324   2.233   1.855 -0.1375 -0.0273 -0.0602
31661W        W48508   4.096   9.911   1.336 -0.2362 -0.0133  0.0160
31662W        W48509   5.617   7.070  11.845 -0.2690  0.0659 -0.1037
31663W        W48510   0.817  13.168  13.299 -0.0999 -0.1384 -0.1763
31664W        W48511   9.314  14.474   0.254 -0.0168  0.0396 -0.2151
31665W        W48512   9.997   4.839   5.543 -0.0365 -0.0314 -0.1063
31666W        W48513   6.417   3.617  13.753  0.1226 -0.1846  0.0531
31667W        W48514   2.959   6.679   5.717 -0.1882 -0.1158 -0.3908
31668W        W48515  14.780  14.681  13.375  0.2242  0.0675 -0.2092
31669W        W48516   9.899  13.545   3.937 -0.1319  0.2020 -0.0248
31670W        W48517  12.000  14.563  14.938  0.1973 -0.0274  0.1822
31671W        W48518  11.576  14.498   0.974  0.0329  0.0511 -0.0509
31672W        W48519  12.348   0.842   1.580 -0.1861 -0.0136  0.6262
31673W        W48520  11.534  16.059   1.570  0.4434 -0.0367  0.0807
31674W        W48521   2.523  17.680  12.254  0.0098 -0.0735  0.5810
31675W        W48522  10.923  16.951  15.267  0.1737 -0.2090  0.0020
31676W        W48523   6.312   5.900  13.531 -0.0247  0.0415 -0.1046
31677W        W48524   2.898   1.072  14.038 -0.3160 -0.0966  0.2276
31678W        W48525   9.342   4.180  11.602  0.1759 -0.3131  0.0133
31679W        W48526  13.385   2.202  11.485  0.1186 -0.1354 -0.0487
31680W        W48527   4.154   6.212  14.308 -0.0456  0.0899  0.0253
31681W        W48528  11.937   9.195   3.986 -0.3119 -0.2036 -0.0590
31682W        W48529   2.580   1.538  14.138 -0.0881 -0.1726  0.0871
31683W        W48530   9.585  10.556   1.664  0.2324  0.3224  0.0788
31684W        W48531   4.890   1.499   0.469 -0.0063 -0.1354 -0.0284
31685W        W48532  13.848  11.062   0.201  0.1489 -0.1092 -0.1268
31686W        W48533  14.933   0.599   0.719 -0.0872  0.1885 -0.0798
31687W        W48534  10.983   5.210  10.833  0.0666  0.2364  0.1607
31688W        W48535   9.306  11.781   2.075  0.3359  0.0077 -0.4789
31689W        W48536   4.728   1.971   5.202  0.0642 -0.0581  0.0615
31690W        W48537  17.891  12.339  14.993 -0.1236  0.0186 -0.2216
31691W        W48538   7.770  15.379   4.508  0.1505  0.1553  0.3528
31692W        W48539  16.627  16.640   2.036  0.0354  0.3360  0.0774
31693W        W48540  16.107   2.509  15.077 -0.2445 -0.3243  0.1721
31694W        W48541  11.803  14.054   0.338  0.1025 -0.0986 -0.1281
31695W        W48542   0.505  16.980  15.280 -0.1216 -0.0374  0.1873
31696W        W48543  16.928  15.094   5.178 -0.0800 -0.0803 -0.1414
31697W        W48544   9.137   8.633  14.958 -0.3377 -0.2056  0.1173
31698W        W48545   8.234  14.913  12.386  0.4382 -0.1773 -0.3258
31699W        W48546  14.061   5.082   3.321  0.2999 -0.3217  0.2635
31700W        W48547  10.165  17.488   2.380  0.0017  0.1350  0.0512
31701W        W48548   5.188  15.884   0.719 -0.1774  0.0732 -0.1818
31702W        W48549  10.023   5.595   4.559 -0.3320 -0.1562 -0.1627
31703W        W48550  11.552   7.715  15.420 -0.1744 -0.0316  0.0193
31704W        W48551  13.280  14.532   0.376  0.2462 -0.1308  0.1211
31705W        W48552  12.639  17.229   2.380 -0.0444 -0.0056 -0.0908
31706W        W48553  16.011  12.238  13.427 -0.2253 -0.0889  0.2430
31707W        W48554   5.312   0.561  14.247  0.1836 -0.0017  0.1662
31708W        W48555  18.149   1.938   1.302  0.3501 -0.1288  0.1292
31709W        W48556   6.807   1.537  14.043  0.4142 -0.1700 -0.0094
31710W        W48557   3.556   4.525  16.148 -0.1894  0.0714 -0.3105
31711W        W48558  10.849   4.262  14.145  0.3487 -0.1200 -0.3672
31712W        W48559   5.329  13.965   4.108 -0.0838 -0.2680  0.1987
31713W        W48560   4.474   0.290   5.543  0.1719 -0.1512 -0.1085
31714W        W48561   2.427  13.005   3.477  0.1359 -0.0488  0.0936
31715W        W48562   3.242  14.580  14.727  0.2636  0.0810  0.1570
31716W        W48563  18.130   6.710   3.962  0.2740  0.0726 -0.0979
31717W        W48564   8.227  15.295  12.777 -0.5004 -0.2002 -0.1461
31718W        W48565   8.121   6.935   4.843  0.4851 -0.2569  0.2099
31719W        W48566  17.043   3.158   9.411 -0.2117 -0.2038  0.2777
31720W        W48567   2.590  11.624  15.824 -0.0954  0.0999 -0.1532
31721W        W48568   9.441  12.312  12.038  0.3100 -0.4069  0.1506
31722W        W48569   9.344   0.849  14.031 -0.1224  0.1278  0.0180
31723W        W48570  10.315   3.414  12.481  0.0066  0.0838 -0.0443
31724W        W48571   7.969   1.866   5.014  0.0745  0.1617  0.4418
31725W        W48572   4.679   8.698   4.419  0.1330 -0.1728 -0.2127
31726W        W48573   4.315  13.298  14.507  0.1107 -0.0382 -0.0526
31727W        W48574   1.317  17.254  14.122  0.0766  0.1362 -0.0753
31728W        W48575   1.198   9.523  13.025  0.4142 -0.2573  0.0913
31729W        W48576   2.840  17.790   3.047  0.1045 -0.1513 -0.0898
31730W        W48577   9.628   1.339   4.121 -0.2924 -0.0442  0.2589
31731W        W48578   7.036   8.192  13.101  0.1980  0.0794  0.0875
31732W        W48579  10.579  16.435   2.642  0.0649 -0.3166  0.0130
31733W        W48580  12.092   9.257   0.464  0.0782  0.2214  0.2433
31734W        W48581   1.992   8.415   3.617 -0.0435 -0.0068  0.1613
31735W        W48582   5.272   0.652   4.681  0.0825 -0.1508  0.0154
31736W        W48583   5.415   8.119  14.853  0.0320 -0.1523 -0.0957
31737W        W48584   2.763  11.874  14.259  0.0386 -0.0174  0.2436
31738W        W48585  10.338  10.707   4.322 -0.3245 -0.0003 -0.1927
31739W        W48586  18.308   6.958   2.468  0.1557  0.0019 -0.0318
31740W        W48587  16.460   2.376   2.281 -0.0557 -0.0006  0.1359
31741W        W48588   2.705   2.912   2.259 -0.0609 -0.3387  0.2438
31742W        W48589   6.523   5.459  13.367  0.3630 -0.0727  0.0849
31743W        W48590  15.090   1.954  11.984 -0.0620  0.1761  0.2512
31744W        W48591  13.976   7.723   4.363 -0.0905 -0.0901  0.1473
31745W        W48592  13.194   0.228  13.306  0.0080 -0.2710  0.2414
31746W        W48593  16.996   5.518   2.129 -0.1418 -0.0308 -0.0626
31747W        W48594  11.398   1.133   3.163 -0.2067  0.5261  0.1760
31748W        W48595   6.987  12.089   3.192  0.3619  0.1862  0.2473
31749W        W48596   9.447   1.988  14.767 -0.2453  0.0491  0.0953
31750W        W48597  17.810   2.854   3.544 -0.2737 -0.1171  0.1076
31751W        W48598  10.546   3.488  15.029  0.2062  0.1052 -0.1252
31752W        W48599  14.388  11.388  14.013  0.0432  0.1790  0.1797
31753W        W48600   7.491  11.139  16.118 -0.1808 -0.2231  0.1210
31754W        W48601   2.039  15.163  13.563 -0.2120  0.1967 -0.1824
31755W        W48602  10.240  16.227  13.935  0.0109 -0.0430  0.0479
31756W        W48603  18.020   5.876  13.119  0.2832 -0.2647 -0.1932
31757W        W48604  14.230   6.262  11.155 -0.1020 -0.2842  0.2944
31758W        W48605  12.744   3.994   9.904 -0.0461 -0.0218  0.3367
31759W        W48606  17.423   2.409  15.818 -0.2833 -0.0480 -0.3221
31760W        W48607  16.246   4.370   1.633 -0.2486 -0.1269 -0.1519
31761W        W48608   9.012   6.193  15.687  0.2509 -0.0354 -0.3710
31762W        W48609   4.435  10.996  15.764 -0.1840 -0.3125 -0.3107
31763W        W48610   2.201  12.449   1.982  0.1516  0.2634 -0.3085
31764W        W48611   7.662   9.116   1.418  0.0533 -0.0493  0.3580
31765W        W48612   9.087  14.688   1.508 -0.2402 -0.0294  0.1708
31766W        W48613  10.934   6.806  15.810  0.4529 -0.3119 -0.1766
31767W        W48614  10.774   6.948  13.533  0.0071  0.0657 -0.1347
31768W        W48615   3.928  11.476   2.072  0.1682  0.1113  0.2972
31769W        W48616   0.408   9.007  15.706  0.2679 -0.0089  0.3071
31770W        W48617   7.516  11.954   1.576 -0.1257 -0.0366 -0.2941
31771W        W48618  17.794   9.222  14.813 -0.0037 -0.2262  0.0864
31772W        W48619  16.247   6.102  15.471 -0.0149  0.0900 -0.0490
31773W        W48620  14.528  11.187  11.858  0.1890  0.2547 -0.0150
31774W        W48621   2.306   8.530  13.468 -0.0491 -0.0554 -0.2519
31775W        W48622  11.626   4.604   1.982 -0.1504  0.2140 -0.3536
31776W        W48623   9.663  11.171  15.239  0.1627 -0.2599  0.0039
31777W        W48624  11.214   2.275  15.014  0.2553 -0.1881 -0.0340
31778W        W48625   8.644   8.783  13.157 -0.2409  0.1891 -0.0234
31779W        W48626  11.643   3.105  15.850 -0.1341  0.0877  0.1501
31780W        W48627   3.224   7.534   6.319  0.2004  0.2372  0.2395
31781W        W48628  16.173  16.400  14.687  0.1723 -0.0421 -0.2417
31782W        W48629   3.288  15.891  11.317 -0.1978 -0.6008  0.1127
31783W        W48630   2.325  17.966   9.871 -0.1102  0.2734  0.0882
31784W        W48631  14.518   5.808   2.595  0.0908  0.0482  0.0599
31785W        W48632   4.261   3.236   4.312  0.1228  0.1743 -0.2163
31786W        W48633  11.149   1.681  15.040 -0.1801 -0.0909  0.1925
31787W        W48634  11.934   8.719  15.227 -0.0305  0.0223  0.0235
31788W        W48635  17.188  18.262   2.739 -0.0164  0.0535  0.1610
31789W        W48636  14.541  12.017   4.196  0.2672 -0.0256 -0.0917
31790W        W48637  15.166  16.113  13.810  0.2138 -0.2283 -0.0379
31791W        W48638   7.465  13.967  15.012  0.0126  0.0383 -0.0738
31792W        W48639   7.549   1.686  13.336  0.0676  0.1443  0.1936
31793W        W48640  17.892  12.680   0.236 -0.0821  0.1599  0.0196
31794W        W48641  17.951   9.972   3.126  0.1749  0.1284  0.1099
31795W        W48642   7.391  10.642   1.120  0.2629 -0.5076 -0.1413
31796W        W48643   3.029   0.001  10.905  0.3061  0.1018 -0.3331
31797W        W48644  13.226   1.203   1.445  0.1450  0.1579 -0.0569
31798W        W48645   5.747   9.351   4.937 -0.1524  0.0581 -0.3651
31799W        W48646   8.057  12.632  16.099 -0.0987  0.2028 -0.1943
31800W        W48647   1.806   1.974  13.051  0.0859 -0.3895  0.2299
31801W        W48648  13.034   9.686   2.158  0.3626 -0.1242  0.0411
31802W        W48649   5.807  10.752  14.825 -0.2956  0.0148  0.1145
31803W        W48650  11.429  17.385   5.478  0.0169 -0.0732 -0.1757
31804W        W48651   4.557  10.850  12.101 -0.2082  0.2816  0.3231
31805W        W48652   1.647  13.841   3.535  0.0243 -0.3153 -0.0264
31806W        W48653  13.210   6.407  10.624 -0.2399  0.2469  0.1350
31807W        W48654  10.585   4.848  13.049 -0.1074  0.3051 -0.1116
31808W        W48655  15.424  13.339   3.594  0.1097 -0.1567  0.0590
31809W        W48656  11.818   7.684  12.803  0.0962  0.0027 -0.0694
31810W        W48657  15.537  17.319   4.964 -0.0941  0.0172  0.0831
31811W        W48658   1.854  12.358  12.333 -0.1473 -0.0014 -0.0676
31812W        W48659  12.756  17.284  13.805  0.1128  0.1610 -0.1145
31813W        W48660   6.159   5.946  11.202  0.0587  0.0005  0.0200
31814W        W48661   0.550  16.181  14.859  0.2008  0.1358  0.0698
31815W        W48662  15.525   6.862  10.857  0.1787  0.1905  0.2464
31816W        W48663   6.401   8.699   1.057 -0.1078 -0.1565  0.2259
31817W        W48664  17.707  12.135   0.279 -0.2174 -0.0096 -0.1197
31818W        W48665   8.884  15.904  13.361 -0.1440  0.2568  0.3289
31819W        W48666  11.461   3.791  13.998 -0.0572  0.0321 -0.3143
31820W        W48667   0.867  11.157  13.508 -0.2083 -0.0899 -0.1081
31821W        W48668  17.786   5.374  13.011 -0.1338  0.0567 -0.2827
31822W        W48669  14.982   9.368   2.120 -0.1274 -0.1407 -0.0706
31823W        W48670   8.242  17.575  14.672  0.1819 -0.1969  0.1436
31824W        W48671  15.177  16.934   1.433 -0.0965 -0.0090  0.0681
31825W        W48672   1.693   1.447   2.809  0.1175 -0.3069 -0.1042
31826W        W48673   8.563   7.142  12.914  0.1108 -0.1830 -0.0979
31827W        W48674  10.513   2.607  11.208 -0.1332 -0.0680  0.3289
31828W        W48675   5.847   8.531  14.764  0.0817  0.1382  0.0875
31829W        W48676   3.020   6.609   0.387  0.0459 -0.0146  0.1748
31830W        W48677   8.856  17.156   4.381  0.1937 -0.3013  0.0583
31831W        W48678  10.840  16.622   3.731  0.1443 -0.0946 -0.2401
31832W        W48679  12.416  10.283   2.428  0.0758  0.0199 -0.1892
31833W        W48680   0.008  10.523   0.593  0.0942  0.2462 -0.4133
31834W        W48681  14.052   4.124   4.340  0.3173 -0.2292 -0.2490
31835W        W48682   3.052  10.337  15.353 -0.0705  0.2230 -0.3098
31836W        W48683   6.195  10.168  16.023  0.1457 -0.0695  0.2108
31837W        W48684   6.363   9.482  11.928  0.1226  0.0093 -0.3499
31838W        W48685  12.185  13.923   1.390 -0.0694  0.0225 -0.0549
31839W        W48686   4.962  14.761   1.723 -0.1811  0.2748  0.0282
31840W        W48687   7.737   5.056   2.272  0.2166 -0.1998  0.0937
31841W        W48688   9.815  14.046  14.951 -0.1755  0.0364  0.1431
31842W        W48689   1.838  10.494  14.906  0.2252  0.0836  0.2924
31843W        W48690  17.590   5.185  11.592  0.0364 -0.1580  0.0837
31844W        W48691  16.746  14.935   2.221  0.0049  0.2412 -0.0087
31845W        W48692   6.699  15.659  13.714 -0.1415 -0.0809  0.0390
31846W        W48693  10.048  15.622  13.815  0.1683  0.1213 -0.2206
31847W        W48694  11.495   7.745  11.744 -0.0101  0.2565  0.1466
31848W        W48695  12.401   9.755   2.320 -0.1256 -0.0789  0.1054
31849W        W48696  13.414  17.139  12.860 -0.1932 -0.0184 -0.0271
31850W        W48697  11.481   3.520   3.197 -0.0031  0.1524 -0.1367
31851W        W48698   1.659  10.626   1.121 -0.2306 -0.3502 -0.3681
31852W        W48699   5.447  17.154   2.716  0.1039 -0.1202 -0.3058
31853W        W48700   5.374  13.856  11.695  0.4489 -0.1444 -0.1927
31854W        W48701  12.664   5.714  15.401  0.1690 -0.1668 -0.3898
31855W        W48702  10.376   5.162   2.908 -0.2125  0.1646  0.0253
31856W        W48703   6.129  12.733  13.463 -0.1030  0.0183  0.2788
31857W        W48704   1.536   1.233  14.838  0.0907 -0.0337 -0.2029
31858W        W48705   4.944  13.467   3.203  0.3754 -0.0318 -0.2397
31859W        W48706   1.795   5.682   2.023  0.3259 -0.0571  0.2488
31860W        W48707   1.928   0.238  14.068 -0.0132  0.2493 -0.2342
31861W        W48708  15.431   4.128  15.557 -0.2620  0.0548  0.1193
31862W        W48709   0.335  17.477  12.232 -0.2557 -0.1857  0.2630
31863W        W48710   8.268  12.281  15.813 -0.1355  0.2379  0.1487
31864W        W48711  11.955   3.216  15.380  0.2506 -0.2362 -0.0400
31865W        W48712  13.907   6.050  13.330 -0.1854 -0.1693 -0.1580
31866W        W48713   7.605   2.855  14.454  0.1164  0.0379  0.1447
31867W        W48714  10.626   2.574  14.196 -0.0320  0.0242  0.0904
31868W        W48715  10.267   1.638   2.382  0.0576 -0.0399 -0.1238
31869W        W48716   7.066   4.932  16.141  0.0449 -0.1378 -0.3030
31870W        W48717  12.250   1.492  13.702 -0.0303  0.2257  0.0460
31871W        W48718   2.977  17.077   1.031  0.0990  0.2197  0.0820
31872W        W48719   0.584   8.740  12.226 -0.0307 -0.0836  0.0304
31873W        W48720   2.600  12.954  11.277 -0.1062  0.0846  0.4384
31874W        W48721   8.046   2.205  14.995  0.0380  0.2717  0.1183
31875W        W48722   0.463   2.348  11.427  0.0738 -0.2422 -0.1566
31876W        W48723   3.787   4.179  12.352 -0.1450  0.1795 -0.0325
31877W        W48724  13.626  11.146  12.218 -0.1002 -0.0243 -0.2449
31878W        W48725  15.898  15.660  12.252 -0.0835 -0.1402  0.2117
31879W        W48726  12.252  17.581  12.026 -0.1293  0.0933  0.0124
31880W        W48727  15.282   7.414   0.259 -0.2550 -0.1078 -0.0433
31881W        W48728  10.063   2.099   2.841  0.0244  0.0038  0.0820
31882W        W48729   8.707   4.601   2.573 -0.0521  0.0102  0.0332
31883W        W48730  12.145   7.483   3.785  0.2234  0.0201 -0.0425
31884W        W48731  12.804   7.858   4.415  0.2833 -0.3294 -0.1697
31885W        W48732   4.491  10.532   3.888  0.3339  0.1849 -0.3466
31886W        W48733  10.441   8.172  12.886 -0.0353  0.1475  0.0748
31887W        W48734  11.508   0.068  13.051 -0.2899  0.1406 -0.2743
31888W        W48735   1.789   7.725   2.060  0.3123 -0.0660 -0.1576
31889W        W48736   5.795  13.289   3.844  0.1008 -0.0671 -0.0777
31890W        W48737  10.790  13.135  11.920 -0.2544 -0.1673  0.2938
31891W        W48738  17.677  10.749   1.206  0.0781  0.0885 -0.0720
31892W        W48739   2.327  14.526  14.767  0.1770 -0.0198 -0.1407
31893W        W48740  15.899  14.206  15.168  0.1126  0.2222  0.2420
31894W        W48741   0.455  16.677  14.791 -0.2502 -0.0227 -0.1144
31895W        W48742   5.543   6.713   5.502  0.2808  0.3025 -0.0158
31896W        W48743   2.836  10.397  15.827 -0.0763  0.1757  0.1777
31897W        W48744  14.854   5.504   0.540 -0.0273  0.0262 -0.2025
31898W        W48745   6.071   4.903  12.021  0.3190 -0.0069  0.1201
31899W        W48746   9.121  14.831   1.012  0.3386  0.0108  0.1482
31900W        W48747  11.648   4.042  10.763  0.0690  0.2176 -0.2196
31901W        W48748  15.855  17.935  11.700  0.0488  0.0489 -0.0922
31902W        W48749   3.536   3.279   2.131  0.0169 -0.2407 -0.0934
31903W        W48750   1.199  10.847  12.559 -0.3194 -0.1708  0.2452
31904W        W48751   3.715   4.035   4.006 -0.0016  0.1089  0.0008
31905W        W48752   6.168   9.188   5.344 -0.2551 -0.1474  0.0610
31906W        W48753   3.728   7.487   2.833 -0.0093  0.0069 -0.0421
31907W        W48754  15.524   0.040   0.167  0.2257  0.0884  0.0641
31908W        W48755  11.980   3.822  14.261  0.3501 -0.0460  0.1424
31909W        W48756  12.115  17.669  14.918  0.0028 -0.0111 -0.0940
31910W        W48757   6.269   1.995   1.398  0.3285 -0.2487  0.1687
31911W        W48758  15.169   9.873  13.391 -0.1281 -0.1544 -0.2893
31912W        W48759   7.268   1.572   0.450  0.0056 -0.0053  0.0175
31913W        W48760  12.708   2.372  12.613  0.1174 -0.3105  0.0181
31914W        W48761   3.816   7.106  14.079 -0.1616 -0.3443  0.3137
31915W        W48762   8.442  18.220  13.282  0.2663 -0.2346  0.3269
31916W        W48763   8.624   0.098   2.563 -0.2726  0.1928 -0.0179
31917W        W48764  16.551   0.973  14.821 -0.1664  0.1730  0.0338
31918W        W48765  10.609   5.063  11.159 -0.1883 -0.2342 -0.2548
31919W        W48766  16.643  16.249   4.185 -0.0719 -0.1378 -0.0357
31920W        W48767   0.651  13.856  13.975  0.0809  0.2684  0.1788
31921W        W48768   8.808  13.961   0.396 -0.0843  0.0112 -0.1421
31922W        W48769  13.476  17.664  14.823 -0.1398 -0.1958 -0.0634
31923W        W48770  12.476  17.288  15.151 -0.0479  0.2837 -0.0231
31924W        W48771  14.218  16.765  15.840  0.0893  0.3260 -0.0094
31925W        W48772   4.888  12.465  14.672  0.1922  0.2304 -0.0583
31926W        W48773   7.568   0.977   0.855  0.2846 -0.0176 -0.0727
31927W        W48774   8.361   0.148   5.851  0.1686  0.2064  0.1665
31928W        W48775   1.551  17.547   2.965  0.0693 -0.0678  0.1002
31929W        W48776   3.699   3.777   2.415  0.0716  0.0000  0.0880
31930W        W48777  16.082   7.069   2.756 -0.1018  0.0589 -0.2009
31931W        W48778   1.897   6.035   2.361  0.1506  0.1225 -0.1443
31932W        W48779  12.102   9.899  15.509  0.5629 -0.3035 -0.1501
31933W        W48780   2.200   8.512   2.432 -0.3075 -0.2021  0.1272
31934W        W48781  15.583   0.292  15.417  0.1309  0.0775 -0.0379
31935W        W48782   0.294   9.573   1.811  0.0213 -0.2090 -0.3619
31936W        W48783   5.325   6.782   4.322 -0.1280  0.0032  0.0206
31937W        W48784   6.918   5.269  15.803 -0.0157 -0.1694 -0.4814
31938W        W48785   7.467   4.695   2.036  0.2664  0.2256 -0.0761
31939W        W48786   3.804  11.563   4.703  0.0798 -0.3438  0.2778
31940W        W48787   7.634   1.919   5.375 -0.1031  0.3089  0.2282
31941W        W48788   8.137   9.177   0.099  0.2669 -0.4349  0.1781
31942W        W48789   2.749   7.859   4.050 -0.1226 -0.1065 -0.0082
31943W        W48790   4.313  10.507   4.924  0.1792  0.0568 -0.0309
31944W        W48791   0.736   0.968   5.925  0.0089  0.0091  0.0536
31945W        W48792  15.676  10.092  13.289  0.2530  0.1393 -0.0912
31946W        W48793  17.921  18.010   5.966 -0.2324  0.0839  0.0746
31947W        W48794  18.084   6.045  12.301  0.0389 -0.1373  0.0429
31948W        W48795  17.366   1.740  15.165 -0.1564 -0.0179 -0.1950
31949W        W48796   5.359  16.227  14.972 -0.0009 -0.3543 -0.0074
31950W        W48797   3.332   2.315   2.732  0.0864 -0.0297 -0.1961
31951W        W48798  13.042  10.525   4.665 -0.1685 -0.0013 -0.0947
31952W        W48799  16.570   1.728   4.164 -0.1518  0.2181 -0.0725
31953W        W48800  15.786   3.180  14.127 -0.1893 -0.1213  0.1403
31954W        W48801   7.711   5.113  13.554  0.0581  0.2785 -0.0234
31955W        W48802  17.240  15.175  12.056 -0.1608  0.1235  0.3450
31956W        W48803  15.848   3.748   3.840  0.2799  0.2179 -0.0989
31957W        W48804   7.473  15.863  11.407 -0.2284 -0.0006  0.3000
31958W        W48805  15.185  13.956   0.995  0.1232  0.1163  0.1166
31959W        W48806  14.307  12.186   5.091 -0.2608  0.1845 -0.0365
31960W        W48807  14.163  13.622   3.482  0.2032 -0.0110  0.1664
31961W        W48808   4.665  17.011  15.702  0.2186 -0.0843 -0.0113
31962W        W48809  12.703   6.870   3.371 -0.2195  0.0076 -0.1122
31963W        W48810  10.776   9.855  14.727  0.3199  0.1939 -0.0213
31964W        W48811   6.356  17.305  15.218 -0.1277  0.3069 -0.1619
31965W        W48812  17.521  16.299  14.868 -0.1725  0.0845  0.1367
31966W        W48813   4.603   7.213  15.191  0.2169 -0.0600  0.1236
31967W        W48814  10.056   4.139  13.600 -0.1802 -0.2234 -0.1859
31968W        W48815  15.155   8.057  15.725  0.0541 -0.0471  0.1315
31969W        W48816  13.178  12.227  13.787  0.0866 -0.0199  0.1634
31970W        W48817   4.805  13.981   0.690 -0.1249 -0.3658  0.4057
31971W        W48818   3.617   1.477   2.110 -0.0301  0.2546  0.1950
31972W        W48819  12.529  11.666  15.730 -0.1282  0.3737 -0.0428
31973W        W48820   2.636  14.429   2.160 -0.1589  0.0730  0.2638
31974W        W48821   3.030  10.808   0.114 -0.0515  0.0018 -0.0468
31975W        W48822  14.323  15.714   3.424 -0.0051  0.1673 -0.1476
31976W        W48823  11.376   7.444  11.356 -0.0340  0.0388 -0.3861
31977W        W48824   2.100  17.199  13.517 -0.1555 -0.0572  0.0573
31978W        W48825   4.135   2.275   4.677 -0.3048 -0.3880  0.0586
31979W        W48826   5.289   1.597  15.663 -0.0588 -0.0766  0.1392
31980W        W48827  16.216   6.547   0.765  0.2311 -0.2001 -0.1404
31981W        W48828   6.417   2.235   5.566 -0.0499  0.0550  0.1728
31982W        W48829   9.992  12.158  12.403 -0.0242 -0.1142 -0.2232
31983W        W48830   3.537  10.991   0.133  0.2695 -0.0588  0.4334
31984W        W48831  13.351  12.886   3.816  0.0985 -0.1251 -0.1851
31985W        W48832   5.581   6.372   6.365  0.0153 -0.2887  0.2210
31986W        W48833   4.236   2.268   3.475  0.0839 -0.1985 -0.1054
31987W        W48834  13.142   9.570  15.224 -0.0577 -0.2589 -0.1574
31988W        W48835  15.609  13.141   4.688  0.1030  0.3835 -0.1777
31989W        W48836  14.833  16.061   1.627 -0.1362 -0.4699 -0.0436
31990W        W48837  16.885   0.440  11.674 -0.0479 -0.0434 -0.1860
31991W        W48838  10.353  18.322   1.073 -0.0767 -0.2320 -0.0343
31992W        W48839   6.621   7.061  12.410 -0.2180  0.2845 -0.2623
31993W        W48840   6.576   4.199  15.000 -0.1839  0.0753 -0.2226
31994W        W48841   7.419  10.750  13.759 -0.0530 -0.1927  0.0411
31995W        W48842  14.410   5.264   2.924 -0.0327  0.2419  0.0437
31996W        W48843   1.484   8.228   3.708  0.1537  0.2119 -0.1094
31997W        W48844  10.350  10.264  10.258  0.0243 -0.0645 -0.0572
31998W        W48845   0.589   7.990  13.828  0.0616  0.0302  0.0689
31999W        W48846  11.588   3.210  11.802  0.0332 -0.4967  0.2082
32000W        W48847  15.274   8.884  13.782 -0.0720 -0.0733 -0.1173
32001W        W48848  14.793  16.610   3.137  0.1934 -0.1459  0.0578
32002W        W48849  17.200   3.305  14.161  0.1750  0.2376 -0.1884
32003W        W48850  15.823   6.258   4.100  0.0581  0.1688  0.0394
32004W        W48851   9.338   1.674   0.943 -0.0993 -0.1647 -0.1803
32005W        W48852  14.932   7.330  13.614  0.1611 -0.2813 -0.2075
32006W        W48853   8.283  10.901   4.618  0.3248 -0.3423 -0.1061
32007W        W48854  14.252  18.213   3.944 -0.2654  0.1394 -0.1326
32008W        W48855   5.335   1.399  13.737  0.1881  0.1252  0.1007
32009W        W48856   2.161  12.683   5.962  0.4641  0.1306  0.1877
32010W        W48857   4.723  11.761  13.392  0.0457 -0.2473  0.2428
32011W        W48858   7.921  10.807  12.834  0.0134  0.1015  0.3781
32012W        W48859  13.901  13.771   5.382  0.1363 -0.2812 -0.2287
32013W        W48860   1.560  16.278  14.113 -0.1732  0.1238  0.0650
32014W        W48861   8.555  16.859  14.678  0.1020 -0.1521  0.2473
32015W        W48862  11.630  16.596   4.721  0.1243  0.0556 -0.3553
32016W        W48863  12.401   9.002  15.014 -0.2441 -0.1052 -0.0061
32017W        W48864  11.375  10.914  13.616  0.0485  0.0753 -0.2877
32018W        W48865   8.512  12.827   1.886  0.1678  0.0951  0.0097
32019W        W48866  16.033  13.626   1.433  0.1608  0.1085  0.1001
32020W        W48867   4.029  17.295  13.335  0.2774 -0.0567  0.1039
32021W        W48868   0.009  15.410   5.537  0.2772  0.1695  0.3040
32022W        W48869  14.677   6.520   3.138 -0.1472  0.1287 -0.0618
32023W        W48870   1.900   8.838   2.847  0.3629 -0.3722 -0.2989
32024W        W48871   6.191  10.663  14.501 -0.0167  0.0506 -0.0837
32025W        W48872   2.505  16.161   1.092 -0.0017 -0.4832  0.3087
32026W        W48873  16.213  15.160   0.026  0.1922 -0.2324  0.2201
32027W        W48874  10.539  11.502  12.058 -0.2072  0.2426 -0.0339
32028W        W48875  11.097   0.299   4.921  0.0322  0.1509 -0.2992
32029W        W48876  10.232   2.599  12.179  0.3048 -0.0444  0.2352
32030W        W48877   2.568  16.706  14.906 -0.1388  0.0902  0.0089
32031W        W48878  12.764  15.565  15.835  0.0469 -0.0672  0.0579
32032W        W48879   0.324   0.355   3.524 -0.0898  0.2528  0.0215
32033W        W48880  18.176  15.806   3.966  0.1513  0.0903  0.0600
32034W        W48881   4.635  17.083   4.485  0.1899 -0.2425 -0.2670
32035W        W48882   4.801   4.196   0.778  0.1060 -0.0122  0.1104
32036W        W48883   2.752   7.668  13.713 -0.2100  0.2733  0.3336
32037W        W48884  14.339   9.950   3.998 -0.2323 -0.2340 -0.2098
32038W        W48885  14.424   0.592   4.131  0.0957 -0.0749  0.0715
32039W        W48886  14.633   0.539   2.004  0.1214 -0.1838  0.1490
32040W        W48887  13.239   0.813  14.836  0.0364  0.3549 -0.1316
32041W        W48888   1.835  16.531  13.795  0.0405  0.0100  0.1246
32042W        W48889   4.499  14.674  13.726 -0.0665 -0.3633  0.1637
32043W        W48890   5.502  14.415  11.821  0.5854 -0.1989 -0.0313
32044W        W48891  14.526   0.101  11.835 -0.1111 -0.0563 -0.0148
32045W        W48892  17.780  13.790  14.710  0.2189 -0.0389  0.0917
32046W        W48893  12.369   4.653  15.406  0.0837  0.2387 -0.1259
32047W        W48894  15.334  13.589  12.276 -0.0562  0.0937  0.1427
32048W        W48895  15.309   3.113  15.507  0.3683 -0.0589  0.1668
32049W        W48896  10.947   2.606   0.845 -0.0347  0.0434  0.1633
32050W        W48897  15.418   6.039  12.606  0.0829  0.0308  0.0674
32051W        W48898   4.646   0.654  15.149 -0.2022 -0.1572 -0.2069
32052W        W48899  18.257  17.688  11.507  0.3886 -0.0528 -0.0249
32053W        W48900  10.436   3.076  13.044 -0.3253  0.0932 -0.0922
32054W        W48901   5.066   6.334   2.911  0.0727 -0.0122 -0.2123
32055W        W48902   7.668   5.472   4.137 -0.0818 -0.1958  0.2371
32056W        W48903   3.080  18.185   1.431  0.1066  0.1606 -0.0210
32057W        W48904   9.868  16.520  12.340  0.0526 -0.0564  0.1181
32058W        W48905   9.828  15.575   3.037 -0.0710 -0.0472  0.1213
32059W        W48906   0.638  13.356  12.023  0.3776  0.6058 -0.1065
32060W        W48907  11.958  17.942   3.303 -0.0597  0.1764 -0.0912
32061W        W48908  10.281  16.055   2.900  0.0241 -0.2705 -0.0294
32062W        W48909   5.774   4.323   1.630  0.2949  0.0888  0.1934
32063W        W48910  16.898  15.943   2.021  0.1533  0.0531  0.0621
32064W        W48911   4.523   5.438  11.647 -0.2302 -0.1741  0.0728
32065W        W48912  12.152  10.444  14.787 -0.2386  0.1919 -0.0633
32066W        W48913   8.570  14.713   5.529  0.0475 -0.1621 -0.3631
32067W        W48914   9.954   3.029   3.940  0.0776 -0.1503  0.2671
32068W        W48915  15.641   3.487  12.751  0.1734  0.0643 -0.3557
32069W        W48916   1.607   1.972   2.892 -0.4298  0.1220  0.0660
32070W        W48917   6.688   0.909   2.861 -0.1650 -0.1609  0.1851
32071W        W48918  12.494  14.435   5.536 -0.2040 -0.0778  0.1319
32072W        W48919  10.974   0.395   2.668  0.0227  0.1891 -0.1331
32073W        W48920   4.359  12.670  10.332  0.1142 -0.1664  0.3375
32074W        W48921  12.455   5.880  14.754 -0.1242 -0.1380 -0.0169
32075W        W48922   0.350  17.603  12.723  0.0147 -0.1464 -0.2325
32076W        W48923  13.432  15.111   5.139 -0.0086  0.0442  0.1301
32077W        W48924  16.167   3.368  10.885  0.0489 -0.0614  0.0251
32078W        W48925  16.823   3.685  14.912  0.1154  0.4467  0.1055
32079W        W48926  17.272   6.199   1.890 -0.0516  0.1836 -0.2604
32080W        W48927   0.866   4.167   0.559 -0.0237  0.0701  0.1364
32081W        W48928   1.651   7.639  15.188 -0.0933 -0.3034  0.1691
32082W        W48929  18.258  14.062  14.324  0.0304  0.0592  0.0043
32083W        W48930  14.809   6.201  11.077 -0.0628  0.0196  0.0393
32084W        W48931  15.122  17.873  14.475  0.1727  0.1459 -0.2803
32085W        W48932  12.115   8.300  14.747 -0.1123  0.1524  0.3069
32086W        W48933   3.571  17.703  10.992  0.0897  0.1117 -0.1129
32087W        W48934  14.532  13.758   4.556 -0.0925  0.0870 -0.0820
32088W        W48935   4.302  17.609   5.967 -0.0248  0.0301 -0.0744
32089W        W48936   3.765   0.835   0.143  0.0702 -0.0252  0.2976
32090W        W48937  10.043  13.578   3.462  0.2210  0.1467 -0.2670
32091W        W48938   1.034  17.377  15.252 -0.1157  0.1664 -0.0667
32092W        W48939   1.047  14.774   4.963  0.4813  0.0693  0.0900
32093W        W48940   1.217   4.601   0.699  0.1664 -0.1447 -0.1998
32094W        W48941   0.052  14.672   4.751 -0.4413 -0.0523  0.0093
32095W        W48942   1.056  14.229  11.581 -0.3086 -0.0020 -0.0017
32096W        W48943   5.686   8.471  15.227 -0.2145  0.0152 -0.2426
32097W        W48944   1.520  14.703   5.041  0.1920 -0.0815 -0.0425
32098W        W48945  10.916   2.952   1.878 -0.2993 -0.2235  0.1604
32099W        W48946   8.906  18.272   3.571 -0.1245 -0.0051  0.2716
32100W        W48947   0.174  15.350  13.240 -0.1257  0.0839 -0.0571
32101W        W48948  13.090   8.046  11.094 -0.1768  0.0906  0.0506
32102W        W48949   1.323   2.515  13.701  0.0920  0.0078  0.2508
32103W        W48950   3.524  11.328  12.717 -0.2068  0.1149  0.2477
32104W        W48951   0.222  15.053  12.776 -0.1897 -0.1882 -0.1199
32105W        W48952   3.919   3.615   3.807  0.0613 -0.1528 -0.2379
32106W        W48953  12.565  18.177  11.626  0.1448 -0.1941 -0.0310
32107W        W48954   3.550   3.970  14.045  0.1565 -0.2182  0.0815
32108W        W48955  10.829   5.986  15.407 -0.1759 -0.0125 -0.0313
32109W        W48956   4.497  13.631  14.825 -0.0108 -0.1737  0.0533
32110W        W48957   5.988   4.890  16.051 -0.0212 -0.0195 -0.0094
32111W        W48958   1.213   3.767  15.022  0.0194 -0.0227 -0.0229
32112W        W48959   6.096  10.101   2.045  0.1509 -0.2248 -0.1170
32113W        W48960   8.003   8.151   1.710  0.1006  0.0917 -0.3011
32114W        W48961  17.892   3.807   5.411 -0.2358 -0.1959 -0.1917
32115W        W48962   3.611   2.990   1.191  0.0583 -0.1309 -0.1533
32116W        W48963   1.273  17.937   1.834  0.1764 -0.1953 -0.0696
32117W        W48964   6.556   8.932  15.533 -0.0795  0.3719 -0.0619
32118W        W48965   4.247  10.522  13.584  0.1258  0.2371  0.0244
32119W        W48966  13.214   9.910  11.776  0.1052  0.1334 -0.4047
32120W        W48967   8.541   6.258  15.470  0.1265 -0.0655 -0.0591
32121W        W48968  16.963   9.499   1.028  0.1493 -0.0229  0.0807
32122W        W48969  14.517  14.905  14.595 -0.1474  0.0644  0.0388
32123W        W48970  10.824   9.466  11.402  0.0352  0.1131  0.2495
32124W        W48971  13.585   3.442  13.621  0.1196 -0.1367 -0.2102
32125W        W48972  11.460  17.363   3.869 -0.1405  0.0305 -0.5324
32126W        W48973   1.364  12.611   6.399 -0.0487 -0.0156 -0.3416
32127W        W48974  14.055  13.238   2.651 -0.0217  0.0214 -0.2440
32128W        W48975  12.271  17.733  11.523 -0.0559 -0.3701  0.0548
32129W        W48976  14.503  17.551  11.413  0.2541 -0.1435 -0.2492
32130W        W48977   5.546   6.538   2.448 -0.0331 -0.2141  0.1178
32131W        W48978  13.886   8.905   3.635  0.0514  0.2508  0.0315
32132W        W48979   2.855  17.870  13.632  0.0154  0.1218 -0.3150
32133W        W48980   8.012   9.472   0.554 -0.0147  0.0196  0.0007
32134W        W48981   4.622   4.765  15.302 -0.1630 -0.2825  0.1475
32135W        W48982  10.822  16.890   0.449 -0.2873  0.0710 -0.0093
32136W        W48983   8.175  10.278  12.677 -0.1486  0.2588  0.0019
32137W        W48984   3.959   9.624  12.592  0.2233 -0.1476 -0.0132
32138W        W48985  13.173  15.365   0.324 -0.1047  0.1255 -0.0623
32139W        W48986  13.444   4.361  10.000 -0.0633 -0.3673 -0.0464
32140W        W48987  14.908   5.695   1.469  0.3438  0.3299 -0.1252
32141W        W48988  12.772   2.005  14.221 -0.0243 -0.3272 -0.0795
32142W        W48989   5.745   6.441  12.770  0.0186 -0.0897  0.0465
32143W        W48990   6.058   5.944  15.207  0.2746 -0.0056  0.3551
32144W        W48991  13.328   5.134   0.393 -0.0309 -0.3875  0.0928
32145W        W48992  13.752   9.974  11.883  0.0338  0.1997  0.0498
32146W        W48993  12.886  17.156  14.879 -0.2917  0.2752 -0.1560
32147W        W48994   0.198  15.027   0.624  0.2438 -0.0395  0.0825
32148W        W48995   1.458   0.637  11.031  0.0907  0.3264 -0.2010
32149W        W48996   3.508  14.538   3.271 -0.0343  0.1040  0.0917
32150W        W48997  16.553   9.738   1.282 -0.0480 -0.1447  0.0419
32151W        W48998  15.322   4.026   2.036 -0.2332 -0.0633 -0.0418
32152W        W48999  12.857   2.730   3.048  0.1283 -0.0561 -0.0562
32153W        W49000   5.182  17.864   4.822 -0.1063  0.2322  0.1228
32154W        W49001  17.233  10.601   5.246 -0.0324 -0.2025 -0.4006
32155W        W49002  12.148   0.075   0.922 -0.1510 -0.2329  0.2369
32156W        W49003  15.299  14.937   0.193 -0.3206  0.0641  0.1806
32157W        W49004  17.231   0.796   2.224 -0.1126 -0.2355 -0.2920
32158W        W49005   4.537   9.085  14.718 -0.2760  0.3234  0.4143
32159W        W49006   9.432  17.064   2.183 -0.0971 -0.0589 -0.0272
32160W        W49007   9.556   0.349   3.338 -0.1229 -0.1045 -0.0786
32161W        W49008  18.086   0.916  16.083  0.1033  0.1631  0.2178
32162W        W49009  13.826   5.276   0.582  0.1290  0.2247  0.1330
32163W        W49010   1.123  16.894  13.379  0.1245  0.1516  0.1945
32164W        W49011  14.766   3.262   2.091  0.4359  0.4569 -0.3600
32165W        W49012   2.302   5.411   4.506  0.4919 -0.0112  0.1483
32166W        W49013  15.092   1.769  16.027 -0.2781  0.1338 -0.0611
32167W        W49014  15.269   9.940   2.223 -0.0980 -0.2413  0.1612
32168W        W49015   0.575  17.877   3.094  0.1521 -0.2564 -0.2017
32169W        W49016  15.460   8.884   0.956  0.0846 -0.0492  0.2850
32170W        W49017   5.511   4.610   3.091  0.1482  0.0465 -0.2367
32171W        W49018  11.473  14.957   2.389  0.1852 -0.1232 -0.1770
32172W        W49019   7.828  13.151   4.865 -0.0494 -0.2282  0.3470
32173W        W49020  14.801  16.954  14.824 -0.1773  0.0030 -0.1344
32174W        W49021   9.435   8.829  15.419  0.2731  0.0047 -0.0628
32175W        W49022   5.558  10.205  13.167  0.0409 -0.0057 -0.1708
32176W        W49023  12.886  13.211   4.594 -0.0633  0.1699  0.0234
32177W        W49024  15.379  18.260  11.948  0.2445 -0.3686  0.2021
32178W        W49025  12.732   0.088  11.273 -0.0472 -0.0485  0.2995
32179W        W49026  11.896  12.971   0.423 -0.0485 -0.1476 -0.0456
32180W        W49027  16.010  16.997   4.149  0.1252 -0.0662  0.0231
32181W        W49028  10.981  12.597   5.971 -0.1920 -0.1210 -0.0368
32182W        W49029  14.477   4.896  11.164 -0.1186  0.0480 -0.2225
32183W        W49030   6.429  10.343   2.801  0.2089  0.1058 -0.0801
32184W        W49031   8.654  14.844   0.189  0.0064  0.1997 -0.1583
32185W        W49032   7.672   9.303   5.097  0.0357  0.0553 -0.3540
32186W        W49033  15.829  18.017  16.148  0.0921  0.1921  0.0828
32187W        W49034   5.523  17.979   1.495  0.1216  0.0126 -0.2989
32188ION     NA49035  11.584   7.773   3.008  0.3101 -0.0055 -0.1138
32189ION     NA49036  12.386   1.179  10.479 -0.0845 -0.0119  0.0260
32190ION     NA49037   4.576   6.963  10.665 -0.4713  0.3475  0.1166
32191ION     NA49038   3.513  16.861  10.469  0.0842  0.1184 -0.0296
32192ION     NA49039  12.234   9.251  13.195  0.0879  0.0464  0.1435
32193ION     NA49040   6.690  16.805  14.506 -0.0849 -0.0922 -0.1596
32194ION     NA49041  16.643  15.275  10.514 -0.1014  0.3733  0.2811
32195ION     NA49042  12.050   3.130  16.142 -0.1069 -0.0196 -0.0056
32196ION     NA49043   0.337  10.951  12.834  0.2469  0.0825  0.0153
32197ION     NA49044   1.232  16.918   1.416  0.1053 -0.1272  0.0546
32198ION     NA49045   2.040   7.504   3.446  0.3054 -0.0162  0.0095
32199ION     NA49046   1.485  17.812  10.580  0.0989 -0.1440 -0.1990
32200ION     NA49047  17.894   4.815   5.396  0.2013 -0.1197 -0.0121
32201ION     NA49048  14.566   4.157   5.029  0.2073 -0.0114  0.1069
32202ION     NA49049   6.666  13.059   5.954  0.0911  0.2449 -0.0538
32203ION     NA49050   9.615  18.126   0.406 -0.1208  0.3127  0.0073
32204ION     NA49051   6.552  12.124   3.451 -0.1437  0.3335 -0.2196
32205ION     NA49052   7.586  16.528  15.452  0.2479  0.0138 -0.0864
32206ION     NA49053   6.497  14.425   2.505 -0.0632  0.2564 -0.1126
32207ION     NA49054   7.480   7.068   6.021  0.0079  0.0402 -0.0268
32208ION     NA49055  10.748  14.041  10.742  0.3010 -0.0972 -0.1916
32209ION     NA49056   5.688   4.898   6.038  0.0951 -0.2229  0.0333
32210ION     NA49057   0.473  14.946   6.170  0.1992  0.0828  0.3221
32211ION     NA49058   3.446   8.641   0.319  0.1865 -0.0486  0.2638
32212ION     NA49059  15.593   9.887  10.340  0.3804 -0.2085  0.3837
32213ION     NA49060  16.773  11.109  11.340  0.2975 -0.0708  0.1906
32214ION     NA49061   3.514   9.000  10.618 -0.0665 -0.1131 -0.3051
32215ION     NA49062   1.994   2.211  12.424 -0.0273 -0.4016 -0.3910
32216ION     NA49063  13.759   9.323  11.117  0.1393 -0.0916 -0.1310
32217ION     NA49064   9.751   3.746  10.304  0.3528  0.3987  0.3825
32218ION     NA49065   2.405   5.154  15.395 -0.2217  0.1718 -0.5328
32219ION     NA49066   7.940   9.102  10.722 -0.0149 -0.3347  0.0228
32220ION     NA49067  15.347   8.363   0.132  0.2986  0.3161  0.1748
32221ION     NA49068   5.066   1.069   0.199  0.0479 -0.3221 -0.3438
32222ION     NA49069  10.033  15.906  10.622 -0.3751 -0.0665  0.1218
32223ION     NA49070   0.227  16.246   5.716 -0.0822  0.0382  0.1722
32224ION     NA49071   4.865  11.019  10.687 -0.1308 -0.3151 -0.2223
32225ION     NA49072  11.669   3.426  14.258  0.1977 -0.0836 -0.0756
32226ION     NA49073   0.599   6.353   4.422 -0.2173  0.0379 -0.4141
32227ION     NA49074  15.252  13.691   5.740  0.1246 -0.0186  0.2074
32228ION     NA49075  15.055  10.288   1.094 -0.0685 -0.0332  0.3437
32229ION     NA49076  10.964   9.039   4.884  0.1373 -0.1482 -0.1165
32230ION     NA49077   3.899   7.622   3.334 -0.1367 -0.0879  0.2248
32231ION     NA49078  14.326   7.625   2.414  0.0451 -0.0353  0.3968
32232ION     NA49079   8.028  15.282  16.068 -0.1675  0.1507 -0.0347
32233ION     NA49080  14.893  17.886  10.598  0.1603  0.6238  0.0888
32234ION     NA49081   6.211   6.867   6.298  0.2308 -0.1740 -0.1064
32235ION     NA49082   8.031   2.371  10.361  0.0372 -0.2661  0.0434
32236ION     NA49083   9.420  17.291  10.749  0.1591 -0.1166  0.1882
32237ION     NA49084   3.287   6.455   6.077  0.1692  0.2741  0.1023
32238ION     NA49085   7.070   4.345   3.684  0.3303 -0.3446  0.1253
32239ION     NA49086  13.465  16.283   2.400  0.0903 -0.3828 -0.1774
32240ION     NA49087   1.115  16.676   5.665 -0.1464 -0.3465 -0.0885
32241ION     NA49088   4.995  11.997  14.548  0.1775 -0.0660  0.1814
32242ION     NA49089  17.885   4.999  14.814  0.2570 -0.1782 -0.1728
32243ION     NA49090   7.671  15.103  15.076 -0.0879  0.0817  0.0268
32244ION     NA49091  17.787  14.362  12.006 -0.0137 -0.2256  0.1906
32245ION     NA49092   0.062  17.273  10.380  0.0898  0.0944  0.1116
32246ION     NA49093  13.655   6.523   9.997  0.0721 -0.0304 -0.2079
32247ION     NA49094  11.560  12.234  16.136  0.2091 -0.2622 -0.1400
32248ION     NA49095   4.571   3.373   0.258 -0.3446  0.1405 -0.0778
32249ION     NA49096   3.586   4.200   1.691  0.2454  0.1731 -0.0820
32250ION     NA49097  17.464  15.289   1.690  0.0833 -0.0297 -0.0401
32251ION     NA49098   6.642   1.817  10.743 -0.0370  0.1262  0.2546
32252ION     NA49099   4.712  10.546   2.929 -0.0314  0.1999 -0.0219
32253ION     NA49100  10.179  13.224  10.724  0.1919  0.0753  0.0093
32254ION     NA49101   8.717  15.394  11.005  0.2431  0.3396 -0.1944
32255ION     NA49102  11.113   5.667   2.280  0.1311 -0.1596  0.3322
32256ION     NA49103  14.125  16.884  10.687 -0.0834  0.0361  0.2620
32257ION     NA49104  15.494  11.024  10.201 -0.1109 -0.0268 -0.1726
32258ION     NA49105  12.326  17.783   3.647 -0.2118 -0.0814 -0.1735
32259ION     NA49106  16.449  11.472  12.540 -0.1406  0.0817 -0.0728
32260ION     NA49107  10.841   2.031  10.020  0.0608  0.1069  0.0166
32261ION     NA49108  11.768  10.480   0.090 -0.1651  0.2142 -0.0382
32262ION     NA49109   5.218   9.607  10.843  0.1092  0.3894  0.3167
32263ION     NA49110  12.248   2.309  11.213 -0.2072 -0.0431  0.1385
32264ION     NA49111   6.393  12.183   6.252 -0.0070  0.0905 -0.0728
32265ION     NA49112   6.964  15.462   3.956 -0.0116  0.1719  0.0475
32266ION     NA49113  17.457   0.457   4.082 -0.0296  0.0609  0.1826
32267ION     NA49114   4.999   7.308   2.090  0.0099  0.1376 -0.0363
32268ION     NA49115  14.949  11.992   3.800  0.0005 -0.0283 -0.2053
32269ION     NA49116   0.143   0.307  10.410  0.2961  0.0903 -0.0920
32270ION     NA49117  11.194   5.574   1.388 -0.1609  0.0417  0.1866
32271ION     NA49118   7.706   5.054  10.540  0.0356 -0.0245 -0.1535
32272ION     NA49119   7.517  15.429  10.600 -0.0074  0.1470  0.2094
32273ION     NA49120   4.728  13.627  10.549  0.2121  0.1548 -0.1438
32274ION     NA49121   8.684  17.017  12.139  0.0171 -0.0483 -0.3811
32275ION     NA49122   2.873   7.769  10.781 -0.3085 -0.0817 -0.1130
32276ION     NA49123  17.930  15.496   2.666 -0.2543  0.1776 -0.0448
32277ION     NA49124   8.232  15.832  10.565  0.2304  0.0202  0.1140
32278ION     NA49125  18.096   9.628  10.633 -0.2491  0.2213 -0.0425
32279ION     NA49126   2.062  12.328   5.122 -0.0850  0.0728 -0.1688
32280ION     NA49127  17.834  13.677   0.153  0.3055 -0.0326 -0.2173
32281ION     NA49128  10.620   8.893  14.258  0.2625  0.0477 -0.0151
32282ION     NA49129   8.890   7.014  10.216  0.2110 -0.1609  0.2962
32283ION     NA49130  13.932  17.893   4.987  0.0069  0.1288  0.0837
32284ION     NA49131  15.856   2.879   3.929  0.2127  0.1145 -0.0392
32285ION     NA49132  10.431  16.163  16.134  0.0314 -0.3193 -0.0294
32286ION     NA49133   6.312  11.280  10.858 -0.2170 -0.1797  0.1804
32287ION     NA49134  17.462   2.558  14.517 -0.1229 -0.1600  0.2326
32288ION     NA49135   9.442   8.076  10.346  0.2532 -0.1093  0.0982
32289ION     NA49136   2.682   2.259   5.919  0.1338  0.1801  0.0840
32290ION     NA49137  15.558  12.692   5.511 -0.0573  0.1280 -0.0196
32291ION     NA49138   9.524  10.680   1.125  0.0563 -0.2785  0.3023
32292ION     NA49139   4.887  17.306  10.333  0.1945  0.2206  0.2160
32293ION     NA49140   1.087   4.195   5.456  0.1147  0.2287  0.0103
32294ION     NA49141  17.223  13.142  10.695 -0.0941  0.1991 -0.3087
32295ION     NA49142  15.105   7.395  10.117 -0.0703  0.0844 -0.0389
32296ION     NA49143  15.262   6.996  12.494 -0.0501 -0.1717 -0.0501
32297ION     NA49144   3.120  10.099  12.780  0.1124  0.0919  0.0053
32298ION     NA49145  11.339  17.910   5.874 -0.1911  0.0678 -0.1360
32299ION     NA49146   1.407  17.742   5.759  0.1812 -0.1567 -0.1969
32300ION     NA49147   0.581   1.466   5.771 -0.2839  0.0276 -0.1704
32301ION     NA49148   1.771  12.344   1.711  0.0286  0.0880 -0.1392
32302ION     NA49149  14.887   5.323   3.871  0.3186 -0.1417  0.0403
32303ION     NA49150   3.550  16.994   5.880  0.0659  0.0553 -0.0880
32304ION     NA49151  18.139   3.126   2.769  0.0829 -0.1478 -0.2707
32305ION     NA49152   1.989  13.641  10.765 -0.0545 -0.1423 -0.0059
32306ION     NA49153   2.774   6.977   5.141  0.1824 -0.1158 -0.2421
32307ION     NA49154  12.716   1.552   5.058 -0.3350  0.3731  0.1176
32308ION     NA49155  10.324  17.637  15.328 -0.0934 -0.0905  0.1894
32309ION     NA49156   1.037   2.448   5.074 -0.3462 -0.0092  0.0355
32310ION     NA49157  10.442   9.881  13.430 -0.1614 -0.5043 -0.1984
32311ION     NA49158   0.844  15.671  10.511 -0.1537  0.0319 -0.1968
32312ION     NA49159  14.639  12.480   0.157  0.1126 -0.1485 -0.2092
32313ION     NA49160  17.316   9.841  10.762  0.0242 -0.3103 -0.1592
32314ION     NA49161   0.588   6.289  15.668 -0.1786 -0.2741  0.3550
32315ION     NA49162  17.654  14.940  15.204 -0.0083 -0.0053 -0.2393
32316ION     NA49163   1.621   2.064  13.571  0.2311 -0.1422 -0.4832
32317ION     NA49164  15.465  17.710  15.597 -0.0368  0.1142 -0.1226
32318ION     NA49165   0.526  10.713  14.205  0.0263 -0.1224  0.1098
32319ION     NA49166  12.477   8.931   2.342  0.0702 -0.3350  0.1699
32320ION     NA49167   0.077   9.476  15.346 -0.0703 -0.0974 -0.3302
32321ION     NA49168   6.796   3.384   2.933  0.1247  0.1446 -0.0638
32322ION     NA49169   0.618  13.308  14.762 -0.0572  0.2901  0.0650
32323ION     NA49170  11.861  17.609  10.514  0.0334 -0.0482 -0.2792
32324ION     NA49171  17.724   9.700  16.045  0.0152  0.1434  0.0931
32325ION     NA49172   4.674  12.701   1.926  0.0566  0.0056  0.1146
32326ION     NA49173  14.773  14.432  15.865 -0.0584 -0.0778 -0.2346
32327ION     NA49174   0.006   4.352  12.404 -0.1272 -0.0791 -0.1821
32328ION     NA49175  10.609  10.622   5.623  0.1151 -0.1389 -0.0761
32329ION     NA49176  11.088  15.477   1.802 -0.2922 -0.0329  0.2272
32330ION     NA49177   3.395  13.539   1.549  0.1837  0.2602 -0.2603
32331ION     NA49178  12.490   0.306  10.514  0.1576  0.0980 -0.2505
32332ION     NA49179  12.055  12.000  10.625  0.0107 -0.0136 -0.0069
32333ION     NA49180   0.902   1.981   0.702 -0.1735 -0.1463 -0.0621
32334ION     NA49181  15.768  16.004  11.939 -0.0959 -0.0030  0.2767
32335ION     NA49182  15.991  14.725   4.315 -0.2398 -0.0852 -0.0136
32336ION     NA49183  14.762   3.374   5.482  0.0270  0.0307  0.0737
32337ION     NA49184   4.396   5.543  10.582 -0.2282 -0.0011  0.0644
32338ION     NA49185   4.340   7.623   6.092 -0.0483 -0.0728  0.1098
32339ION     NA49186   1.205  13.373   5.984  0.1629  0.1720 -0.0173
32340ION     NA49187   9.264  12.522   4.513  0.1092  0.2036  0.0418
32341ION     NA49188   2.102   2.444  13.767  0.2481  0.3777  0.0229
32342ION     NA49189  12.264   7.612  13.467 -0.2230  0.0736  0.0790
32343ION     NA49190  10.588  13.914   5.720 -0.3420  0.2126  0.2759
32344ION     NA49191  16.150   4.141   3.733  0.1019  0.2600 -0.4278
32345ION     NA49192  15.996  11.859  10.557  0.0178 -0.0138 -0.0712
32346ION     NA49193  12.048  17.412   2.438  0.1222  0.0363  0.3284
32347ION     NA49194   9.434   2.890  10.524  0.0834  0.0441 -0.0867
32348ION     NA49195   4.809   1.169  14.818  0.2195  0.1109 -0.1786
32349ION     NA49196   7.819   7.444   5.582 -0.0141 -0.2157 -0.0140
32350ION     NA49197   2.431   9.436  14.315  0.0882 -0.0658  0.1060
32351ION     NA49198   8.689  14.322   4.367 -0.4077  0.0455 -0.0335
32352ION     NA49199   7.143   0.233   3.660 -0.1031  0.2367 -0.1460
32353ION     NA49200  17.064  11.960  11.766  0.0789  0.1522 -0.3136
32354ION     NA49201  10.645   4.441  12.307  0.0652 -0.2736 -0.0306
32355ION     NA49202  12.879   8.358  10.220  0.1952  0.3058  0.2697
32356ION     NA49203   1.744   7.808   5.512 -0.2272  0.2818 -0.0350
32357ION     NA49204  13.482  12.945   2.249 -0.0241 -0.1116  0.1088
32358ION     NA49205   0.554   7.829  10.606  0.0099 -0.0276 -0.0335
32359ION     NA49206   7.673  11.724   4.365 -0.0715  0.0744  0.1950
32360ION     NA49207  10.570   2.406   5.270  0.0386 -0.0765  0.0130
32361ION     NA49208  12.535   0.380   1.185 -0.1614 -0.0057  0.0037
32362ION     NA49209  15.227   5.481  14.068  0.1999 -0.0073  0.0131
32363ION     NA49210   4.070   3.094  15.327  0.0978  0.0526 -0.1670
32364ION     NA49211  10.584   2.475   2.595 -0.0410  0.1312 -0.1012
32365ION     NA49212  15.163   2.256  10.035  0.0990  0.1460 -0.3110
32366ION     NA49213  12.814   3.023   0.823 -0.1489  0.1964 -0.2696
32367ION     NA49214   3.866   4.749   2.266 -0.1762  0.0914  0.2342
32368ION     NA49215   8.325   3.774   4.055 -0.3989  0.3163  0.3144
32369ION     NA49216  17.395   2.306   4.605  0.1421  0.4116  0.1996
32370ION     NA49217   1.126   9.675   2.250  0.0512  0.0902  0.0481
32371ION     NA49218   8.486   4.036  15.428 -0.2842  0.2879 -0.0242
32372ION     NA49219   5.881   5.771  12.221  0.0697  0.0314  0.2942
32373ION     NA49220  12.846  10.004  15.184  0.0534 -0.0674  0.0665
32374ION     NA49221   8.983  13.777  13.708 -0.1946  0.1566  0.3148
32375ION     NA49222  12.371  10.930  13.573 -0.1453 -0.0455 -0.1426
32376ION     NA49223   3.422  15.963  14.412  0.2674  0.0426  0.0603
32377ION     NA49224   9.780  11.097  10.710 -0.1355 -0.1737 -0.1769
32378ION     NA49225   5.570   5.857   1.556 -0.1677  0.3680  0.0884
32379ION     NA49226   8.098  16.684   6.090  0.0066 -0.0021 -0.2462
32380ION     NA49227   2.761  16.835   1.478 -0.1059 -0.0636  0.1500
32381ION     NA49228   1.533   0.058   5.711  0.0607 -0.0478  0.1093
32382ION     NA49229  16.051   6.180   5.319 -0.2722  0.0329  0.2066
32383ION     NA49230   6.454  10.796   5.103  0.1321 -0.1273  0.0899
32384ION     NA49231  13.181  12.893   5.338 -0.0512  0.1093  0.0948
32385ION     NA49232  13.519   4.624   1.172  0.2661 -0.0612 -0.1403
32386ION     NA49233  14.976   5.068   4.947 -0.0082  0.1586 -0.2260
32387ION     NA49234   2.987   9.520   0.663  0.0892 -0.2268 -0.1560
32388ION     NA49235  12.580   7.626   0.107 -0.2428  0.4479 -0.1514
32389ION     NA49236   8.393  10.571  10.751 -0.0826  0.1343  0.0103
32390ION     NA49237   4.997   8.631   0.117  0.0165  0.1050 -0.1235
32391ION     NA49238   2.478   8.073   5.985  0.1767  0.0807 -0.2191
32392ION     NA49239   8.742   2.954  11.046  0.0109 -0.1604 -0.4262
32393ION     NA49240   4.083  10.854  16.075  0.3345 -0.0398 -0.0860
32394ION     NA49241   2.683  14.372  10.629 -0.0589  0.4349 -0.2429
32395ION     NA49242  15.679   1.197  14.689  0.0938  0.1297  0.0666
32396ION     NA49243   6.792  13.129  13.118 -0.0680  0.2053  0.0234
32397ION     NA49244   5.142   6.277   4.362  0.0259  0.4049 -0.0075
32398ION     NA49245   7.682   3.212   1.755 -0.3371  0.1749  0.1738
32399ION     NA49246   3.355   7.114  14.819 -0.1635 -0.0943 -0.0326
32400ION     NA49247   2.083  16.837   0.770  0.3698  0.0331 -0.4801
32401ION     NA49248  14.418  14.534   1.331 -0.3120 -0.0495 -0.1294
32402ION     NA49249   3.212  16.105   5.750  0.1974  0.0513 -0.3747
32403ION     NA49250   5.909  13.190  13.630  0.1943 -0.1422  0.0616
32404ION     NA49251   4.384   1.882   4.494  0.1065  0.1534  0.1308
32405ION     NA49252   8.406  17.027   4.991 -0.3243 -0.0318  0.0844
32406ION     NA49253   3.847  10.523   2.579 -0.0929  0.4463  0.1682
32407ION     NA49254  12.348  11.240  15.434  0.0662 -0.1402 -0.0510
32408ION     NA49255   4.807   5.090  14.405 -0.2115 -0.1587 -0.0813
32409ION     NA49256   4.465  10.130  10.874 -0.0516  0.0277  0.0521
32410ION     NA49257  14.391  15.295  10.752  0.3338  0.2506 -0.1344
32411ION     NA49258   1.806   3.999   0.492 -0.0677  0.3919 -0.0891
32412ION     NA49259  11.361   7.627   5.530 -0.1016  0.0793 -0.3688
32413ION     NA49260  16.711  11.294   0.614  0.0460  0.1347  0.2429
32414ION     NA49261  12.703  17.146  10.732  0.2012 -0.2351 -0.2440
32415ION     NA49262  15.374   3.464  12.061 -0.0931  0.0376  0.3435
32416ION     NA49263   1.515  12.598  11.878 -0.1859 -0.2438  0.0676
32417ION     NA49264   7.084   9.301   0.175 -0.2656  0.0219 -0.1213
32418ION     NA49265  11.564  15.077   0.685  0.1923  0.0249 -0.2872
32419ION     NA49266  10.629  15.932  13.167 -0.1243 -0.2891  0.2416
32420ION     NA49267   0.295  16.000   1.935 -0.3891  0.1696 -0.1080
32421ION     NA49268   2.705   6.223  11.318  0.4625 -0.2220 -0.0971
32422ION     NA49269   0.215   8.668  11.082  0.1073 -0.1278 -0.1878
32423ION     NA49270  11.080  11.294   2.941 -0.1656  0.2627  0.0701
32424ION     NA49271   1.247  14.388  13.205 -0.0073 -0.0821 -0.1628
32425ION     NA49272   0.697  18.002  10.440 -0.1489 -0.2866  0.1099
32426ION     NA49273  16.209  10.400   6.045  0.3858  0.0097  0.0820
32427ION     NA49274   0.613   1.438  10.583 -0.2779 -0.0145  0.0496
32428ION     NA49275  16.805   8.980  10.514  0.1969  0.2571  0.3242
32429ION     NA49276   3.245   5.366   0.230 -0.1990 -0.1943 -0.0112
32430ION     NA49277   6.998   4.572  10.542 -0.0491  0.2004  0.1437
32431ION     NA49278   2.685  13.092  10.771 -0.0167  0.1234 -0.2869
32432ION     NA49279  11.399  14.657  10.840  0.1174  0.0000 -0.0319
32433ION     NA49280  17.730  17.029   1.622  0.0142  0.0783  0.2125
32434ION     NA49281   3.540   6.709  10.850 -0.0538 -0.3272  0.1920
32435ION     NA49282   7.233  11.168  11.775  0.1324 -0.2278  0.0587
32436ION     NA49283   7.703   6.601  15.606 -0.0164  0.2036  0.0619
32437ION     NA49284   4.019   9.745   5.376 -0.0746 -0.3319  0.1529
32438ION     NA49285   9.413  16.877   3.099 -0.0641  0.1907 -0.1726
32439ION     NA49286  16.358  10.504  10.649 -0.2948 -0.2907 -0.2332
32440ION     NA49287  13.273  15.817  10.770 -0.0909 -0.1777  0.1238
32441ION     NA49288   0.750  13.570   4.671 -0.0883  0.0478 -0.2959
32442ION     NA49289   2.832   9.067   1.643 -0.2265  0.1262 -0.1390
32443ION     NA49290   7.158   2.318   4.508 -0.1288  0.1680  0.1010
32444ION     NA49291   2.813  10.409   5.243 -0.0563  0.0903 -0.0099
32445ION     NA49292   2.878   7.293   1.222 -0.0971 -0.0683  0.3331
32446ION     NA49293  17.182   4.809   1.853  0.1095  0.0098 -0.0087
32447ION     NA49294   9.088   0.575   0.262  0.2560 -0.3479 -0.0287
32448ION     NA49295   6.335  11.544  13.992  0.0464 -0.1795 -0.0116
32449ION     NA49296   7.430   4.139  11.759  0.1073 -0.0362  0.1383
32450ION     NA49297   7.471   1.007   0.356 -0.1387  0.1081 -0.3293
32451ION     NA49298  15.196   2.372   0.524 -0.1505  0.0646 -0.1929
32452ION     NA49299   8.056   2.700  14.695  0.3311 -0.3054 -0.1470
32453ION     NA49300   8.392   8.606   5.888  0.3178 -0.1137 -0.0134
32454ION     NA49301   0.505   7.280   2.532 -0.0989 -0.0397 -0.0542
32455ION     NA49302   8.028  15.634   1.786  0.2317  0.2974  0.0440
32456ION     NA49303  16.001  11.571   0.742 -0.1155 -0.0563 -0.3827
32457ION     NA49304   8.275   0.076   3.008 -0.3407  0.0866 -0.2030
32458ION     NA49305  11.546   8.047  13.708  0.0355  0.0378  0.2205
32459ION     NA49306   2.780   4.227  10.554  0.2426  0.3111 -0.4803
32460ION     NA49307  16.967   7.364   9.902 -0.0104 -0.0339  0.3559
32461ION     NA49308   5.043   8.344  12.499 -0.1256 -0.1894  0.0743
32462ION     NA49309   9.323  10.217  10.851  0.2556  0.1653  0.0352
32463ION     NA49310  13.229   7.702   5.395 -0.2141  0.0680  0.0084
32464ION     NA49311   7.987   0.404  10.699  0.0757  0.1664  0.2445
32465ION     NA49312   0.064   7.636   0.741 -0.0134  0.2197 -0.1141
32466ION     NA49313   7.587   7.897   1.457 -0.2748 -0.1182  0.1648
32467ION     NA49314   6.741  14.804   5.745  0.1159  0.0828 -0.1926
32468ION     NA49315  17.984   7.074   5.035 -0.3414  0.0707 -0.1183
32469ION     NA49316  13.878  14.076   2.177  0.1321 -0.2874 -0.1073
32470ION     NA49317   9.461   4.818   5.296  0.0086 -0.0176  0.2788
32471ION     NA49318  12.511   2.221  16.015  0.1814  0.1679 -0.1312
32472ION     NA49319   9.483  11.392   6.035 -0.0300  0.2159 -0.1452
32473ION     NA49320  17.126   9.745   3.764 -0.1410 -0.1864  0.4705
32474ION     NA49321   0.171   2.265  14.689 -0.0067 -0.0451 -0.1449
32475ION     NA49322   7.196   1.003   5.802 -0.3635  0.1749  0.2321
32476ION     NA49323   6.053  12.796   6.268  0.1746  0.0505 -0.4361
32477ION     NA49324   1.231   0.767   2.405 -0.4195  0.0553 -0.0242
32478ION     NA49325  17.441  13.066  12.143  0.0673 -0.1128 -0.1712
32479ION     NA49326   2.939   7.916   6.139  0.1453  0.0529 -0.2871
32480ION     NA49327  17.215  15.899  13.657  0.2439 -0.1100  0.1481
32481ION     NA49328  18.185   7.565  14.709  0.1254 -0.1401  0.0865
32482ION     NA49329   8.483   5.490   4.691  0.1840  0.1005 -0.1684
32483ION     NA49330  13.398   0.010  10.698 -0.1315  0.0331 -0.0837
32484ION     NA49331   9.838  14.581  14.649  0.2007 -0.1887 -0.2902
32485ION     NA49332   1.876  14.762   2.996 -0.0825 -0.1417 -0.0213
32486ION     NA49333   0.435  13.680   5.819  0.3599  0.0250  0.2145
32487ION     NA49334  10.645   5.784   5.345  0.0747  0.0201  0.4081
32488ION     NA49335   9.715   0.897   3.870 -0.1081 -0.0487 -0.0780
32489ION     NA49336   2.997   1.484  16.053 -0.1850  0.0887  0.0773
32490ION     NA49337  13.903  12.422  14.605 -0.1382  0.2275  0.0710
32491ION     NA49338  10.403  15.023  10.637  0.1361  0.0743 -0.0684
32492ION     NA49339   9.358  17.530   1.264 -0.1395  0.0656  0.1393
32493ION     NA49340   6.574   5.239  12.384 -0.0481  0.0723  0.2550
32494ION     NA49341   4.287  15.325   5.878  0.0758  0.3481 -0.3160
32495ION     NA49342   8.093  11.372   6.113 -0.1066  0.1292 -0.2565
32496ION     NA49343   3.630   2.803   3.905  0.1111  0.1145  0.0428
32497ION     NA49344   6.962   8.144   5.737  0.2928  0.0032  0.1721
32498ION     NA49345   4.402  11.995  13.872  0.0531 -0.2456  0.2221
32499ION     NA49346   3.245  11.981   6.300  0.0116 -0.0188 -0.0068
32500ION     NA49347   0.487   2.880   5.494  0.2154 -0.0105  0.0015
32501ION     NA49348   9.327   6.931  13.977 -0.2582 -0.1728 -0.3718
32502ION     NA49349   6.893   4.409   1.182 -0.2402 -0.1399 -0.0183
32503ION     NA49350   0.243   4.349   0.433  0.1640 -0.0061 -0.1268
32504ION     NA49351   4.388   0.374   0.505 -0.0008 -0.1605  0.0446
32505ION     NA49352  13.827   7.210  15.396  0.0597  0.0640  0.1039
32506ION     NA49353   8.941  14.429   6.167  0.1042  0.1209 -0.0806
32507ION     NA49354   4.585  12.940  13.796 -0.3294 -0.1578  0.2160
32508ION     NA49355   0.826   8.615  15.674  0.0302  0.2832  0.1485
32509ION     NA49356   2.768   0.026   0.499 -0.3787  0.0665  0.3241
32510ION     NA49357  10.929   7.435  13.460  0.1987 -0.2397 -0.0856
32511ION     NA49358   5.767  17.193   0.388  0.0158 -0.3134  0.1150
32512ION     NA49359   0.041   7.426   5.728 -0.1046 -0.0968  0.1233
32513ION     NA49360   1.754   3.732   5.540  0.3767 -0.0552 -0.1014
32514ION     NA49361  10.467   7.796   5.265  0.2229  0.0120  0.0002
32515ION     NA49362   6.662  13.338  15.238 -0.1015 -0.0382  0.1354
32516ION     NA49363   7.124   9.912  13.142 -0.1583 -0.2739 -0.3387
32517ION     NA49364   2.038   9.212  10.743  0.2970  0.1377  0.2198
32518ION     NA49365   5.931   6.710  15.654 -0.2371 -0.1220  0.2849
32519ION     NA49366  15.545   0.030   1.865  0.2668 -0.3185 -0.4090
32520ION     NA49367   1.844   3.672   2.776 -0.1506  0.1924  0.1633
32521ION     NA49368   3.597  13.064   2.610  0.1041 -0.1789 -0.1634
32522ION     NA49369  15.002  17.331  10.604  0.0926  0.2807 -0.3405
32523ION     NA49370   1.212  12.200  10.682  0.0045 -0.0359 -0.0042
32524ION     NA49371  14.399   3.411   3.537 -0.1768  0.1159  0.2238
32525ION     NA49372   5.637  17.379   1.318  0.0677 -0.1736  0.2208
32526ION     NA49373   7.107   7.401  14.687  0.0406  0.1472  0.1688
32527ION     NA49374  11.570  11.142   1.721  0.2843 -0.3364 -0.1508
32528ION     NA49375  16.582  12.551  12.970 -0.0210 -0.0024 -0.0789
32529ION     NA49376  16.200  12.200  14.287  0.2315  0.1166 -0.3756
32530ION     NA49377  14.378   2.270   9.839 -0.1345  0.1638 -0.2050
32531ION     NA49378  13.933  15.386   3.469 -0.2149 -0.0360  0.0338
32532ION     NA49379  10.896   4.635  13.790 -0.0906  0.1738 -0.2127
32533ION     NA49380   1.597   3.565  11.581 -0.0999 -0.1441 -0.2042
32534ION     NA49381  12.405   6.954  12.801  0.1623 -0.0037  0.1543
32535ION     NA49382   2.170  15.670  10.494 -0.1960 -0.5637  0.2359
32536ION     NA49383  11.068  12.235   5.600  0.2077 -0.2206 -0.0204
32537ION     NA49384   8.856   5.392   5.648  0.1014 -0.1296 -0.1127
32538ION     NA49385   0.645  14.207   5.878 -0.0421  0.0621 -0.0296
32539ION     NA49386  17.824   4.546  10.148  0.0523  0.0837  0.0458
32540ION     NA49387   8.109   7.267   3.094 -0.0766  0.3513 -0.1647
32541ION     NA49388   4.352   5.973  13.108 -0.0844  0.0641  0.2425
32542ION     NA49389  14.490   2.366  15.443  0.1878 -0.0370  0.0017
32543ION     NA49390  12.737  18.106   2.727  0.3597  0.1562  0.0891
32544ION     NA49391   0.559  15.207   0.350  0.3227  0.1496  0.1581
32545ION     NA49392   7.809  14.041   2.384 -0.1336 -0.2408  0.2423
32546ION     NA49393  14.621   1.685  13.918  0.1082  0.3934 -0.4839
32547ION     NA49394  14.221   3.818  14.246 -0.0347  0.2328 -0.1712
32548ION     NA49395  15.835   8.998  10.346  0.0479  0.1866  0.1439
32549ION     NA49396   3.803   2.163   1.091 -0.0193 -0.2502 -0.2689
32550ION     NA49397   1.824  14.125   1.497 -0.0805  0.0063  0.0051
32551ION     NA49398   2.529  16.626  11.868  0.0224  0.2319 -0.1680
32552ION     NA49399  15.170   3.932  14.632 -0.0690  0.0403  0.1995
32553ION     NA49400  14.601   4.025   0.945 -0.1562  0.0696  0.0387
32554ION     NA49401   7.065   0.076   6.001 -0.0625 -0.0481 -0.3029
32555ION     NA49402  16.318  16.726  10.340  0.1245  0.0938  0.0586
32556ION     NA49403  12.736   2.053   0.579  0.1924 -0.1966 -0.0721
32557ION     NA49404   6.236  11.300   1.577 -0.2124 -0.0489  0.0614
32558ION     NA49405   9.090  13.313  15.635 -0.0466 -0.0592 -0.0144
32559ION     NA49406   0.285   0.868   2.179  0.1469 -0.2406 -0.0490
32560ION     NA49407   1.840   2.966   1.085  0.2889  0.2174 -0.3486
32561ION     NA49408   2.975   0.294  10.438 -0.0396 -0.0356  0.1401
32562ION     NA49409   4.139   2.938  14.252 -0.0566 -0.0940  0.2249
32563ION     NA49410   3.147  16.177  10.321  0.5026  0.0574  0.3314
32564ION     NA49411   8.688  10.232  12.398  0.0180 -0.1342 -0.0951
32565ION     NA49412  17.776   8.058   5.702  0.0849  0.1562 -0.1447
32566ION     NA49413   8.781   2.066  13.114  0.0495 -0.1497  0.1541
32567ION     NA49414  10.480   4.190   4.575 -0.0129 -0.0739 -0.1111
32568ION     NA49415   7.896  14.948  13.896  0.1669 -0.1913  0.1425
32569ION     NA49416  17.287   8.126  10.375  0.1340 -0.1442 -0.2111
32570ION     NA49417   1.915   4.085  10.407  0.0482 -0.0268 -0.2114
32571ION     NA49418   6.948  17.207   3.081  0.1298 -0.4542  0.3032
32572ION     NA49419  13.702  11.637  10.197  0.0679 -0.0010  0.1910
32573ION     NA49420   5.448   3.921  12.429 -0.0650 -0.0632  0.1874
32574ION     NA49421   9.841   0.409  15.239 -0.0897  0.4949  0.0236
32575ION     NA49422  11.109   7.539  12.005  0.1384  0.0032 -0.0115
32576ION     NA49423   4.496   9.211  10.965  0.1154  0.3212  0.1745
32577ION     NA49424   7.586   4.300   5.673  0.0170  0.0511  0.1284
32578ION     NA49425  16.829  18.264   2.097  0.0837  0.1872  0.1070
32579ION     NA49426   3.511   5.253   0.714  0.2487  0.1993 -0.0386
32580ION     NA49427  14.499   8.615  10.144 -0.3748  0.1374  0.0371
32581ION     NA49428  10.745   3.398   0.250  0.2733  0.0577 -0.2251
32582ION     NA49429   4.502  13.835   5.243  0.1681  0.0042 -0.0492
32583ION     NA49430   8.299  17.553   0.254 -0.0442 -0.1176 -0.2570
32584ION     NA49431  10.931   0.570  10.585 -0.1818  0.0790 -0.0824
32585ION     NA49432   9.269   2.414   5.615  0.1663  0.0154 -0.1403
32586ION     NA49433  15.450  11.122   0.869 -0.0414 -0.0608 -0.0684
32587ION     NA49434  10.584   3.982  10.003  0.2385 -0.0042  0.1007
32588ION     NA49435   5.879   0.764   3.110  0.0487  0.0911 -0.3318
32589ION     NA49436  17.877   8.963  10.621  0.0665 -0.0586 -0.1248
32590ION     NA49437   0.837  17.246   2.966 -0.3738  0.0809  0.4029
32591ION     NA49438   6.116   4.912  15.586  0.1470  0.3662  0.0638
32592ION     NA49439   6.887  13.803  10.607 -0.2677  0.1467  0.0098
32593ION     NA49440   3.820  17.402  14.870  0.1044  0.3590  0.1589
32594ION     NA49441   3.813  13.618   6.311  0.1321  0.0505 -0.1265
32595ION     NA49442   0.794  17.140   5.615  0.0178  0.0855 -0.0157
32596ION     NA49443   1.803  17.570   5.450 -0.1173 -0.2653 -0.4740
32597ION     NA49444  15.460   9.227   5.212 -0.1244 -0.1851 -0.0425
32598ION     NA49445   5.243   2.291  15.063 -0.1537 -0.3044 -0.1306
32599ION     NA49446   1.249   3.154  10.632 -0.1488 -0.1495  0.4031
32600ION     NA49447   9.764  11.296  14.691 -0.3657 -0.1427  0.5185
32601ION     NA49448   0.913   2.076  13.126  0.2709  0.0205 -0.0499
32602ION     NA49449   8.497   1.709  16.015  0.1404  0.0256 -0.0868
32603ION     NA49450   8.871  14.666  11.462 -0.1935  0.2821 -0.2842
32604ION     NA49451   3.558  14.691  10.246  0.1311  0.0505  0.1535
32605ION     NA49452  11.742   5.531  10.020 -0.0679 -0.1072 -0.1403
32606ION     NA49453   5.780   2.270  12.622 -0.1754  0.2043  0.2317
32607ION     NA49454  12.771   8.550   3.643 -0.0440  0.0931 -0.0333
32608ION     NA49455  10.027  13.652  14.353 -0.0168 -0.1435 -0.1434
32609ION     NA49456  14.651   6.968   1.770  0.1881 -0.3483 -0.0233
32610ION     NA49457   8.821   3.884   5.068 -0.3504 -0.1370  0.4013
32611ION     NA49458   0.015  17.673   2.533 -0.0216 -0.0628  0.1560
32612ION     NA49459  16.662   4.530   5.041 -0.3267 -0.0853  0.0466
32613ION     NA49460  17.680   7.945  12.215 -0.1520 -0.1320 -0.2356
32614ION     NA49461  17.947   8.605   3.387  0.0036 -0.0594 -0.1171
32615ION     NA49462   5.292  16.684  12.202  0.0933  0.1645  0.0923
32616ION     NA49463   9.495  12.444   6.004 -0.0176  0.0465 -0.0749
32617ION     NA49464   6.450   8.209   3.394 -0.1447  0.1840 -0.1218
32618ION     NA49465   6.057  17.831  14.103 -0.1223 -0.1577 -0.2697
32619ION     NA49466   3.056  14.465  13.280 -0.2612 -0.1431  0.0125
32620ION     NA49467  16.539  16.612   1.160  0.0054  0.0207 -0.3674
32621ION     NA49468  12.829   0.551   5.866 -0.0678 -0.3006 -0.0590
32622ION     NA49469   9.740   5.083  11.115  0.1875  0.0472 -0.2385
32623ION     NA49470   8.442  11.493  10.735 -0.0913 -0.0026 -0.3905
32624ION     NA49471   9.779   6.552  10.094  0.1309 -0.1304  0.2092
32625ION     NA49472   4.971  12.777   6.066  0.0006  0.2714  0.2575
32626ION     NA49473   2.636   5.954   5.365 -0.0626 -0.0010  0.0384
32627ION     NA49474  13.950  11.424   5.583  0.1318 -0.0797 -0.1283
32628ION     NA49475   8.985  14.651  12.980  0.0223  0.0447  0.0055
32629ION     NA49476   6.142   7.895   1.716 -0.1211 -0.2067 -0.0903
32630ION     NA49477  14.199  15.521  11.154  0.1876  0.0445 -0.1114
32631ION     NA49478   4.401  14.099  14.633 -0.3099 -0.3245 -0.0804
32632ION     NA49479  13.442   7.958  12.818 -0.1906 -0.0100 -0.1716
32633ION     NA49480   7.093   9.534  10.719  0.2910 -0.1672 -0.0600
32634ION     NA49481  16.935  14.664  13.473 -0.0273 -0.2610 -0.1819
32635ION     NA49482  10.590   9.356  10.664  0.1754  0.0907 -0.2066
32636ION     NA49483   8.904  16.221  11.414 -0.1590  0.0735  0.1316
32637ION     NA49484   5.328   6.918   0.042  0.1326  0.0598 -0.1028
32638ION     NA49485  13.919   2.358  13.740  0.1217  0.1336 -0.0545
32639ION     NA49486  10.929  17.359   5.354  0.0042  0.1045 -0.1770
32640ION     NA49487  15.928   7.302   1.099 -0.0868  0.0995 -0.4235
32641ION     NA49488   4.375  11.355  13.124 -0.1186  0.1666  0.3536
32642ION     NA49489  17.680  15.899  10.398 -0.3062 -0.1191 -0.0867
32643ION     NA49490   1.856  14.872  10.450 -0.0279 -0.0487 -0.0584
32644ION     NA49491   3.015  12.888   1.128 -0.1986 -0.1518  0.3814
32645ION     NA49492   2.827   5.105  11.222 -0.1892  0.0437  0.0126
32646ION     NA49493  14.501   0.267   3.674  0.1188 -0.0564  0.3446
32647ION     NA49494  16.958   7.759   3.548  0.0066 -0.1981  0.1601
32648ION     NA49495   5.306  13.930   2.340 -0.1828  0.2441  0.1547
32649ION     NA49496  10.740  18.175   3.060 -0.0639  0.0311  0.3654
32650ION     NA49497   6.281   9.567   5.640 -0.2555 -0.0372 -0.0286
32651ION     NA49498  11.439   1.594  15.528  0.3018  0.0889 -0.1221
32652ION     NA49499   5.506   6.277   5.926 -0.1307  0.1379 -0.2154
32653ION     NA49500   5.081  15.246   2.484 -0.1249  0.0057 -0.0870
32654ION     NA49501   1.772   9.962  14.842 -0.1721 -0.2041  0.0469
32655ION     NA49502  14.871  14.615   5.876  0.0588  0.2179  0.0294
32656ION     NA49503   8.203  15.684  12.113 -0.0447 -0.0657  0.3462
32657ION     NA49504   3.550   9.855  10.545 -0.4395  0.0161 -0.1315
32658ION     NA49505   2.304  15.483   5.022  0.0500  0.2054 -0.3560
32659ION     NA49506  11.984  12.423   1.867 -0.0153  0.0259 -0.3292
32660ION     NA49507  12.615   8.455   5.593  0.1008 -0.3106  0.1718
32661ION     NA49508   8.471  16.770   3.601  0.2647 -0.1790  0.4683
32662ION     NA49509   0.185  13.369   0.251 -0.0301  0.2822 -0.3496
32663ION     NA49510   3.873  13.947   2.364 -0.1889  0.0029  0.2380
32664ION     NA49511   8.926   6.370   3.540  0.2192  0.1421 -0.0587
32665ION     NA49512   4.548   4.853  13.583 -0.2221  0.2509 -0.1194
32666ION     NA49513   9.226   2.117   0.291  0.0744 -0.2625  0.0728
32667ION     NA49514   3.336   0.607  15.962 -0.1224  0.1104  0.2252
32668ION     NA49515   3.974  10.630  10.680 -0.2423 -0.0785 -0.0598
32669ION     NA49516   0.327  13.297  13.052 -0.2379 -0.5075  0.0443
32670ION     NA49517  15.404  17.883   5.170  0.3513 -0.1754  0.2993
32671ION     NA49518  12.870   4.835   2.359  0.0770 -0.2624 -0.0184
32672ION     NA49519   0.346   7.238  11.277 -0.0934 -0.0926  0.0835
32673ION     NA49520   6.077   4.887  10.409  0.1007  0.2650  0.0345
32674ION     NA49521  16.321   2.665   9.793 -0.0675 -0.1712 -0.3325
32675ION     NA49522  15.124  14.252  13.981  0.0068 -0.1678 -0.0047
32676ION     NA49523   8.371  10.055   4.764 -0.2363  0.1914  0.0582
32677ION     NA49524   1.061   6.380   5.753  0.0120 -0.2470 -0.0187
32678ION     NA49525   2.847   6.205   1.889 -0.1313  0.1839 -0.3438
32679ION     NA49526  11.359   4.178   5.304  0.0116  0.1293  0.1429
32680ION     NA49527  12.843   1.600   2.934 -0.0857  0.1212  0.2513
32681ION     NA49528  17.341   6.053  15.931  0.1501 -0.0415  0.4237
32682ION     NA49529  17.970   1.757   4.176 -0.0781 -0.1113 -0.1073
32683ION     NA49530  12.678  16.687   2.138  0.0501 -0.0497 -0.0642
32684ION     NA49531   5.393   9.768  15.780  0.2983 -0.0886  0.1751
32685ION     NA49532  17.786  12.260  15.937 -0.0413 -0.0246  0.0344
32686ION     NA49533   4.292   7.845  10.761  0.2393 -0.0366  0.2769
32687ION     NA49534  10.332   1.748   3.817  0.0254  0.1594 -0.0532
32688ION     NA49535  16.241   6.805   9.783 -0.1559  0.0655  0.1637
32689ION     NA49536   2.911   9.201  10.860  0.2518  0.1906 -0.0243
32690ION     NA49537   5.134   2.810  15.977  0.1235 -0.0260  0.1228
32691ION     NA49538  18.202  16.892   0.925 -0.0447 -0.1588 -0.1257
32692ION     NA49539   8.420  11.609  13.103  0.0829  0.0633  0.1630
32693ION     NA49540   7.668  17.828  14.659  0.0619  0.0016 -0.0476
32694ION     NA49541   2.376  11.657   0.191 -0.1612 -0.0250  0.0020
32695ION     NA49542  16.444  10.103  11.421 -0.1497 -0.0444  0.0843
32696ION     NA49543  13.558   4.334  13.066 -0.1722  0.2224 -0.4268
32697ION     NA49544   0.243  11.107   4.376 -0.1164 -0.2886 -0.0636
32698ION     NA49545   9.703  13.067   6.003  0.1535  0.2503 -0.0130
32699ION     NA49546  13.992  12.898  12.864 -0.0500 -0.0106  0.3413
32700ION     NA49547   0.642  10.567   6.100 -0.1592  0.1673  0.4304
32701ION     NA49548  13.383   2.234  16.125 -0.6043  0.0190  0.0812
32702ION     NA49549  10.002   6.638   1.553 -0.1864 -0.2383  0.3468
32703ION     NA49550   5.120  11.035   5.456  0.1715 -0.0355 -0.4018
32704ION     NA49551   4.315  14.733  15.717 -0.2000 -0.0506 -0.3001
32705ION     NA49552   1.281  16.917  15.140  0.2212  0.0216  0.0756
32706ION     NA49553   7.691  13.426  10.726 -0.2286  0.0814 -0.0714
32707ION     NA49554  10.378   2.359  15.842  0.0722 -0.1706  0.0973
32708ION     NA49555  12.378   6.398   0.360 -0.2797  0.0305  0.0065
32709ION     NA49556  11.722  18.120   2.905  0.3045 -0.2496 -0.0152
32710ION     NA49557  15.932  14.427  14.467  0.0994  0.0534  0.0957
32711ION     NA49558   1.983   2.468   0.141  0.0031 -0.0127 -0.2824
32712ION     NA49559   7.580   9.063   3.723  0.0402 -0.0399 -0.1983
32713ION     NA49560   1.096  16.078   4.852  0.1288  0.1574 -0.0418
32714ION     NA49561   2.980   0.614  14.912 -0.0706 -0.2700  0.0262
32715ION     NA49562   8.697  17.339  14.709  0.0601 -0.0215 -0.1007
32716ION     NA49563  18.096  17.954   0.923 -0.1088  0.3951  0.2364
32717ION     NA49564   9.415   5.774  10.238  0.1134  0.4291 -0.0831
32718ION     NA49565   9.415   2.774  15.558 -0.2617 -0.2233  0.1994
32719ION     NA49566   6.116  11.102   3.452 -0.1154 -0.2749  0.2514
32720ION     NA49567  11.706   3.858   9.490  0.1424  0.1263 -0.1842
32721ION     NA49568  15.977   1.211   3.427 -0.1765  0.2342 -0.0298
32722ION     NA49569  16.422   0.032   4.588  0.0149  0.1794 -0.0229
32723ION     NA49570  14.764  11.574   5.836 -0.3111  0.0038 -0.0018
32724ION     NA49571   1.720   2.254   2.431 -0.0062 -0.5170  0.0452
32725ION     NA49572  16.951   4.173   9.766 -0.1170  0.3919  0.0795
32726ION     NA49573  15.759   3.592   1.109  0.3464  0.0301 -0.1148
32727ION     NA49574  17.838  17.170  11.108  0.0683 -0.1859 -0.0853
32728ION     NA49575   3.398  11.097  14.523  0.0123  0.5272 -0.0185
32729ION     NA49576   5.615   5.322   0.639 -0.1383  0.3364 -0.2752
32730ION     NA49577   5.165   3.632  10.505 -0.0685  0.0894 -0.1421
32731ION     NA49578  15.007   9.482  14.113  0.2303 -0.3025  0.0647
32732ION     NA49579  17.901  18.108  15.850 -0.0355 -0.1096 -0.3973
32733ION     NA49580  14.731  15.863   5.774 -0.1366 -0.0251 -0.0561
32734ION     NA49581   1.569   5.606  15.104 -0.0857  0.2008  0.3228
32735ION     NA49582   9.879  12.184  14.248 -0.2764  0.2522 -0.1590
32736ION     NA49583   8.619  12.245  13.732 -0.1303 -0.1974 -0.0372
32737ION     NA49584  11.639  13.316   6.053 -0.1601  0.0977  0.0288
32738ION     NA49585  10.977   7.568  10.354  0.0536 -0.1495 -0.0648
32739ION     NA49586  17.005   5.283  12.828  0.0552  0.3639  0.0813
32740ION     NA49587  16.101  16.931  14.623 -0.1109 -0.1809  0.0277
32741ION     NA49588   1.706  16.973  10.246  0.0659  0.0774  0.0533
32742ION     NA49589   6.234  10.045  14.544 -0.0304 -0.1866 -0.2557
32743ION     NA49590   5.464   6.350  14.380  0.1374 -0.1242 -0.1816
32744ION     NA49591  17.885  14.783   0.371 -0.2020 -0.0355 -0.0820
32745ION     NA49592  14.211   7.229   9.973  0.3357 -0.1825 -0.0844
32746ION     NA49593   9.230  13.356   5.996 -0.1396 -0.0977 -0.0988
32747ION     NA49594   5.356  12.308  11.206 -0.0233 -0.0732  0.1455
32748ION     NA49595   0.896  16.571   3.633 -0.1193  0.1048  0.0373
32749ION     NA49596   7.080   4.579  13.002  0.1606  0.1764  0.3622
32750ION     NA49597   6.581   0.276  10.568 -0.3949 -0.1081 -0.0070
32751ION     NA49598  15.713   4.572   4.780 -0.2071 -0.0771  0.0070
32752ION     NA49599   6.875   0.722   1.582 -0.0004  0.3251 -0.1021
32753ION     NA49600   7.788  12.993   0.091  0.0484  0.0966 -0.2223
32754ION     NA49601  18.247   7.041  12.676 -0.1033  0.2671  0.0570
32755ION     NA49602  12.292  13.964  11.481 -0.1830 -0.0528  0.0896
32756ION     NA49603  15.327  15.154  10.507 -0.0618 -0.0466 -0.1265
32757ION     NA49604   0.866  11.298   0.042 -0.1787 -0.2354  0.1629
32758ION     NA49605   7.753  12.349   5.090  0.1339  0.1777 -0.2048
32759ION     NA49606  13.926   4.593  15.539 -0.1947  0.0046  0.1992
32760ION     NA49607   2.552  15.542  16.030 -0.1321  0.0628 -0.0357
32761ION     NA49608   4.646  15.038  14.612  0.0556 -0.3593 -0.0960
32762ION     NA49609  15.236  13.699  10.742  0.3274 -0.1316 -0.0184
32763ION     NA49610   0.533   5.836  10.514 -0.2108 -0.1479  0.0082
32764ION     NA49611   3.710   8.265   2.042  0.2861  0.0962 -0.0879
32765ION     NA49612   2.921  14.815   4.007  0.2619 -0.2924 -0.0175
32766ION     NA49613   3.946  18.242   5.558 -0.0679  0.2379 -0.1769
32767ION     NA49614  12.588   1.317  12.873 -0.1088  0.1692 -0.2252
32768ION     NA49615   3.527   4.424  10.877 -0.1495  0.1436  0.0381
32769ION     NA49616   7.763  12.563  10.750 -0.3965 -0.0597 -0.3655
32770ION     NA49617  13.414  13.917  14.754 -0.0578  0.1036 -0.0411
32771ION     NA49618  12.623   6.386   1.470  0.2046 -0.1372  0.1207
32772ION     NA49619   3.274  14.276   6.184 -0.1741  0.1858 -0.0061
32773ION     NA49620  14.527   6.577   3.661 -0.0890 -0.1490  0.0545
32774ION     NA49621  14.007  13.930   0.104 -0.1272  0.0751 -0.0454
32775ION     NA49622  16.190  17.794   3.242 -0.0677  0.0507 -0.0873
32776ION     NA49623  15.766   1.857   1.530 -0.0802  0.0198 -0.0919
32777ION     NA49624   6.806   3.644   5.771 -0.1797  0.2306 -0.1283
32778ION     NA49625   0.401   2.465   1.674 -0.1181  0.1093 -0.2340
32779ION     NA49626   1.628   8.665   0.231  0.1041 -0.0016 -0.2251
32780ION     NA49627  17.808   8.742  14.558 -0.0476 -0.0395  0.3758
32781ION     NA49628  11.082  12.938  14.654  0.0973  0.0268 -0.0519
32782ION     NA49629   4.787   7.831   1.368 -0.0186 -0.2039 -0.0850
32783ION     NA49630  13.552   2.980   9.799  0.1148 -0.2170 -0.0813
32784ION     NA49631   3.626  12.361  15.352 -0.0470 -0.1926 -0.3086
32785ION     NA49632   5.981   4.514   0.822  0.1976 -0.1118  0.0707
32786ION     NA49633   4.402   0.401   1.420 -0.0540 -0.1241  0.3746
32787ION     NA49634   0.175   4.668   1.576 -0.1053 -0.7523 -0.3742
32788ION     NA49635  12.722   4.843   9.625 -0.2614 -0.0208 -0.1731
32789ION     NA49636  12.254   7.703   5.479 -0.0874 -0.1797  0.1508
32790ION     NA49637   8.451  17.682  13.345  0.3003  0.1660 -0.3037
32791ION     NA49638   2.964   0.294   2.516  0.1812 -0.1107  0.0260
32792ION     NA49639   6.875  13.339  16.050 -0.1021 -0.0498 -0.0577
32793ION     NA49640   5.440   5.507  10.602 -0.0505 -0.2121  0.0234
32794ION     NA49641  10.449  17.116   1.669 -0.0711  0.1984  0.0768
32795ION     NA49642   9.618  12.749   3.093  0.1017  0.0361 -0.1509
32796ION     NA49643   5.009   4.461  10.694 -0.3135  0.1979  0.1729
32797ION     NA49644  10.009   5.014   0.568 -0.1200 -0.0709  0.0159
32798ION     NA49645   9.612   7.957   0.193  0.2832 -0.1680 -0.0173
32799ION     NA49646  17.120   1.738   5.742  0.0647 -0.0729  0.0321
32800ION     NA49647   7.929   8.186  10.766 -0.0698 -0.1412  0.3703
32801ION     NA49648   6.262   8.840  13.075  0.0091 -0.2397 -0.1338
32802ION     NA49649  11.833   5.621   0.223  0.2254 -0.2541  0.2173
32803ION     NA49650  13.364   5.217   5.386  0.1357 -0.1485 -0.0791
32804ION     NA49651   3.108  11.143   2.678  0.1059  0.2158 -0.0118
32805ION     NA49652  11.934   8.554   2.920  0.4541 -0.2273 -0.0831
32806ION     NA49653  17.876  11.998  10.560 -0.0900 -0.1255  0.0308
32807ION     NA49654  15.905   7.323   4.821 -0.1392 -0.0539  0.0823
32808ION     NA49655  13.820  11.445   2.601  0.2987 -0.2500  0.4958
32809ION     NA49656   3.833   0.475   3.469 -0.3364  0.4983  0.0389
32810ION     NA49657  10.078  10.997   6.352 -0.0833 -0.1630 -0.2623
32811ION     NA49658  18.197   4.513  15.896  0.1028  0.0888  0.2531
32812ION     NA49659   1.211   7.467   3.818  0.1355  0.0081  0.3242
32813ION     NA49660  11.731  15.687  15.888  0.3352 -0.1066  0.1491
32814ION     NA49661  12.066   3.628   4.243  0.2241 -0.2214 -0.4308
32815ION     NA49662  10.875  17.921  13.405  0.2160 -0.0429 -0.1619
32816ION     NA49663  15.253  10.966   2.937  0.0976 -0.0378 -0.1975
32817ION     NA49664   1.122  13.916   3.791  0.2891  0.0327 -0.0539
32818ION     NA49665  13.923  10.030   0.927 -0.0757  0.1611 -0.0311
32819ION     NA49666  15.168   0.547  10.256 -0.0456 -0.2275 -0.3357
32820ION     NA49667   8.763  14.622   3.251 -0.1160 -0.2476 -0.2546
32821ION     NA49668  10.636  10.473   3.972 -0.1065 -0.3040 -0.1539
32822ION     NA49669   5.464   2.067   0.344 -0.4648  0.0032 -0.0566
32823ION     NA49670   1.515  13.838   6.126 -0.2790  0.0308 -0.2217
32824ION     NA49671  13.758   1.026   1.045  0.1341  0.2131 -0.2252
32825ION     NA49672  15.210   3.742  10.467  0.3585 -0.1281  0.2204
32826ION     NA49673  10.288   1.572   5.787 -0.3260  0.0165  0.1716
32827ION     NA49674   3.995   3.645  10.505  0.3773  0.0764 -0.0219
32828ION     NA49675   7.759  17.794   5.949  0.4156 -0.0321 -0.4194
32829ION     NA49676  15.094  15.577  15.331  0.0558  0.0735  0.0832
32830ION     NA49677  11.733  15.604   3.858  0.1902 -0.1672 -0.0010
32831ION     NA49678   1.593   4.533   3.866  0.2070 -0.0982  0.1604
32832ION     NA49679  14.253  16.114  14.547 -0.0038  0.2474  0.0786
32833ION     NA49680  10.269  15.061   2.208 -0.1467  0.1239 -0.2491
32834ION     NA49681   9.459   4.658  10.371 -0.1444  0.0803 -0.0367
32835ION     NA49682   9.863   1.197  10.313  0.0872  0.0744 -0.1572
32836ION     NA49683   0.308   7.853   3.499 -0.1713 -0.3212 -0.0561
32837ION     NA49684  15.096   0.131  14.543 -0.0808  0.0403  0.2600
32838ION     NA49685   3.774   0.459   5.603  0.0316  0.0058 -0.2087
32839ION     NA49686  15.222   7.888   5.215 -0.0938  0.1305  0.0590
32840ION     NA49687   0.155  13.898  15.258  0.0117  0.1810 -0.2167
32841ION     NA49688   3.356   0.202  13.402  0.1234 -0.0546 -0.1326
32842ION     NA49689  14.220  18.233  13.274 -0.1132 -0.2103 -0.0062
32843ION     NA49690   1.886  10.336   3.051  0.3199 -0.1240  0.0071
32844ION     NA49691  14.547   5.212   2.446  0.0364  0.1070  0.0099
32845ION     NA49692   0.674  10.301  15.384  0.2473  0.1855 -0.2047
32846ION     NA49693   2.420   7.757  15.839  0.3004 -0.0678  0.3283
32847ION     NA49694  13.487   1.516  13.342  0.1630  0.2165  0.0938
32848ION     NA49695   6.817  15.428   1.390  0.0621 -0.2277  0.2937
32849ION     NA49696   2.469   4.449   2.810 -0.0167  0.3337 -0.1102
32850ION     NA49697  12.954  15.742   0.577  0.0059  0.2247 -0.2764
32851ION     NA49698   1.988   2.744  10.475 -0.0602  0.1882  0.1020
32852ION     NA49699   5.210  10.183   6.040 -0.4294 -0.1462 -0.2820
32853ION     NA49700  13.613  17.525  13.645  0.0349 -0.2493  0.2474
32854ION     NA49701   8.483   9.928  14.199  0.1637 -0.0910 -0.1536
32855ION     NA49702  12.119   7.735  15.088 -0.3710  0.0286  0.0309
32856ION     NA49703   7.609   5.107   3.228  0.0792  0.0414  0.1007
32857ION     NA49704   6.973   1.902  12.479  0.0444  0.0941 -0.0170
32858ION     NA49705   9.491  11.881   3.237  0.3751 -0.1257  0.1882
32859ION     NA49706   9.047   5.304   3.136 -0.0007  0.2586 -0.3094
32860ION     NA49707   0.477   1.852  15.561 -0.0044 -0.1612  0.1138
32861ION     NA49708  11.345  11.444   5.883  0.2460  0.0190  0.1314
32862ION     NA49709   8.026   9.396   5.963  0.1094 -0.3037  0.0576
32863ION     NA49710   4.264  10.464   0.738 -0.0106 -0.0844  0.1109
32864ION     NA49711  16.176  11.337   4.308 -0.3400  0.2394 -0.0018
32865ION     NA49712   1.090   2.506  16.126  0.1760 -0.0446 -0.2142
32866ION     NA49713   5.163   8.627  10.732 -0.4680  0.5147  0.0576
32867ION     NA49714   3.039   2.636   1.148 -0.1021 -0.2661 -0.1810
32868ION     NA49715  13.449  18.196   5.834 -0.2420  0.0074 -0.0803
32869ION     NA49716  14.915   7.591   3.411 -0.0042  0.1587  0.3148
32870ION     NA49717   0.395   8.584   5.956  0.0716 -0.0740 -0.2223
32871ION     NA49718   2.854  13.470   6.269 -0.0803  0.1320 -0.2380
32872ION     NA49719   2.372  12.266   4.070  0.1878 -0.2560 -0.2833
32873ION     NA49720   9.655   8.302   5.083  0.3094 -0.2135 -0.1428
32874ION     NA49721  13.912  11.337  16.006 -0.0657  0.0869 -0.1796
32875ION     NA49722   5.418   6.871  10.491  0.1935  0.5143 -0.1199
32876ION     NA49723  12.898   5.649   4.854 -0.2517 -0.0532  0.1027
32877ION     NA49724   5.849  11.016  15.634  0.0360 -0.0778 -0.0087
32878ION     NA49725  16.664   0.859   0.689  0.2955  0.0837 -0.1164
32879ION     NA49726   8.274  12.703   5.837 -0.3368  0.3439 -0.1160
32880ION     NA49727   1.097   3.261  14.796 -0.1667 -0.0445 -0.1219
32881ION     NA49728   6.408   5.836   4.341  0.0752  0.0638  0.0446
32882ION     NA49729  17.692   0.595  13.060 -0.1015 -0.0888 -0.1134
32883ION     NA49730   9.531  12.328  12.967 -0.3751  0.0023 -0.2470
32884ION     NA49731   8.245   4.701   1.065  0.2218 -0.2969  0.1828
32885ION     NA49732   6.829  17.616   3.883 -0.1539  0.0416  0.1620
32886ION     NA49733  11.010  10.901   0.970 -0.0492  0.2692 -0.1329
32887ION     NA49734  15.261  15.859   0.293 -0.3590 -0.0439 -0.1970
32888ION     NA49735   8.701   7.631   5.800 -0.0341  0.0509 -0.0325
32889ION     NA49736   3.707   1.241  14.907  0.1715  0.0285 -0.0480
32890ION     NA49737   0.722   4.802  10.371 -0.0028 -0.0064 -0.0226
32891ION     NA49738   0.023  12.623   1.946  0.0085  0.1448  0.2647
32892ION     NA49739  18.022  13.504   5.060 -0.1987 -0.0716 -0.0373
32893ION     NA49740   9.888   0.314  10.579  0.1439  0.1988  0.1922
32894ION     NA49741  12.465   6.293   5.170  0.0360 -0.1141  0.0715
32895ION     NA49742   2.850   9.296   5.917  0.1167  0.0400 -0.0172
32896ION     NA49743  13.212  11.248   2.858  0.1723  0.0485  0.0765
32897ION     NA49744   4.060  10.600  14.114 -0.1913  0.0065  0.1787
32898ION     NA49745  16.470   0.693   5.800  0.2241  0.0780  0.3381
32899ION     NA49746  12.113   7.768  10.206  0.1859  0.0675 -0.2073
32900ION     NA49747   6.745   2.687  10.619 -0.0715 -0.2974 -0.3240
32901ION     NA49748   8.816  10.908   0.343  0.1263  0.1578 -0.0860
32902ION     NA49749   2.222   3.185   5.923 -0.3891  0.0301  0.0685
32903ION     NA49750  14.628   0.042  11.305 -0.1600  0.3139  0.1529
32904ION     NA49751  10.111   9.551   5.268  0.1002  0.2075 -0.0482
32905ION     NA49752  13.818   6.664  14.372  0.3711  0.0244  0.0821
32906ION     NA49753  12.747   2.363   4.612  0.1829  0.0110 -0.2438
32907ION     NA49754  11.111  17.058  10.536 -0.1430  0.3862  0.1195
32908ION     NA49755  16.640  13.791   3.046  0.0425  0.1994  0.1576
32909ION     NA49756   7.476   3.442   5.254  0.1753 -0.2083  0.0943
32910ION     NA49757  14.509  17.262  13.934  0.0208  0.3670  0.1836
32911ION     NA49758   9.155   3.986  14.130  0.0549  0.2615  0.0141
32912ION     NA49759  17.956   8.821   5.724  0.3334 -0.1993  0.2980
32913ION     NA49760  11.220   1.326   4.657 -0.1376  0.0808 -0.0566
32914ION     NA49761   5.395   3.182  10.647  0.1358 -0.0405 -0.0010
32915ION     NA49762   0.866   6.980  12.483 -0.1838  0.4445  0.2110
32916ION     NA49763   9.322  17.766   3.018 -0.2300 -0.2297  0.2752
32917ION     NA49764  15.092   9.799  11.765 -0.1989 -0.1504 -0.2101
32918ION     NA49765   7.619   5.157  14.128  0.0875 -0.1903  0.0716
32919ION     NA49766  18.139   9.604   1.918 -0.2091  0.0697 -0.1163
32920ION     NA49767   9.641   2.117   5.039 -0.0306 -0.0561 -0.0528
32921ION     NA49768  17.146   6.648  14.505  0.1942  0.0414  0.1064
32922ION     NA49769  12.696  16.565  13.966  0.0586 -0.1082 -0.3575
32923ION     NA49770  17.267   4.440  14.963  0.1052 -0.0837 -0.2566
32924ION     NA49771   7.281  14.082   5.494 -0.0634  0.1303 -0.3900
32925ION     NA49772   2.372  14.834   1.446 -0.0328  0.0330  0.3172
32926ION     NA49773  11.524   7.097   5.706  0.2891 -0.1962  0.3330
32927ION     NA49774   3.536   1.112   2.994  0.0638 -0.0073  0.2065
32928ION     NA49775  10.594  13.246  16.036  0.0195 -0.1025 -0.1045
32929ION     NA49776   9.508   6.926   0.514 -0.0356 -0.1513  0.2769
32930ION     NA49777   2.114   4.750  13.148  0.1273  0.0221 -0.1211
32931ION     NA49778   5.895  14.385   5.997  0.0482  0.2084  0.1163
32932ION     NA49779   3.990  15.561  10.458 -0.3295  0.3465  0.0894
32933ION     NA49780   4.167  13.882  11.267  0.1889  0.1132  0.2143
32934ION     NA49781   9.109   2.067   3.209 -0.1221 -0.0936 -0.1576
32935ION     NA49782   9.338   7.961  13.918 -0.0633  0.0028 -0.1507
32936ION     NA49783   1.908   3.407  14.580  0.0452 -0.1544 -0.1256
32937ION     NA49784  13.271  16.782  14.541 -0.2273  0.2105  0.0834
32938ION     NA49785   6.400   8.186  11.150  0.1815  0.1734 -0.0833
32939ION     NA49786  14.274   1.589   5.370 -0.1082 -0.0102  0.0323
32940ION     NA49787   4.518   4.575   0.269 -0.1319 -0.1328 -0.0665
32941ION     NA49788  10.672   6.628  10.252 -0.0267  0.1696  0.1387
32942ION     NA49789  16.739   8.750   5.095 -0.0119  0.2461  0.1049
32943ION     NA49790   1.784   1.522  15.240  0.0031 -0.0570 -0.2219
32944ION     NA49791   8.174  14.136   5.622  0.1278  0.2050 -0.0429
32945ION     NA49792   8.615   7.985  16.147 -0.1644 -0.1888 -0.2865
32946ION     NA49793  13.994   9.984   4.555 -0.1732  0.0143 -0.1177
32947ION     NA49794   4.245   0.990  13.505 -0.2373  0.1498 -0.1900
32948ION     NA49795   0.884   8.911  14.848  0.0642 -0.0461 -0.2169
32949ION     NA49796   0.806   8.744   5.661  0.3505  0.1627  0.1661
32950ION     NA49797   6.088  15.902  13.750  0.0578 -0.0607  0.0503
32951ION     NA49798   1.330   9.682   5.916  0.0626  0.3395  0.2794
32952ION     NA49799  18.172   1.091  10.300  0.1015  0.1563  0.1152
32953ION     NA49800  13.447   8.265   1.548 -0.0664 -0.0554  0.2972
32954ION     NA49801  12.744   3.574   9.625  0.0017  0.0669  0.3185
32955ION     NA49802   1.490   7.202   2.150  0.1684 -0.0275 -0.3222
32956ION     NA49803   0.767  10.459   3.731  0.0693  0.0218  0.1684
32957ION     NA49804  13.684   8.271  11.307 -0.3216 -0.0647  0.2528
32958ION     NA49805   9.111   1.911  10.571  0.1593  0.2039 -0.0160
32959ION     NA49806   8.113  14.536  10.735  0.2000 -0.0428 -0.0534
32960ION     NA49807   6.887  10.721  10.768  0.0712  0.4551 -0.3534
32961ION     NA49808  14.912   1.202   5.801 -0.1031  0.0270 -0.1492
32962ION     NA49809  17.405  13.324   5.630 -0.0226 -0.1385 -0.1838
32963ION     NA49810  17.228   0.315   5.483 -0.1716 -0.0049 -0.1157
32964ION     NA49811  17.347   7.556  13.014 -0.0475 -0.2208  0.2296
32965ION     NA49812   9.785   6.847   2.444 -0.2101 -0.2556  0.4989
32966ION     NA49813   7.954   6.339  12.285 -0.2011 -0.0642 -0.3046
32967ION     NA49814   0.280   2.240   4.522 -0.1841 -0.0290 -0.2115
32968ION     NA49815   2.069   6.714  10.830 -0.1192  0.2758  0.0133
32969ION     NA49816   6.912  12.118  10.736  0.0601 -0.4227  0.0426
32970ION     NA49817   1.669   6.027   5.855 -0.1830 -0.0647 -0.1697
32971ION     NA49818   7.880  15.710   6.082  0.0556 -0.1477 -0.2509
32972ION     NA49819   7.527  14.294   5.075  0.0092 -0.2698  0.0885
32973ION     NA49820   5.766   7.510  11.061 -0.1476 -0.0570 -0.0349
32974ION     NA49821  17.344  11.346  10.571 -0.0561  0.2478 -0.1363
32975ION     NA49822   7.128   7.005  10.577 -0.0005 -0.3186 -0.1305
32976ION     NA49823   8.013   4.535  11.289 -0.0557 -0.1724  0.2440
32977ION     NA49824   5.789   9.728   0.744 -0.0227  0.0343 -0.0968
32978ION     NA49825   0.439   5.213   5.660  0.1594  0.2975 -0.0876
32979ION     NA49826   6.189   3.520   5.874  0.4949  0.1372  0.0055
32980ION     NA49827   0.690   6.009   5.845 -0.3059  0.2299 -0.3371
32981ION     NA49828  11.329  15.556  10.789  0.2154  0.0737  0.0643
32982ION     NA49829   7.016   7.979  10.538 -0.1038 -0.1452 -0.2509
32983ION     NA49830   6.861  15.776   5.855 -0.2348 -0.0081 -0.4424
32984ION     NA49831  13.425   7.645   2.281  0.2877 -0.0554  0.0865
32985ION     NA49832   9.503   1.628   5.754 -0.0844 -0.2068 -0.1782
32986ION     NA49833   4.972   1.163   2.843 -0.0818  0.2702  0.2283
32987ION     NA49834  17.819   6.992   4.273  0.1515 -0.0002  0.1645
32988ION     NA49835   1.855  10.370  12.711 -0.3437  0.1857  0.3171
32989ION     NA49836   0.229  10.531  10.708  0.2618  0.0484  0.0155
32990ION     NA49837   8.733   2.144  15.183 -0.0422  0.0637 -0.4004
32991ION     NA49838  17.046   5.122   9.744 -0.0173 -0.1718  0.2668
32992ION     NA49839   4.680  11.942   5.687 -0.0222  0.2121  0.0018
32993ION     NA49840   6.107  16.394  10.145 -0.1154 -0.0662  0.0184
32994ION     NA49841   8.644   7.845  10.745 -0.0941 -0.2516  0.3156
32995ION     NA49842   7.278  11.073   6.371 -0.0116 -0.1942 -0.2805
32996ION     NA49843  18.311  12.251   5.626 -0.0796 -0.0649 -0.0846
32997ION     NA49844   8.473  10.512   1.939  0.0314  0.3736  0.0810
32998ION     NA49845   8.100  11.141   3.836 -0.0267 -0.3377  0.4292
32999ION     NA49846   8.841  13.078  10.961  0.4775  0.0163  0.0526
33000ION     NA49847  15.365  17.074   5.707  0.0352  0.1768  0.0753
33001ION     NA49848   6.485  17.659  15.545  0.2598  0.0675 -0.0108
33002ION     NA49849  16.653  10.910   2.028 -0.1169  0.0914 -0.0944
33003ION     NA49850   2.044   9.054   6.271 -0.0181 -0.1987 -0.1999
33004ION     NA49851  16.522  17.310  14.531  0.0803  0.0316 -0.2283
33005ION     NA49852  16.864   7.318  13.718 -0.0266 -0.4695 -0.0591
33006ION     NA49853   2.193  16.629  15.635 -0.0079 -0.0721  0.1395
33007ION     NA49854   1.172   3.915  10.301 -0.1385  0.0551 -0.2390
33008ION     NA49855  14.370   0.152  10.438 -0.2984  0.0482 -0.2217
33009ION     NA49856   7.942   4.577   1.951  0.1406  0.0085  0.2105
33010ION     NA49857   5.892   7.896   6.257 -0.0698 -0.1057 -0.3086
33011ION     NA49858  13.421  17.481   2.404  0.3350 -0.0250 -0.1383
33012ION     NA49859  13.793   8.154  10.115  0.1029 -0.3212  0.0863
33013ION     NA49860   4.474  10.680   5.768 -0.1917  0.1023  0.3003
33014ION     NA49861  17.293  11.814   1.867 -0.0498  0.0998  0.0436
33015ION     NA49862   4.598   4.321  15.113  0.3548 -0.2351  0.1584
33016ION     NA49863   6.532   7.499   2.405  0.3396  0.0630  0.1259
33017ION     NA49864   8.027   9.389   2.181 -0.1135 -0.3594 -0.0997
33018ION     NA49865  10.912  15.135  15.507  0.2873  0.2998 -0.2649
33019ION     NA49866   5.765  18.065   2.664 -0.0273 -0.4068  0.1605
33020ION     NA49867  18.075   2.053  11.848 -0.3893 -0.4439  0.3389
33021ION     NA49868   7.701  17.796  10.528  0.3172  0.0105 -0.1644
33022ION     NA49869  10.799  11.609   0.253  0.4355  0.1247  0.0990
33023ION     NA49870  13.012  15.871  14.337 -0.1663  0.4200 -0.1564
33024ION     NA49871  14.343   4.785   9.725 -0.1093 -0.2087  0.0730
33025ION     NA49872  17.338   2.346   1.355 -0.0375 -0.2982  0.0620
33026ION     NA49873  10.944   1.563   5.447  0.1962  0.1131 -0.0523
33027ION     NA49874   3.313  16.565   0.795  0.0433  0.0681 -0.1269
33028ION     NA49875   6.652   8.653  14.321  0.4404  0.1117  0.1575
33029ION     NA49876  10.615   2.953  10.072 -0.1213  0.1485  0.2214
33030ION     NA49877   2.087   6.563   4.037  0.0135  0.0812  0.2066
  18.33242  18.33242  16.18934
